 Q-Chem 4.4, Q-Chem, Inc., Pleasanton, CA (2016)
 Q-Chem 4.4.2 for Intel X86 Linux

User input:
--------------------------------------------------------------
$comment
SP
$end

$rem
MEM_STATIC 5000
MEM_TOTAL 20000
JOBTYPE SP
EXCHANGE B3LYP
BASIS 6-31g(d,p)
$end

$molecule
0 1
O          28.195000    -30.547000     -7.107000
C          29.301000    -30.753000     -7.997000
H          30.166000    -31.306000     -7.611000
H          29.737000    -29.752000     -8.107000
H          29.037000    -31.028000     -9.026000
O          29.444000    -29.491000     -5.494000
C          28.373000    -29.973000     -5.894000
C          27.084000    -29.961000     -5.167000
H          27.315000    -29.309000     -4.316000
H          26.863000    -30.947000     -4.740000
C          25.939000    -29.169000     -5.934000
H          26.349000    -28.294000     -6.454000
H          25.489000    -29.811000     -6.701000
C          24.843000    -28.682000     -4.976000
H          24.373000    -29.607000     -4.619000
H          25.362000    -28.339000     -4.072000
C          23.930000    -27.590000     -5.589000
C          22.918000    -28.207000     -6.525000
C          21.740000    -28.773000     -6.004000
H          21.271000    -28.597000     -5.040000
C          20.835000    -29.318000     -6.910000
H          19.850000    -29.614000     -6.559000
C          21.215000    -29.555000     -8.204000
H          20.602000    -30.201000     -8.825000
C          22.397000    -29.011000     -8.723000
H          22.666000    -29.163000     -9.764000
C          23.231000    -28.324000     -7.823000
H          24.121000    -27.796000     -8.154000
C          23.953000    -22.656000     -7.975000
C          21.885000    -22.654000     -6.691000
C          23.086000    -19.701000     -3.418000
C          27.732000    -23.751000     -4.792000
C          23.714000    -22.213000     -0.995000
C          22.857000    -23.322000     -7.464000
C          27.079000    -22.858000     -2.189000
C          23.517000    -19.688000     -5.830000
C          22.100000    -25.013000     -3.420000
C          27.226000    -24.565000     -3.796000
C          23.533000    -26.477000     -4.656000
C          23.108000    -25.289000     -2.572000
C          25.873000    -24.851000     -2.020000
C          26.116000    -22.161000     -1.426000
C          22.098000    -24.734000     -5.863000
C          24.761000    -20.255000     -1.966000
C          24.521000    -26.199000     -5.805000
C          25.937000    -25.781000     -5.464000
C          23.595000    -20.951000     -1.483000
C          26.890000    -20.401000     -5.418000
C          25.333000    -19.320000     -4.189000
C          24.841000    -19.403000     -5.557000
C          23.142000    -20.561000     -6.851000
C          26.387000    -24.846000     -6.458000
C          22.391000    -25.544000     -4.717000
C          21.976000    -21.262000     -6.435000
C          26.934000    -24.179000     -2.501000
C          21.425000    -23.547000     -5.784000
C          23.503000    -24.393000     -1.565000
C          27.225000    -22.563000     -6.628000
C          22.614000    -19.826000     -4.751000
C          24.094000    -26.031000     -3.321000
C          25.417000    -20.995000     -7.290000
C          24.836000    -24.161000     -1.371000
C          21.461000    -23.788000     -3.303000
C          26.926000    -20.715000     -2.965000
C          27.531000    -21.958000     -3.186000
C          21.782000    -22.894000     -2.291000
C          27.344000    -23.862000     -6.102000
C          26.316000    -25.519000     -4.143000
C          27.597000    -21.626000     -5.636000
C          24.226000    -25.285000     -6.968000
C          21.246000    -21.710000     -4.193000
C          25.465000    -25.687000     -3.048000
C          22.790000    -23.151000     -1.398000
C          26.089000    -22.228000     -7.417000
C          22.612000    -20.655000     -2.465000
C          24.079000    -21.277000     -7.620000
C          24.415000    -19.517000     -3.096000
C          21.105000    -23.106000     -4.501000
C          21.681000    -21.617000     -2.850000
C          22.938000    -24.672000     -7.000000
C          25.350000    -24.526000     -7.355000
C          26.552000    -19.995000     -4.099000
C          21.702000    -20.830000     -5.114000
C          24.982000    -22.812000     -0.962000
C          27.918000    -22.391000     -4.516000
C          26.016000    -20.883000     -1.985000
C          25.175000    -23.201000     -7.884000
C          25.856000    -20.058000     -6.300000
O          25.240000    -32.130000    -14.510000
C          24.070000    -31.638000    -15.107000
H          23.553000    -32.475000    -15.592000
H          24.389000    -30.839000    -15.788000
H          23.443000    -31.275000    -14.283000
O          26.330000    -32.654000    -16.457000
C          26.315000    -32.595000    -15.247000
C          27.482000    -32.878000    -14.304000
H          27.285000    -33.870000    -13.880000
H          27.314000    -32.222000    -13.441000
C          28.848000    -32.933000    -14.967000
H          29.628000    -33.250000    -14.264000
H          28.931000    -33.407000    -15.953000
C          29.278000    -31.426000    -15.242000
H          30.207000    -31.535000    -15.816000
H          28.589000    -31.032000    -15.999000
C          29.697000    -30.549000    -14.015000
C          30.915000    -31.097000    -13.284000
C          32.184000    -31.163000    -13.945000
H          32.210000    -30.729000    -14.940000
C          33.264000    -31.722000    -13.327000
H          34.212000    -31.725000    -13.856000
C          33.118000    -32.281000    -12.052000
H          33.977000    -32.706000    -11.542000
C          31.894000    -32.144000    -11.394000
H          31.799000    -32.567000    -10.398000
C          30.715000    -31.708000    -12.063000
H          29.714000    -31.837000    -11.660000
C          28.301000    -27.544000     -9.781000
C          30.238000    -26.333000    -10.538000
C          27.936000    -22.891000    -12.209000
C          24.828000    -28.336000    -13.331000
C          27.891000    -23.983000    -15.494000
C          29.591000    -27.582000    -10.320000
C          25.003000    -26.098000    -15.152000
C          27.595000    -24.041000    -10.100000
C          30.606000    -26.862000    -14.528000
C          25.509000    -28.430000    -14.537000
C          29.657000    -29.100000    -14.173000
C          29.650000    -27.151000    -15.524000
C          26.939000    -27.321000    -15.883000
C          25.697000    -24.891000    -15.402000
C          30.599000    -27.765000    -12.250000
C          26.355000    -23.126000    -13.800000
C          28.759000    -29.733000    -13.234000
C          27.239000    -29.742000    -13.429000
C          27.636000    -23.067000    -14.440000
C          24.582000    -25.616000    -11.119000
C          25.683000    -23.747000    -11.585000
C          26.201000    -24.228000    -10.379000
C          28.352000    -25.130000     -9.644000
C          26.624000    -29.517000    -12.229000
C          30.546000    -27.974000    -13.641000
C          29.660000    -25.116000    -10.177000
C          25.630000    -27.293000    -15.406000
C          30.841000    -26.461000    -11.777000
C          28.926000    -26.017000    -16.014000
C          25.063000    -27.972000    -11.104000
C          28.478000    -23.388000    -11.060000
C          29.000000    -28.407000    -15.324000
C          26.312000    -26.480000     -9.571000
C          27.587000    -26.122000    -16.220000
C          30.833000    -25.581000    -14.070000
C          24.538000    -24.696000    -13.424000
C          24.260000    -26.043000    -13.951000
C          30.082000    -24.481000    -14.563000
C          25.342000    -28.852000    -12.127000
C          26.707000    -29.142000    -14.584000
C          24.363000    -26.897000    -11.683000
C          28.828000    -29.427000    -11.762000
C          30.384000    -24.170000    -12.328000
C          27.597000    -28.392000    -15.414000
C          29.128000    -24.674000    -15.588000
C          26.034000    -27.782000    -10.048000
C          28.572000    -22.936000    -13.435000
C          27.725000    -26.358000     -9.402000
C          26.540000    -23.039000    -12.447000
C          30.925000    -25.413000    -12.717000
C          29.827000    -23.580000    -13.510000
C          29.802000    -28.487000    -11.355000
C          27.541000    -29.318000    -11.180000
C          24.646000    -24.561000    -12.052000
C          29.684000    -24.094000    -11.083000
C          26.958000    -24.898000    -15.981000
C          24.176000    -27.155000    -13.083000
C          25.463000    -24.060000    -14.289000
C          27.306000    -28.408000    -10.157000
C          25.517000    -25.400000    -10.123000
$end

--------------------------------------------------------------

             Standard Nuclear Orientation (Angstroms)
    I     Atom           X                Y                Z
 ----------------------------------------------------------------
    1      O      -1.4890608662    -4.8045785902    -2.0140701131
    2      C      -2.6788153076    -4.4286137711    -2.7218178251
    3      H      -2.9448380441    -5.0119117536    -3.6117758956
    4      H      -2.4149814860    -3.4688426625    -3.1838006535
    5      H      -3.5442166314    -4.1779922829    -2.0953743573
    6      O      -0.1060773593    -4.5769211616    -3.8340796502
    7      C      -0.2983101190    -4.8980786569    -2.6511724563
    8      C       0.7274835083    -5.3778078777    -1.6983863792
    9      H       1.6512133690    -5.2182851956    -2.2675451079
   10      H       0.6495779072    -6.4616109821    -1.5478289206
   11      C       0.9060038364    -4.4262770549    -0.4377129141
   12      H       0.7896728930    -3.3729701520    -0.7225579242
   13      H       0.1291123769    -4.6407326777     0.3061966544
   14      C       2.2869637142    -4.5932546427     0.2112996445
   15      H       2.2692185894    -5.6142001413     0.6129579563
   16      H       2.9996024631    -4.6977743002    -0.6166180173
   17      C       2.6585196724    -3.4373673122     1.1744572894
   18      C       1.9522964843    -3.6014709729     2.4993149411
   19      C       2.4871245775    -4.4650838765     3.4727689274
   20      H       3.5024646217    -4.8408949391     3.5626779918
   21      C       1.8041112264    -4.5716008498     4.6806732682
   22      H       2.2726739587    -5.0988656892     5.5074034267
   23      C       0.5263242073    -4.0924319964     4.7932012370
   24      H      -0.0806141056    -4.3992809290     5.6394846510
   25      C      -0.0192882729    -3.2483632459     3.8173549551
   26      H      -1.0153307600    -2.8332182670     3.9385985541
   27      C       0.7543084891    -3.0236071864     2.6647241540
   28      H       0.4502463149    -2.3159603477     1.8984166792
   29      C       3.2211704878     2.0034836470     1.5186169896
   30      C       4.9518206027     1.1602775860     3.0082940414
   31      C       8.6202227944     2.1881236752     0.4860932609
   32      C       3.9098985533    -0.1543490775    -3.0069511057
   33      C       9.0754206696    -1.1216452163    -0.7028902457
   34      C       3.6699306745     1.0668622558     2.4281485527
   35      C       6.6503222974    -0.7488608529    -3.3758690529
   36      C       6.5609327938     3.4454381191     0.9128942478
   37      C       6.2994188059    -2.4816916282     1.8989760864
   38      C       4.4681682989    -1.4021358641    -2.8019851911
   39      C       4.0932226975    -2.9838762488     1.1211648380
   40      C       6.4903552201    -3.0429127426     0.6907053608
   41      C       6.2010380989    -2.6681906277    -2.1231268908
   42      C       7.9356818666    -0.6245988912    -2.8033686226
   43      C       4.4968882664    -1.0226536732     2.7164024747
   44      C       8.9238940341     1.1520365896    -1.5276476185
   45      C       2.9800271524    -2.0736204275     0.5681196157
   46      C       2.9751202907    -1.7440534333    -0.9108741365
   47      C       9.3593657873     0.1966449970    -0.5403015511
   48      C       5.3762350851     2.9590929979    -2.3143649240
   49      C       7.4277752435     3.1227756260    -1.3828919101
   50      C       6.4669454751     3.6853425063    -0.4444348460
   51      C       5.4408074871     3.1662494209     1.6955614620
   52      C       2.4981522594    -0.3986183561    -1.0753945000
   53      C       4.9026822563    -2.2629384715     2.1228623692
   54      C       5.8204971866     2.2399851748     2.7064438877
   55      C       5.7911283906    -1.7448295499    -3.0108455123
   56      C       5.3840373720    -0.1065726588     3.2082368366
   57      C       7.6039990788    -2.7349609263    -0.1079516587
   58      C       3.2177868054     1.7345475921    -2.0107886189
   59      C       7.6593655036     2.6990406384     1.3976935700
   60      C       5.1857396063    -3.2106325057     0.0960548908
   61      C       4.0951250659     3.2363172031    -0.2385872724
   62      C       7.4175936750    -2.5003787967    -1.4415832607
   63      C       7.2241450531    -1.5484978036     2.3424461004
   64      C       7.1575616481     1.4682891486    -3.1637650412
   65      C       6.1527763780     0.5681349673    -3.5379895872
   66      C       8.3661194425    -1.2520708170     1.6113875967
   67      C       2.9455534999     0.3654401923    -2.1830441127
   68      C       4.0268264585    -2.1402148421    -1.7441185633
   69      C       4.3478906797     2.0830123421    -2.7865814722
   70      C       2.6134198687    -0.7355101205     1.1597697708
   71      C       7.6294573896     0.6634512434     2.6577432991
   72      C       5.1051602514    -2.9152897105    -1.3106382530
   73      C       8.6023453969    -1.8193880591     0.3858630375
   74      C       3.1471380047     2.3044845008    -0.7087046480
   75      C       9.0633053992     0.8444186249     0.6889122519
   76      C       4.1500811475     3.0260554094     1.1511745083
   77      C       8.5129691410     2.3171141125    -0.8834464869
   78      C       6.7345591181    -0.3986906620     3.0245847588
   79      C       8.5949381277     0.1163395817     1.7802247671
   80      C       3.3359024326    -0.3189698074     2.3174614881
   81      C       2.3001940877     0.2220716222     0.1727779693
   82      C       6.7440459243     2.6171000979    -2.4903631189
   83      C       7.1809752236     1.9256997597     2.4675606764
   84      C       8.3675887364    -1.5286061496    -1.8435351305
   85      C       4.7459236333     0.8972097658    -3.4014863574
   86      C       8.1646581177     0.7447712276    -2.6355581510
   87      C       2.6022341642     1.6095306914     0.3959821888
   88      C       5.2006821544     3.5923965987    -1.0762870922
   89      O      -7.1555576168    -2.7653042501     3.4425311863
   90      C      -6.9833399281    -2.1593593504     4.6957449933
   91      H      -7.6105559307    -2.6890340682     5.4231566919
   92      H      -7.2345400155    -1.1001355209     4.5583899963
   93      H      -5.9316607936    -2.3199154218     4.9641974959
   94      O      -9.3394611767    -2.1372761774     3.1431468498
   95      C      -8.3425698960    -2.6917355885     2.7349942608
   96      C      -8.1340654793    -3.2906850182     1.3461053203
   97      H      -8.2255811382    -4.3757867919     1.4758281974
   98      H      -7.0620820094    -3.1731100859     1.1452158594
   99      C      -9.1568548637    -2.8723082094     0.3033144874
  100      H      -9.0236163443    -3.4189920757    -0.6382173747
  101      H     -10.2064932479    -2.7802065495     0.6091535735
  102      C      -8.7690799837    -1.3951490217    -0.1430098080
  103      H      -9.5983737429    -1.1108306414    -0.8031862386
  104      H      -8.9379257205    -0.7462387959     0.7249836459
  105      C      -7.4982102704    -1.2109626265    -1.0380989342
  106      C      -7.6083231830    -1.9272455276    -2.3771295358
  107      C      -8.6017890090    -1.5289166543    -3.3289686825
  108      H      -9.1848754035    -0.6561981037    -3.0507069569
  109      C      -8.7599830523    -2.2119129306    -4.4991377863
  110      H      -9.5069801027    -1.8569104601    -5.2023608324
  111      C      -7.9756384029    -3.3438192194    -4.7501629332
  112      H      -8.0769703592    -3.8793808316    -5.6890514219
  113      C      -6.9644627020    -3.6750786693    -3.8458953407
  114      H      -6.3514373283    -4.5456397890    -4.0610539522
  115      C      -6.8744296459    -3.0823094444    -2.5543007082
  116      H      -6.2754993900    -3.4933207855    -1.7459670976
  117      C      -2.1497585276    -0.8743435026    -1.4697799735
  118      C      -2.8096932103     0.7373081126    -3.1306846323
  119      C      -1.6281222313     4.3072166765    -0.7226871516
  120      C      -4.1790571430    -0.1278015777     3.0707172773
  121      C      -4.7712820477     5.0017742850     0.5516166180
  122      C      -3.0393948324    -0.5107102423    -2.4858425193
  123      C      -4.5677077581     2.7249740265     3.3274896503
  124      C      -0.4093510616     2.2310677080    -1.0241242035
  125      C      -6.3733927892     2.3091608900    -2.0514769794
  126      C      -5.4184669056     0.4602998313     2.8585070677
  127      C      -6.8853670026     0.1114636692    -1.0802512947
  128      C      -6.9824530089     2.4629229528    -0.7885930272
  129      C      -6.4241038236     2.2279673731     1.8835491963
  130      C      -4.4005657742     3.9574410491     2.6536398189
  131      C      -5.0111162557     0.3943256759    -2.7459917376
  132      C      -2.4691948357     4.7426456999     1.3240335034
  133      C      -6.1475786908    -0.9907588440    -0.5061537957
  134      C      -5.7863524488    -1.0513144873     0.9819169742
  135      C      -3.3875475394     5.2393013823     0.3421967325
  136      C      -0.9751626750     1.0859654044     2.2873336224
  137      C      -0.7881128652     3.0363655626     1.2464351684
  138      C      -0.2471316450     2.0716187569     0.3916112566
  139      C      -0.8508085740     1.1406983343    -1.7877444583
  140      C      -4.5088019523    -1.5171178018     1.1224232055
  141      C      -6.2036766004     0.9032418392    -2.1981093023
  142      C      -1.7158305458     1.5478853988    -2.8274966802
  143      C      -5.5822643626     1.8847853336     2.9396393486
  144      C      -4.0656273432     1.3049003526    -3.2555145284
  145      C      -6.5568316084     3.6122602301    -0.0482537494
  146      C      -2.3065046570    -0.9024483011     2.0505606026
  147      C      -1.1486959916     3.3595068911    -1.5788241986
  148      C      -7.2289424345     1.2175633584    -0.1341020465
  149      C      -0.7690543082    -0.2594916615     0.2178011571
  150      C      -6.3143882355     3.4924158133     1.2833770277
  151      C      -5.4461975403     3.2059368688    -2.5396939540
  152      C      -2.3329331258     3.0238730963     3.0372230678
  153      C      -3.3305387407     2.0996670786     3.6029511599
  154      C      -5.0307175190     4.3248319209    -1.7699535989
  155      C      -3.6558027825    -1.1220791657     2.2235543931
  156      C      -6.2224561189    -0.0109439446     1.8212570262
  157      C      -1.9893943950     0.2428721556     2.8045819109
  158      C      -4.8475668857    -1.4549994117    -1.1058462184
  159      C      -3.2012698779     3.5071788875    -2.8505621522
  160      C      -6.8122991550     1.1368316380     1.2062802747
  161      C      -5.6155060144     4.5759146578    -0.5078244950
  162      C      -1.7043890538    -1.1699036865     0.7621501799
  163      C      -2.8435087074     4.9430410291    -0.8904968841
  164      C      -1.0577729260    -0.0992403568    -1.1717941362
  165      C      -1.4131050248     4.1606893109     0.6771918903
  166      C      -4.3177270240     2.6845342121    -3.1071360772
  167      C      -3.6552812101     4.5499435492    -1.9776425851
  168      C      -4.3874418309    -0.7525927776    -2.2428751778
  169      C      -3.8892491545    -1.7786644394    -0.1139580817
  170      C      -1.2113416673     2.4661579720     2.4513395981
  171      C      -1.9333393171     2.8822432469    -2.6323683437
  172      C      -5.2965692433     4.3648597564     1.6755811395
  173      C      -3.1677089538     0.7008586406     3.4852846212
  174      C      -3.0196241486     4.0944198420     2.4121381899
  175      C      -2.5400208928    -1.5288593852    -0.3308325446
  176      C      -0.3954215986     0.8672791040     1.0508169074
 ----------------------------------------------------------------

    9   -5804.2208586110      8.92E-06 Convergence criterion met
 Total energy in the final basis set = -5804.2208586110

                    Orbital Energies (a.u.)
 --------------------------------------------------------------

 Alpha MOs
 -- Occupied --
-19.194 -19.186 -19.144 -19.132 -10.322 -10.316 -10.244 -10.243
-10.243 -10.242 -10.241 -10.238 -10.237 -10.236 -10.231 -10.230
-10.230 -10.230 -10.230 -10.229 -10.229 -10.229 -10.228 -10.228
-10.226 -10.226 -10.225 -10.225 -10.224 -10.223 -10.222 -10.222
-10.222 -10.222 -10.221 -10.221 -10.221 -10.221 -10.220 -10.220
-10.220 -10.220 -10.220 -10.220 -10.220 -10.220 -10.220 -10.219
-10.219 -10.219 -10.218 -10.218 -10.217 -10.217 -10.217 -10.217
-10.217 -10.217 -10.217 -10.216 -10.216 -10.216 -10.216 -10.216
-10.216 -10.216 -10.216 -10.215 -10.215 -10.215 -10.215 -10.215
-10.215 -10.215 -10.214 -10.214 -10.214 -10.214 -10.214 -10.214
-10.213 -10.213 -10.213 -10.213 -10.213 -10.213 -10.213 -10.213
-10.213 -10.213 -10.213 -10.212 -10.212 -10.212 -10.212 -10.212
-10.212 -10.212 -10.212 -10.212 -10.211 -10.211 -10.211 -10.211
-10.211 -10.210 -10.210 -10.210 -10.210 -10.210 -10.210 -10.209
-10.209 -10.209 -10.209 -10.209 -10.208 -10.208 -10.207 -10.207
-10.207 -10.207 -10.207 -10.207 -10.206 -10.206 -10.206 -10.206
-10.205 -10.204 -10.204 -10.203 -10.203 -10.203 -10.202 -10.202
-10.202 -10.202 -10.202 -10.201 -10.201 -10.200 -10.199 -10.198
-10.198 -10.194 -10.193 -10.191  -1.095  -1.092  -1.020  -1.000
 -0.989  -0.983  -0.973  -0.969  -0.966  -0.966  -0.961  -0.960
 -0.946  -0.933  -0.931  -0.929  -0.929  -0.928  -0.927  -0.926
 -0.923  -0.917  -0.904  -0.895  -0.894  -0.891  -0.890  -0.881
 -0.879  -0.876  -0.863  -0.860  -0.847  -0.845  -0.843  -0.841
 -0.837  -0.837  -0.824  -0.819  -0.810  -0.804  -0.802  -0.800
 -0.800  -0.797  -0.796  -0.795  -0.793  -0.790  -0.789  -0.783
 -0.778  -0.773  -0.771  -0.771  -0.769  -0.768  -0.766  -0.764
 -0.759  -0.754  -0.747  -0.746  -0.739  -0.732  -0.720  -0.718
 -0.717  -0.717  -0.716  -0.715  -0.713  -0.713  -0.711  -0.710
 -0.709  -0.707  -0.705  -0.703  -0.703  -0.700  -0.676  -0.675
 -0.665  -0.663  -0.659  -0.655  -0.650  -0.646  -0.636  -0.633
 -0.630  -0.629  -0.627  -0.625  -0.622  -0.622  -0.620  -0.619
 -0.618  -0.616  -0.616  -0.615  -0.615  -0.613  -0.610  -0.610
 -0.608  -0.608  -0.603  -0.603  -0.573  -0.569  -0.567  -0.566
 -0.564  -0.562  -0.560  -0.559  -0.558  -0.554  -0.553  -0.553
 -0.542  -0.538  -0.537  -0.533  -0.531  -0.529  -0.527  -0.525
 -0.524  -0.524  -0.522  -0.521  -0.517  -0.516  -0.515  -0.513
 -0.512  -0.506  -0.506  -0.498  -0.496  -0.492  -0.491  -0.488
 -0.487  -0.487  -0.485  -0.482  -0.481  -0.480  -0.480  -0.478
 -0.476  -0.476  -0.473  -0.472  -0.470  -0.469  -0.469  -0.468
 -0.467  -0.465  -0.465  -0.464  -0.462  -0.462  -0.461  -0.460
 -0.459  -0.456  -0.455  -0.454  -0.452  -0.450  -0.449  -0.447
 -0.445  -0.444  -0.442  -0.441  -0.440  -0.439  -0.437  -0.437
 -0.433  -0.433  -0.432  -0.431  -0.431  -0.429  -0.428  -0.427
 -0.426  -0.424  -0.424  -0.423  -0.422  -0.421  -0.421  -0.420
 -0.419  -0.418  -0.417  -0.417  -0.416  -0.415  -0.414  -0.412
 -0.411  -0.410  -0.409  -0.407  -0.406  -0.402  -0.396  -0.396
 -0.394  -0.394  -0.391  -0.391  -0.390  -0.388  -0.386  -0.384
 -0.384  -0.379  -0.374  -0.373  -0.372  -0.371  -0.370  -0.368
 -0.368  -0.365  -0.363  -0.363  -0.361  -0.361  -0.359  -0.359
 -0.357  -0.357  -0.356  -0.356  -0.354  -0.353  -0.353  -0.352
 -0.350  -0.350  -0.348  -0.348  -0.347  -0.346  -0.344  -0.344
 -0.343  -0.343  -0.341  -0.340  -0.339  -0.338  -0.337  -0.334
 -0.334  -0.333  -0.330  -0.329  -0.329  -0.327  -0.326  -0.323
 -0.316  -0.308  -0.300  -0.294  -0.291  -0.281  -0.277  -0.276
 -0.274  -0.272  -0.271  -0.271  -0.269  -0.267  -0.266  -0.266
 -0.263  -0.263  -0.261  -0.260  -0.259  -0.258  -0.256  -0.254
 -0.252  -0.249  -0.249  -0.245  -0.223  -0.220  -0.217  -0.215
 -0.214  -0.208  -0.206  -0.203  -0.201  -0.199

          Ground-State Mulliken Net Atomic Charges

     Atom                 Charge (a.u.)
  ----------------------------------------
      1 O                    -0.448844
      2 C                    -0.100199
      3 H                     0.126105
      4 H                     0.130376
      5 H                     0.121002
      6 O                    -0.485370
      7 C                     0.590722
      8 C                    -0.262784
      9 H                     0.135534
     10 H                     0.132745
     11 C                    -0.193112
     12 H                     0.113406
     13 H                     0.123801
     14 C                    -0.184411
     15 H                     0.113218
     16 H                     0.107255
     17 C                     0.008257
     18 C                     0.099596
     19 C                    -0.111335
     20 H                     0.095934
     21 C                    -0.086030
     22 H                     0.088401
     23 C                    -0.080500
     24 H                     0.085118
     25 C                    -0.099786
     26 H                     0.092158
     27 C                    -0.098620
     28 H                     0.093925
     29 C                    -0.004994
     30 C                     0.042008
     31 C                     0.001504
     32 C                    -0.002570
     33 C                     0.012459
     34 C                    -0.002525
     35 C                    -0.000670
     36 C                     0.033412
     37 C                    -0.005330
     38 C                     0.036677
     39 C                    -0.094239
     40 C                    -0.000850
     41 C                    -0.013393
     42 C                    -0.013766
     43 C                     0.018733
     44 C                    -0.005941
     45 C                    -0.086994
     46 C                     0.015913
     47 C                    -0.010361
     48 C                     0.013586
     49 C                    -0.021001
     50 C                    -0.023052
     51 C                    -0.009356
     52 C                    -0.012669
     53 C                     0.045015
     54 C                    -0.036032
     55 C                     0.004224
     56 C                    -0.001206
     57 C                    -0.011936
     58 C                    -0.007957
     59 C                    -0.000116
     60 C                     0.018452
     61 C                     0.012079
     62 C                     0.023049
     63 C                     0.001718
     64 C                    -0.011162
     65 C                    -0.007029
     66 C                     0.016554
     67 C                     0.001466
     68 C                     0.017260
     69 C                    -0.019484
     70 C                     0.029195
     71 C                    -0.004001
     72 C                    -0.024775
     73 C                    -0.007793
     74 C                     0.000576
     75 C                    -0.003860
     76 C                    -0.015762
     77 C                    -0.001352
     78 C                    -0.023335
     79 C                    -0.014516
     80 C                    -0.040207
     81 C                     0.024081
     82 C                     0.018424
     83 C                     0.011582
     84 C                    -0.012141
     85 C                    -0.009049
     86 C                     0.031674
     87 C                     0.005491
     88 C                    -0.017286
     89 O                    -0.481138
     90 C                    -0.070786
     91 H                     0.119310
     92 H                     0.124346
     93 H                     0.121860
     94 O                    -0.471293
     95 C                     0.612181
     96 C                    -0.260366
     97 H                     0.131419
     98 H                     0.136184
     99 C                    -0.184201
    100 H                     0.110523
    101 H                     0.129614
    102 C                    -0.212068
    103 H                     0.100881
    104 H                     0.127011
    105 C                     0.008169
    106 C                     0.079209
    107 C                    -0.085420
    108 H                     0.092443
    109 C                    -0.089780
    110 H                     0.094031
    111 C                    -0.078572
    112 H                     0.095996
    113 C                    -0.107706
    114 H                     0.084895
    115 C                    -0.108815
    116 H                     0.101104
    117 C                     0.027520
    118 C                    -0.003303
    119 C                     0.026149
    120 C                     0.003576
    121 C                     0.022405
    122 C                    -0.023833
    123 C                    -0.013259
    124 C                     0.002245
    125 C                     0.013427
    126 C                    -0.019975
    127 C                    -0.075472
    128 C                    -0.013191
    129 C                     0.020336
    130 C                     0.005321
    131 C                    -0.018609
    132 C                    -0.035052
    133 C                    -0.067359
    134 C                     0.035083
    135 C                    -0.021990
    136 C                    -0.009357
    137 C                    -0.002112
    138 C                     0.008469
    139 C                    -0.008618
    140 C                     0.020756
    141 C                     0.025372
    142 C                    -0.001227
    143 C                    -0.001923
    144 C                     0.016872
    145 C                    -0.002268
    146 C                     0.016347
    147 C                    -0.021876
    148 C                     0.010758
    149 C                    -0.030788
    150 C                     0.010245
    151 C                     0.014815
    152 C                    -0.016149
    153 C                    -0.016379
    154 C                    -0.009449
    155 C                    -0.011067
    156 C                    -0.038530
    157 C                    -0.014295
    158 C                    -0.008343
    159 C                    -0.024281
    160 C                     0.045528
    161 C                    -0.027575
    162 C                    -0.033318
    163 C                     0.021980
    164 C                     0.016560
    165 C                     0.011878
    166 C                     0.010881
    167 C                    -0.015109
    168 C                     0.032643
    169 C                    -0.019074
    170 C                    -0.001681
    171 C                     0.026114
    172 C                    -0.017687
    173 C                     0.010453
    174 C                     0.042130
    175 C                     0.012094
    176 C                     0.029177
  ----------------------------------------
  Sum of atomic charges =     0.000000

                    Cartesian Multipole Moments
 -----------------------------------------------------------------
    Charge (ESU x 10^10)
                 0.0000
    Dipole Moment (Debye)
         X      -3.6374      Y      -3.2918      Z       1.6502
       Tot       5.1759
    Quadrupole Moments (Debye-Ang)
        XX    -811.4239     XY       6.3680     YY    -794.3544
        XZ      23.7769     YZ      -8.8517     ZZ    -806.9593

 Total job time:  970.83s(wall), 7731.02s(cpu)
        *  Thank you very much for using Q-Chem.  Have a nice day.  *
