 Q-Chem 4.4, Q-Chem, Inc., Pleasanton, CA (2016)
 Q-Chem 4.4.2 for Intel X86 Linux

User input:
--------------------------------------------------------------
$comment
SP
$end

$rem
MEM_STATIC 5000
MEM_TOTAL 20000
JOBTYPE SP
EXCHANGE B3LYP
BASIS 6-31g(d,p)
$end

$molecule
0 1
O         -22.126000     28.565000      0.304000
C         -21.224000     27.577000      0.739000
H         -20.810000     26.899000     -0.017000
H         -21.771000     26.917000      1.424000
H         -20.428000     28.091000      1.292000
O         -23.574000     26.891000     -0.361000
C         -23.220000     28.056000     -0.342000
C         -24.204000     29.119000     -0.739000
H         -24.223000     29.957000     -0.031000
H         -25.197000     28.656000     -0.690000
C         -24.061000     29.679000     -2.204000
H         -24.581000     30.642000     -2.284000
H         -22.989000     29.905000     -2.269000
C         -24.535000     28.628000     -3.306000
H         -24.579000     27.607000     -2.908000
H         -25.567000     28.971000     -3.453000
C         -23.688000     28.773000     -4.533000
C         -24.118000     29.986000     -5.400000
C         -23.554000     31.262000     -5.271000
H         -22.795000     31.345000     -4.498000
C         -23.979000     32.355000     -6.103000
H         -23.468000     33.310000     -6.172000
C         -25.114000     32.185000     -6.866000
H         -25.582000     32.970000     -7.452000
C         -25.817000     30.950000     -6.871000
H         -26.667000     30.857000     -7.541000
C         -25.364000     29.903000     -6.100000
H         -25.891000     28.953000     -6.097000
C         -21.628000     25.685000     -8.694000
C         -20.003000     27.462000     -8.400000
C         -16.821000     24.758000     -6.513000
C         -22.574000     23.418000     -4.171000
C         -17.582000     25.779000     -3.181000
C         -21.334000     27.054000     -8.436000
C         -20.286000     23.319000     -2.636000
C         -18.328000     24.323000     -8.356000
C         -19.923000     28.752000     -4.549000
C         -22.404000     24.377000     -3.138000
C         -22.219000     28.383000     -4.484000
C         -20.189000     28.135000     -3.369000
C         -20.896000     25.688000     -2.149000
C         -18.914000     23.754000     -2.679000
C         -21.035000     28.581000     -6.718000
C         -17.294000     23.731000     -4.455000
C         -23.237000     27.489000     -5.165000
C         -23.367000     26.104000     -4.623000
C         -16.941000     25.064000     -4.224000
C         -20.322000     22.186000     -6.404000
C         -18.149000     22.765000     -6.497000
C         -18.661000     23.102000     -7.731000
C         -19.273000     25.138000     -8.919000
C         -23.448000     25.167000     -5.662000
C         -21.103000     28.831000     -5.355000
C         -18.960000     26.469000     -8.630000
C         -21.224000     24.360000     -2.448000
C         -19.836000     28.377000     -7.411000
C         -19.185000     27.241000     -2.813000
C         -22.565000     23.112000     -6.479000
C         -17.364000     25.161000     -7.704000
C         -21.527000     27.838000     -3.280000
C         -20.991000     23.601000     -8.333000
C         -19.528000     26.038000     -2.132000
C         -18.716000     28.529000     -5.224000
C         -19.229000     22.240000     -4.321000
C         -20.468000     22.418000     -3.697000
C         -17.690000     27.744000     -4.670000
C         -23.139000     23.785000     -5.386000
C         -22.755000     25.715000     -3.390000
C         -21.609000     22.288000     -5.819000
C         -23.016000     27.147000     -6.644000
C         -17.664000     27.459000     -6.874000
C         -21.828000     26.582000     -2.748000
C         -17.968000     27.065000     -3.443000
C         -22.213000     23.720000     -7.699000
C         -16.629000     25.689000     -5.486000
C         -20.633000     24.772000     -8.992000
C         -17.207000     23.563000     -5.867000
C         -18.608000     28.410000     -6.626000
C         -17.026000     27.051000     -5.698000
C         -21.969000     27.747000     -7.366000
C         -23.239000     25.806000     -6.871000
C         -19.132000     22.111000     -5.733000
C         -17.800000     26.526000     -7.886000
C         -18.539000     25.101000     -2.420000
C         -21.652000     22.432000     -4.477000
C         -18.321000     23.091000     -3.722000
C         -22.570000     25.033000     -7.872000
C         -20.043000     22.741000     -7.656000
O          -9.974000     11.456000     -6.512000
C         -10.506000     10.709000     -7.635000
H          -9.862000     10.764000     -8.521000
H         -11.525000     11.021000     -7.897000
H         -10.486000      9.627000     -7.456000
O         -11.914000     11.121000     -5.393000
C         -10.823000     11.660000     -5.457000
C         -10.285000     12.541000     -4.371000
H          -9.192000     12.466000     -4.420000
H         -10.567000     12.078000     -3.418000
C         -10.801000     13.998000     -4.322000
H         -11.853000     14.050000     -4.018000
H         -10.258000     14.604000     -3.586000
C         -10.472000     14.703000     -5.636000
H          -9.376000     14.740000     -5.685000
H         -10.787000     14.043000     -6.454000
C         -11.189000     16.095000     -5.854000
C         -10.551000     17.132000     -5.089000
C          -9.672000     18.046000     -5.741000
H          -9.441000     18.021000     -6.802000
C          -9.178000     19.181000     -5.114000
H          -8.595000     19.930000     -5.641000
C          -9.403000     19.340000     -3.750000
H          -9.117000     20.211000     -3.168000
C         -10.238000     18.458000     -3.109000
H         -10.467000     18.562000     -2.052000
C         -10.772000     17.355000     -3.733000
H         -11.425000     16.679000     -3.189000
C         -15.778000     19.222000     -6.026000
C         -14.315000     20.292000     -7.551000
C         -16.544000     19.175000    -11.297000
C         -16.381000     14.287000     -7.180000
C         -14.426000     16.458000    -12.062000
C         -14.475000     19.602000     -6.335000
C         -16.192000     14.070000     -9.987000
C         -17.398000     19.854000     -9.167000
C         -11.765000     17.698000     -9.263000
C         -15.190000     13.955000     -7.812000
C         -11.816000     16.481000     -7.205000
C         -11.953000     16.330000     -9.592000
C         -13.768000     14.140000     -9.588000
C         -15.984000     14.763000    -11.149000
C         -12.497000     18.966000     -7.301000
C         -16.821000     16.959000    -11.821000
C         -12.758000     16.265000     -6.058000
C         -13.855000     15.217000     -6.234000
C         -15.539000     17.392000    -12.154000
C         -18.623000     16.625000     -8.261000
C         -18.264000     17.819000    -10.145000
C         -18.235000     18.728000     -9.114000
C         -16.746000     20.329000     -7.967000
C         -15.049000     15.686000     -5.703000
C         -11.799000     17.880000     -7.843000
C         -15.404000     20.596000     -8.336000
C         -15.077000     13.788000     -9.230000
C         -13.096000     19.950000     -8.139000
C         -12.710000     15.979000    -10.696000
C         -17.338000     16.042000     -6.323000
C         -16.503000     20.090000    -10.226000
C         -12.024000     15.575000     -8.435000
C         -17.718000     18.379000     -6.849000
C         -13.612000     14.913000    -10.710000
C         -12.364000     18.732000    -10.058000
C         -17.974000     15.434000    -10.212000
C         -17.385000     14.473000     -9.391000
C         -13.096000     18.344000    -11.237000
C         -16.307000     15.170000     -6.128000
C         -13.941000     14.417000     -7.390000
C         -18.127000     15.636000     -7.386000
C         -13.580000     17.472000     -5.600000
C         -14.046000     20.181000    -10.274000
C         -13.017000     14.519000     -8.455000
C         -13.224000     16.989000    -11.546000
C         -17.195000     17.395000     -6.057000
C         -15.345000     18.766000    -11.872000
C         -16.893000     19.503000     -6.836000
C         -17.431000     18.047000    -11.282000
C         -12.934000     19.858000     -9.482000
C         -14.135000     19.289000    -11.363000
C         -13.406000     18.738000     -6.191000
C         -14.927000     17.058000     -5.370000
C         -18.503000     16.536000     -9.623000
C         -15.290000     20.513000     -9.693000
C         -14.729000     15.257000    -11.490000
C         -17.482000     14.525000     -7.949000
C         -17.058000     15.647000    -11.278000
C         -15.974000     17.924000     -5.591000
C         -18.364000     18.020000     -7.975000
$end

--------------------------------------------------------------

             Standard Nuclear Orientation (Angstroms)
    I     Atom           X                Y                Z
 ----------------------------------------------------------------
    1      O       9.6424400584     4.6375617882    -1.5407045942
    2      C       8.4346639548     5.3434258179    -1.6890483002
    3      H       7.5010435316     4.7937934514    -1.5191272392
    4      H       8.3729059303     5.6645836367    -2.7364630231
    5      H       8.4993236206     6.2282314744    -1.0436344191
    6      O       9.0131040158     3.2744193993    -3.2976860890
    7      C       9.7336207589     3.5393479237    -2.3523975087
    8      C      11.0558731465     2.8375691983    -2.2299669402
    9      H      11.8783655403     3.5299951487    -2.0110569922
   10      H      11.2720921513     2.4095799565    -3.2163206044
   11      C      11.1063953194     1.6330493273    -1.2166291928
   12      H      12.1495344797     1.4103941076    -0.9588417896
   13      H      10.6541051548     2.0624266415    -0.3135490584
   14      C      10.3161903371     0.3549027814    -1.7510433516
   15      H       9.6190814983     0.6106307847    -2.5581514331
   16      H      11.1501381777    -0.2014318931    -2.1974789339
   17      C       9.6839246672    -0.3612111629    -0.5971872334
   18      C      10.7064626556    -1.2292142865     0.1831618166
   19      C      11.4170196945    -0.7649564584     1.2978305403
   20      H      11.2089964836     0.2662829448     1.5694380456
   21      C      12.3492817684    -1.6089940034     1.9949575361
   22      H      12.7949437403    -1.3708294835     2.9554626471
   23      C      12.7071326991    -2.8029121530     1.4069131810
   24      H      13.4728214204    -3.4700597875     1.7906837060
   25      C      12.1351755491    -3.2137560210     0.1725990659
   26      H      12.4094443206    -4.1934247387    -0.2082878524
   27      C      11.2102446336    -2.4084080210    -0.4533213765
   28      H      10.7637979801    -2.7122802575    -1.3959692692
   29      C       5.1796420646    -3.4308384459     0.5784366770
   30      C       5.7100686235    -2.3141566896     2.6656500156
   31      C       2.1410867032     0.5537946136     2.4792837768
   32      C       4.8890302192     0.0240887881    -3.2256080864
   33      C       4.0896625321     3.2853726734     1.2687799387
   34      C       6.1463406318    -2.9619268061     1.5126618930
   35      C       3.8180855892     2.3928790293    -2.3075229091
   36      C       2.2755572233    -1.7912457805     1.8965091812
   37      C       7.4966820494     1.2719669265     1.9960001988
   38      C       5.7669761433     1.0999579152    -2.9299958810
   39      C       8.5405907874     0.2950448691     0.1608217769
   40      C       7.4117215931     2.1628713079     0.9747675593
   41      C       6.1434815626     2.7505663674    -1.4792576529
   42      C       3.3628495705     2.9900220568    -1.0788494895
   43      C       7.5434419080    -1.1709177914     1.9742339171
   44      C       2.0369134492     2.1075284226     0.7217624586
   45      C       8.2765020534    -0.8319039617    -0.8187518413
   46      C       7.3717850289    -0.5139175369    -1.9629811623
   47      C       2.9355070648     2.5752381173     1.6854201548
   48      C       2.1477007649    -1.0871381180    -1.5445653785
   49      C       1.3345665103    -0.1724278790     0.3443329413
   50      C       1.6347807135    -1.4747880928     0.6792930967
   51      C       3.3443824207    -2.6443474212     1.9601431972
   52      C       6.4587183601    -1.5544211684    -2.1814129621
   53      C       8.0680461426     0.0396802916     1.5451235833
   54      C       4.2766759557    -2.1423838832     2.8722355013
   55      C       5.2200795847     2.2333172970    -2.3959643596
   56      C       6.5456878051    -1.2825070673     2.9496828309
   57      C       6.2450497306     3.0292522135     0.9065847783
   58      C       4.1544912235    -2.0629889101    -2.5009425462
   59      C       2.5203666651    -0.7183810434     2.8161143101
   60      C       7.9661163520     1.6328095482    -0.1645545998
   61      C       3.2430027819    -2.9946670464    -0.3902370548
   62      C       5.6360802290     3.3929078167    -0.3285385954
   63      C       6.4831170890     1.1784851082     2.9583671875
   64      C       2.0012850598     1.2610926868    -1.5733495568
   65      C       2.9869478444     1.2913045166    -2.5651847852
   66      C       5.3894619041     2.0613993709     2.9724292415
   67      C       5.2474656729    -1.2820828877    -2.9164502323
   68      C       6.9727190593     0.8272056140    -2.2601158898
   69      C       3.0927188600    -1.1189304644    -2.6004669112
   70      C       7.5666424178    -2.0866850587    -0.2944716717
   71      C       4.6836990327     0.0765656684     3.6808436278
   72      C       7.2596224639     1.8772204472    -1.3445082847
   73      C       5.2723631492     2.9841906298     1.8867966268
   74      C       4.1743862009    -2.9527569620    -1.4101240445
   75      C       2.9829826576     1.6316961829     2.7754145062
   76      C       3.8227078965    -3.3346034388     0.8271664236
   77      C       1.5557942539     0.8679128710     1.2330496619
   78      C       6.0307292967    -0.0390722119     3.5100269174
   79      C       4.2426146431     1.3765242420     3.4124478975
   80      C       7.2853682329    -2.2267411708     1.0762077651
   81      C       6.5877416085    -2.4945069410    -1.1747974737
   82      C       1.5452170808     0.0289658181    -1.0314460802
   83      C       3.8111567476    -0.9635343801     3.4162857893
   84      C       4.2657541811     3.4935559999    -0.1024623571
   85      C       3.5147618214     0.0753660476    -3.0685316290
   86      C       2.2774014629     2.2630066424    -0.6637374651
   87      C       5.3805257074    -3.1593917601    -0.7905463246
   88      C       2.1609895242    -2.0417599664    -0.5238349854
   89      O     -12.3078456012     2.4936718560    -0.8807527630
   90      C     -12.8289593549     1.1955453389    -1.2621580612
   91      H     -13.3434182212     0.6886767874    -0.4368257970
   92      H     -12.0512802247     0.5394608817    -1.6733968671
   93      H     -13.6573657895     1.2783482028    -1.9763369357
   94      O     -11.2193152787     2.6191713835    -2.8625039092
   95      C     -11.4350806346     3.0827135246    -1.7563972261
   96      C     -10.8193864028     4.3610177728    -1.2748789377
   97      H     -11.5181558179     4.7899299949    -0.5465722645
   98      H     -10.8214470474     5.0539273630    -2.1245695011
   99      C      -9.3610650750     4.2949969378    -0.7645396836
  100      H      -8.6501886279     4.1105430253    -1.5784533346
  101      H      -9.0394304593     5.2401759127    -0.3096013588
  102      C      -9.2711668890     3.3187158101     0.4062102794
  103      H      -9.8831901460     3.7578687901     1.2046826916
  104      H      -9.7840284709     2.3956789804     0.1080073136
  105      C      -7.8049005981     2.9203931898     0.8428786368
  106      C      -7.1913610143     3.9675038492     1.6140896625
  107      C      -7.1130979195     3.8415649034     3.0322417241
  108      H      -7.4899879663     2.9907156227     3.5923456379
  109      C      -6.3684094848     4.7098421886     3.8176866242
  110      H      -6.2236874584     4.5530233970     4.8821500579
  111      C      -5.8251033240     5.8453122444     3.2244512847
  112      H      -5.1787337078     6.5611441596     3.7234021725
  113      C      -5.9057405224     5.9832253087     1.8604470219
  114      H      -5.4684417635     6.8376654555     1.3513224489
  115      C      -6.6014916123     5.1026636096     1.0656624504
  116      H      -6.6446617823     5.2498608117    -0.0094144399
  117      C      -2.7295061548     1.0054959684    -0.3571938096
  118      C      -3.0486332980     0.3660971549     1.9011730835
  119      C      -3.4393589180    -4.0535427376     1.1509979637
  120      C      -6.5245602365    -0.6852823843    -3.3217145261
  121      C      -6.9664501936    -4.0273459920     1.2613558539
  122      C      -3.2446706358     1.3298494620     0.8946409913
  123      C      -7.3978387647    -3.1332363144    -2.2230948611
  124      C      -1.9613677824    -2.4662552909     0.1394062653
  125      C      -6.9273207558    -0.2566376635     2.7557284944
  126      C      -7.6059331641    -0.7559571372    -2.4535171576
  127      C      -7.4245010787     1.4668008544     1.1740757508
  128      C      -7.9692478811    -0.7426134152     1.9231274889
  129      C      -8.6535860251    -1.7086023773    -0.6631608999
  130      C      -7.2156530007    -4.0273714114    -1.2027577718
  131      C      -5.0897790418     1.2806033477     2.2523176062
  132      C      -5.1411217215    -4.8206977502    -0.1822077771
  133      C      -6.8105380000     2.0640095298    -0.0571919439
  134      C      -7.0441048314     1.3423697102    -1.3828508390
  135      C      -5.6074018555    -4.5228087310     1.0967554628
  136      C      -3.6155017621    -2.4489485688    -3.0246802150
  137      C      -3.2770232780    -3.8835041558    -1.3125308103
  138      C      -2.3578320012    -2.8751730574    -1.1438927581
  139      C      -1.7079249816    -1.0682969771     0.4081222857
  140      C      -5.8741228800     1.3322121160    -2.1302443476
  141      C      -6.4639609392     1.0144726161     2.2864137413
  142      C      -2.3474791910    -0.7895919757     1.6416975511
  143      C      -8.1024966718    -1.9894767609    -1.9213179271
  144      C      -4.1447270672     0.3462886968     2.7653808560
  145      C      -8.0440134641    -2.0907212676     1.6196784389
  146      C      -4.4062661438    -0.1972226747    -3.2513522028
  147      C      -2.5138844056    -3.0036602500     1.3158939580
  148      C      -8.2803284879     0.2021129786     0.9616515938
  149      C      -2.4525726454    -0.6484003685    -1.8867403888
  150      C      -8.3698208348    -2.5833219513     0.3542338041
  151      C      -5.9336867803    -1.1484641025     3.2823394754
  152      C      -5.3421162735    -4.0065592592    -2.5360758081
  153      C      -6.2668350829    -3.0900138930    -3.0353980642
  154      C      -6.0679170955    -2.5557267774     3.0030493283
  155      C      -5.6473741102     0.3594915838    -3.1460419463
  156      C      -7.8707917029     0.2058309424    -1.4755894280
  157      C      -4.4973954058    -1.5270188336    -3.6264037101
  158      C      -5.2871422263     2.2102533385    -0.0704231603
  159      C      -3.8664817204    -1.9631506711     3.0865588953
  160      C      -8.5471211955    -0.3349238293    -0.3581961694
  161      C      -7.1298876214    -2.9964762530     2.2119434556
  162      C      -3.3635951447     0.2114347378    -2.4342534897
  163      C      -4.5741191439    -4.0758113655     1.9555663810
  164      C      -2.0368360938    -0.1858005855    -0.6388082751
  165      C      -3.8166498503    -4.5185473382    -0.1531493722
  166      C      -4.5944053343    -0.7926332784     3.3476206611
  167      C      -4.7499601418    -3.0483429602     2.9095572717
  168      C      -4.5121086498     1.8581799791     1.0510403055
  169      C      -4.7901988332     1.7931784570    -1.3423511485
  170      C      -4.0426478040    -3.6230416415    -2.4621709122
  171      C      -2.7653753756    -1.9613579032     2.2017523609
  172      C      -7.6198949599    -3.7436106887     0.0977845346
  173      C      -5.8652539005    -1.8371614893    -3.6358732165
  174      C      -5.9263688200    -4.5428667134    -1.3563282604
  175      C      -3.5501136163     1.2056965839    -1.4521678310
  176      C      -2.6022016318    -1.9682238952    -2.1097875250
 ----------------------------------------------------------------

    9   -5804.2177510239      8.92E-06 Convergence criterion met
 Total energy in the final basis set = -5804.2177510239

                    Orbital Energies (a.u.)
 --------------------------------------------------------------

 Alpha MOs
 -- Occupied --
-19.199 -19.196 -19.139 -19.133 -10.317 -10.317 -10.244 -10.243
-10.242 -10.242 -10.241 -10.238 -10.237 -10.234 -10.231 -10.230
-10.228 -10.227 -10.223 -10.222 -10.222 -10.221 -10.221 -10.220
-10.220 -10.219 -10.218 -10.218 -10.217 -10.217 -10.217 -10.217
-10.217 -10.216 -10.216 -10.216 -10.216 -10.216 -10.216 -10.216
-10.215 -10.215 -10.215 -10.215 -10.215 -10.215 -10.215 -10.215
-10.214 -10.214 -10.214 -10.214 -10.214 -10.214 -10.214 -10.213
-10.213 -10.213 -10.213 -10.213 -10.213 -10.213 -10.213 -10.213
-10.212 -10.212 -10.212 -10.212 -10.212 -10.212 -10.212 -10.212
-10.212 -10.211 -10.211 -10.211 -10.211 -10.211 -10.211 -10.211
-10.211 -10.210 -10.210 -10.210 -10.210 -10.210 -10.210 -10.210
-10.210 -10.210 -10.210 -10.210 -10.210 -10.209 -10.209 -10.209
-10.209 -10.209 -10.209 -10.209 -10.208 -10.208 -10.208 -10.208
-10.208 -10.208 -10.208 -10.207 -10.207 -10.207 -10.207 -10.207
-10.207 -10.207 -10.207 -10.207 -10.206 -10.206 -10.206 -10.206
-10.205 -10.205 -10.205 -10.205 -10.205 -10.205 -10.205 -10.205
-10.204 -10.204 -10.203 -10.203 -10.203 -10.203 -10.202 -10.202
-10.201 -10.200 -10.200 -10.199 -10.198 -10.198 -10.197 -10.196
-10.195 -10.193 -10.192 -10.190  -1.103  -1.094  -1.020  -1.007
 -0.984  -0.982  -0.966  -0.965  -0.964  -0.962  -0.960  -0.959
 -0.935  -0.931  -0.928  -0.927  -0.926  -0.924  -0.923  -0.921
 -0.920  -0.919  -0.898  -0.894  -0.892  -0.891  -0.888  -0.882
 -0.875  -0.873  -0.853  -0.853  -0.846  -0.841  -0.839  -0.838
 -0.836  -0.835  -0.820  -0.817  -0.809  -0.801  -0.799  -0.796
 -0.796  -0.794  -0.793  -0.792  -0.791  -0.788  -0.786  -0.784
 -0.773  -0.770  -0.767  -0.766  -0.765  -0.764  -0.763  -0.763
 -0.753  -0.749  -0.742  -0.742  -0.730  -0.730  -0.717  -0.716
 -0.715  -0.714  -0.714  -0.712  -0.711  -0.711  -0.707  -0.706
 -0.705  -0.704  -0.703  -0.702  -0.699  -0.699  -0.671  -0.669
 -0.662  -0.658  -0.656  -0.654  -0.650  -0.643  -0.630  -0.630
 -0.627  -0.627  -0.626  -0.626  -0.621  -0.621  -0.617  -0.616
 -0.615  -0.614  -0.613  -0.611  -0.610  -0.609  -0.607  -0.606
 -0.605  -0.604  -0.602  -0.602  -0.569  -0.566  -0.563  -0.562
 -0.561  -0.560  -0.558  -0.558  -0.556  -0.553  -0.553  -0.550
 -0.535  -0.533  -0.531  -0.530  -0.528  -0.526  -0.526  -0.524
 -0.523  -0.522  -0.519  -0.519  -0.518  -0.515  -0.514  -0.513
 -0.506  -0.504  -0.502  -0.501  -0.491  -0.490  -0.487  -0.486
 -0.484  -0.483  -0.482  -0.481  -0.480  -0.479  -0.477  -0.476
 -0.473  -0.472  -0.471  -0.469  -0.466  -0.466  -0.465  -0.464
 -0.463  -0.462  -0.462  -0.461  -0.461  -0.460  -0.459  -0.458
 -0.455  -0.453  -0.452  -0.450  -0.448  -0.447  -0.444  -0.443
 -0.442  -0.441  -0.439  -0.439  -0.437  -0.435  -0.431  -0.431
 -0.430  -0.427  -0.426  -0.425  -0.425  -0.424  -0.424  -0.423
 -0.422  -0.421  -0.420  -0.419  -0.418  -0.418  -0.417  -0.416
 -0.416  -0.415  -0.414  -0.414  -0.413  -0.412  -0.411  -0.411
 -0.411  -0.408  -0.408  -0.406  -0.404  -0.402  -0.399  -0.395
 -0.394  -0.392  -0.391  -0.389  -0.388  -0.385  -0.384  -0.383
 -0.382  -0.375  -0.374  -0.371  -0.369  -0.368  -0.367  -0.365
 -0.364  -0.363  -0.361  -0.359  -0.359  -0.359  -0.358  -0.357
 -0.357  -0.357  -0.355  -0.355  -0.354  -0.353  -0.352  -0.351
 -0.349  -0.349  -0.347  -0.346  -0.346  -0.345  -0.343  -0.342
 -0.342  -0.341  -0.339  -0.338  -0.336  -0.335  -0.335  -0.333
 -0.332  -0.329  -0.329  -0.329  -0.327  -0.326  -0.325  -0.324
 -0.306  -0.301  -0.300  -0.299  -0.287  -0.283  -0.273  -0.271
 -0.269  -0.268  -0.268  -0.266  -0.265  -0.263  -0.263  -0.262
 -0.260  -0.260  -0.259  -0.258  -0.257  -0.255  -0.254  -0.253
 -0.250  -0.247  -0.240  -0.239  -0.221  -0.219  -0.212  -0.210
 -0.207  -0.207  -0.206  -0.202  -0.196  -0.195

          Ground-State Mulliken Net Atomic Charges

     Atom                 Charge (a.u.)
  ----------------------------------------
      1 O                    -0.453625
      2 C                    -0.099839
      3 H                     0.130921
      4 H                     0.122985
      5 H                     0.114078
      6 O                    -0.479614
      7 C                     0.631628
      8 C                    -0.259901
      9 H                     0.119110
     10 H                     0.129894
     11 C                    -0.206588
     12 H                     0.113673
     13 H                     0.112802
     14 C                    -0.207426
     15 H                     0.136995
     16 H                     0.121257
     17 C                     0.029058
     18 C                     0.093207
     19 C                    -0.124828
     20 H                     0.092980
     21 C                    -0.088495
     22 H                     0.097461
     23 C                    -0.080247
     24 H                     0.089693
     25 C                    -0.086562
     26 H                     0.092739
     27 C                    -0.103891
     28 H                     0.090163
     29 C                    -0.006877
     30 C                     0.014827
     31 C                     0.015700
     32 C                     0.009532
     33 C                    -0.010063
     34 C                    -0.015766
     35 C                    -0.022777
     36 C                     0.001959
     37 C                     0.000396
     38 C                    -0.006093
     39 C                    -0.091950
     40 C                     0.010545
     41 C                    -0.018236
     42 C                    -0.011550
     43 C                     0.028464
     44 C                     0.012453
     45 C                    -0.105234
     46 C                     0.021842
     47 C                    -0.013117
     48 C                     0.044683
     49 C                     0.025228
     50 C                    -0.008764
     51 C                     0.018259
     52 C                    -0.008292
     53 C                     0.041237
     54 C                    -0.003178
     55 C                     0.022250
     56 C                    -0.022666
     57 C                     0.002073
     58 C                    -0.023074
     59 C                    -0.015200
     60 C                     0.027347
     61 C                    -0.005762
     62 C                    -0.041185
     63 C                     0.004243
     64 C                    -0.023805
     65 C                     0.006988
     66 C                    -0.017056
     67 C                    -0.003456
     68 C                    -0.010880
     69 C                    -0.007242
     70 C                     0.023530
     71 C                     0.032161
     72 C                     0.040103
     73 C                     0.018402
     74 C                     0.027117
     75 C                    -0.005106
     76 C                    -0.006013
     77 C                    -0.026846
     78 C                    -0.020901
     79 C                    -0.018080
     80 C                    -0.015170
     81 C                     0.027486
     82 C                    -0.009484
     83 C                    -0.007730
     84 C                     0.006674
     85 C                     0.008126
     86 C                     0.028641
     87 C                    -0.012362
     88 C                    -0.036093
     89 O                    -0.467686
     90 C                    -0.088816
     91 H                     0.120284
     92 H                     0.138008
     93 H                     0.124487
     94 O                    -0.466466
     95 C                     0.596409
     96 C                    -0.255030
     97 H                     0.121074
     98 H                     0.136559
     99 C                    -0.184758
    100 H                     0.121651
    101 H                     0.113039
    102 C                    -0.190010
    103 H                     0.119583
    104 H                     0.111165
    105 C                     0.010734
    106 C                     0.095941
    107 C                    -0.119300
    108 H                     0.090335
    109 C                    -0.086130
    110 H                     0.092427
    111 C                    -0.081157
    112 H                     0.087632
    113 C                    -0.084043
    114 H                     0.084686
    115 C                    -0.099877
    116 H                     0.087244
    117 C                     0.005441
    118 C                     0.011809
    119 C                    -0.020762
    120 C                     0.009835
    121 C                    -0.047718
    122 C                    -0.012578
    123 C                     0.008691
    124 C                    -0.014357
    125 C                    -0.018295
    126 C                     0.009105
    127 C                    -0.092384
    128 C                     0.014667
    129 C                    -0.034160
    130 C                    -0.000493
    131 C                    -0.001890
    132 C                     0.026807
    133 C                    -0.092332
    134 C                     0.022167
    135 C                    -0.021197
    136 C                     0.001681
    137 C                    -0.013168
    138 C                     0.028051
    139 C                    -0.061877
    140 C                     0.001988
    141 C                     0.018362
    142 C                     0.024984
    143 C                    -0.005522
    144 C                     0.001788
    145 C                     0.016737
    146 C                     0.037190
    147 C                     0.005351
    148 C                     0.022059
    149 C                     0.014511
    150 C                    -0.010405
    151 C                    -0.010554
    152 C                    -0.027039
    153 C                     0.019437
    154 C                     0.009036
    155 C                    -0.012957
    156 C                     0.009241
    157 C                    -0.032236
    158 C                     0.017499
    159 C                    -0.020971
    160 C                    -0.006110
    161 C                    -0.000331
    162 C                    -0.000312
    163 C                     0.014655
    164 C                     0.004339
    165 C                    -0.011430
    166 C                     0.005251
    167 C                    -0.006354
    168 C                     0.019966
    169 C                     0.002484
    170 C                     0.039621
    171 C                     0.025445
    172 C                     0.050245
    173 C                    -0.010673
    174 C                    -0.020962
    175 C                    -0.009702
    176 C                    -0.007545
  ----------------------------------------
  Sum of atomic charges =     0.000000

                    Cartesian Multipole Moments
 -----------------------------------------------------------------
    Charge (ESU x 10^10)
                 0.0000
    Dipole Moment (Debye)
         X       1.8271      Y       1.9655      Z       2.5653
       Tot       3.7124
    Quadrupole Moments (Debye-Ang)
        XX    -725.6254     XY     -18.6540     YY    -788.8093
        XZ     -10.8753     YZ       9.6759     ZZ    -820.9842

 Total job time:  852.95s(wall), 7187.68s(cpu)
        *  Thank you very much for using Q-Chem.  Have a nice day.  *
