 Q-Chem 4.4, Q-Chem, Inc., Pleasanton, CA (2016)
 Q-Chem 4.4.2 for Intel X86 Linux

User input:
--------------------------------------------------------------
$comment
SP
$end

$rem
MEM_STATIC 5000
MEM_TOTAL 20000
JOBTYPE SP
EXCHANGE B3LYP
BASIS 6-31g(d,p)
$end

$molecule
0 1
O         -18.576000      0.302000     10.507000
C         -19.876000      0.377000      9.910000
H         -20.669000      0.361000     10.668000
H         -20.046000     -0.537000      9.330000
H         -19.892000      1.189000      9.172000
O         -17.598000     -0.089000      8.428000
C         -17.516000      0.022000      9.611000
C         -16.145000      0.024000     10.337000
H         -16.083000      0.917000     10.971000
H         -15.372000      0.186000      9.577000
C         -15.864000     -1.274000     11.092000
H         -16.623000     -1.531000     11.841000
H         -15.806000     -2.097000     10.370000
C         -14.520000     -1.109000     11.863000
H         -13.772000     -0.788000     11.126000
H         -14.644000     -0.273000     12.562000
C         -13.988000     -2.308000     12.694000
C         -14.787000     -2.514000     13.897000
C         -15.913000     -3.372000     13.919000
H         -16.128000     -3.952000     13.026000
C         -16.756000     -3.341000     15.012000
H         -17.594000     -4.032000     14.986000
C         -16.445000     -2.567000     16.163000
H         -17.047000     -2.688000     17.059000
C         -15.358000     -1.721000     16.195000
H         -15.013000     -1.167000     17.062000
C         -14.522000     -1.728000     15.056000
H         -13.626000     -1.116000     15.074000
C          -9.389000     -4.506000     14.684000
C         -10.644000     -6.338000     13.881000
C          -8.076000     -7.414000     10.329000
C          -8.930000     -1.127000     10.945000
C         -10.208000     -5.895000      8.087000
C         -10.638000     -5.123000     14.541000
C          -8.805000     -2.564000      8.451000
C          -7.478000     -6.745000     12.531000
C         -13.105000     -5.468000     10.920000
C         -10.044000     -1.254000     10.122000
C         -13.216000     -3.313000     11.931000
C         -12.957000     -4.564000      9.855000
C         -11.189000     -2.639000      8.768000
C          -8.843000     -3.885000      7.892000
C         -12.537000     -5.207000     13.320000
C          -7.818000     -5.976000      8.611000
C         -12.463000     -2.369000     12.805000
C         -11.446000     -1.480000     12.134000
C          -9.105000     -6.611000      8.531000
C          -6.502000     -3.583000     11.537000
C          -6.513000     -5.633000     10.605000
C          -6.663000     -5.720000     12.013000
C          -8.248000     -6.394000     13.627000
C         -10.321000     -1.426000     12.935000
C         -13.244000     -4.773000     12.204000
C          -9.475000     -6.989000     13.447000
C          -9.987000     -1.962000      8.938000
C         -11.843000     -6.454000     13.161000
C         -12.143000     -4.871000      8.711000
C          -7.998000     -1.974000     12.783000
C          -8.209000     -7.569000     11.710000
C         -13.009000     -3.251000     10.425000
C          -7.421000     -4.149000     13.714000
C         -11.284000     -3.896000      8.193000
C         -12.450000     -6.724000     10.828000
C          -6.996000     -3.744000      9.188000
C          -7.730000     -2.511000      9.294000
C         -11.662000     -7.027000      9.702000
C          -9.070000     -1.228000     12.340000
C         -11.276000     -1.484000     10.751000
C          -7.197000     -2.345000     11.631000
C         -11.732000     -3.011000     13.889000
C         -10.667000     -7.860000     11.538000
C         -12.017000     -2.341000      9.924000
C         -11.488000     -6.139000      8.640000
C          -8.114000     -2.933000     13.815000
C          -9.302000     -7.477000      9.618000
C          -8.226000     -5.111000     14.248000
C          -7.219000     -6.508000      9.785000
C         -11.805000     -7.238000     11.960000
C         -10.582000     -7.786000     10.165000
C         -11.813000     -4.379000     14.178000
C         -10.451000     -2.402000     13.943000
C          -6.356000     -4.261000     10.320000
C          -9.496000     -7.779000     12.297000
C         -10.075000     -4.535000      7.767000
C          -7.756000     -1.756000     10.529000
C          -7.700000     -4.601000      8.345000
C          -9.344000     -3.138000     14.454000
C          -6.649000     -4.455000     12.571000
O         -11.184000      8.192000     10.099000
C         -10.990000      9.414000      9.371000
H         -11.931000      9.670000      8.868000
H         -10.178000      9.334000      8.638000
H         -10.828000     10.254000     10.057000
O          -8.993000      8.186000     10.729000
C         -10.129000      7.743000     10.786000
C         -10.385000      6.468000     11.616000
H          -9.762000      6.726000     12.481000
H         -10.047000      5.635000     10.988000
C         -11.821000      6.309000     12.238000
H         -11.836000      5.561000     13.041000
H         -12.098000      7.279000     12.670000
C         -12.939000      5.933000     11.224000
H         -13.913000      5.991000     11.725000
H         -13.048000      6.711000     10.458000
C         -12.786000      4.578000     10.591000
C         -12.807000      3.555000     11.649000
C         -14.084000      3.268000     12.254000
H         -15.006000      3.706000     11.885000
C         -14.222000      2.243000     13.178000
H         -15.179000      1.860000     13.520000
C         -13.056000      1.501000     13.530000
H         -13.128000      0.596000     14.126000
C         -11.790000      1.894000     13.118000
H         -10.975000      1.247000     13.428000
C         -11.630000      2.929000     12.168000
H         -10.626000      3.196000     11.852000
C          -9.782000      1.422000      7.404000
C         -12.013000      0.382000      7.258000
C         -12.897000      1.612000      2.988000
C          -9.933000      6.261000      6.135000
C         -14.806000      4.385000      3.946000
C         -11.007000      1.042000      7.960000
C         -11.988000      6.654000      4.241000
C         -10.825000      0.741000      3.960000
C         -14.848000      3.149000      7.774000
C         -11.179000      6.758000      6.545000
C         -13.293000      4.279000      9.229000
C         -14.903000      4.521000      7.382000
C         -13.421000      6.666000      6.237000
C         -13.015000      5.962000      3.608000
C         -13.005000      1.864000      8.603000
C         -13.019000      3.804000      2.454000
C         -11.832000      4.412000      9.481000
C         -11.108000      5.433000      8.606000
C         -14.213000      3.379000      3.101000
C          -9.209000      3.828000      3.853000
C         -10.833000      2.755000      2.558000
C         -10.149000      1.830000      3.424000
C         -10.556000      0.359000      5.301000
C          -9.905000      4.896000      8.162000
C         -13.865000      2.999000      8.794000
C         -11.739000     -0.022000      5.926000
C         -12.227000      6.940000      5.599000
C         -13.272000      0.862000      7.660000
C         -15.241000      4.971000      6.113000
C          -8.709000      4.366000      6.096000
C         -12.228000      0.697000      3.794000
C         -13.932000      5.171000      8.186000
C          -8.844000      2.106000      5.476000
C         -14.459000      6.009000      5.500000
C         -15.028000      2.196000      6.775000
C         -11.026000      5.173000      2.878000
C         -10.750000      6.131000      3.840000
C         -15.384000      2.569000      5.452000
C          -9.382000      5.322000      6.931000
C         -11.796000      6.381000      7.761000
C          -8.944000      4.825000      4.816000
C         -11.012000      3.163000      9.151000
C         -14.065000      0.659000      5.412000
C         -13.182000      6.233000      7.563000
C         -15.395000      3.961000      5.129000
C          -8.575000      3.031000      6.473000
C         -14.129000      2.072000      3.418000
C          -9.599000      1.069000      6.060000
C         -12.198000      2.659000      2.328000
C         -14.279000      1.055000      6.703000
C         -14.665000      1.641000      4.606000
C         -11.637000      1.913000      8.811000
C          -9.831000      3.539000      8.532000
C         -10.219000      3.990000      2.846000
C         -12.807000      0.182000      5.003000
C         -14.237000      5.578000      4.198000
C          -9.703000      5.993000      4.777000
C         -12.389000      5.073000      2.696000
C          -9.160000      2.616000      7.696000
C          -9.165000      2.530000      4.183000
$end

--------------------------------------------------------------

             Standard Nuclear Orientation (Angstroms)
    I     Atom           X                Y                Z
 ----------------------------------------------------------------
    1      O      -0.6926922275     5.7600015488     4.0550625048
    2      C      -1.2624167028     6.2930736510     5.2564292915
    3      H      -0.9940573002     7.3476443948     5.3961890039
    4      H      -0.8035335149     5.7875280593     6.1134858092
    5      H      -2.3258029100     6.0264706786     5.3051799799
    6      O      -1.2489061617     3.5917410550     4.7038139903
    7      C      -0.7363310848     4.3493592094     3.9410456621
    8      C      -0.1560398942     3.8724410927     2.5836465889
    9      H      -0.5870919206     4.4839745791     1.7814808045
   10      H      -0.5526995155     2.8687537530     2.3922154813
   11      C       1.3710987886     3.8376264510     2.5630217463
   12      H       1.8452219010     4.7993413519     2.7941985698
   13      H       1.7174955843     3.1019392615     3.2983792234
   14      C       1.8311232673     3.4521677057     1.1250366856
   15      H       1.3068695874     2.5228761676     0.8656348422
   16      H       1.4516567265     4.2221805280     0.4424252310
   17      C       3.3520715998     3.3180406267     0.8423494089
   18      C       4.0044250737     4.6227385417     0.8267194451
   19      C       4.5662766142     5.2010731683     1.9904960156
   20      H       4.5769236602     4.6064905511     2.8995791536
   21      C       4.9549357437     6.5255183551     1.9581227541
   22      H       5.3964006921     6.9140507293     2.8716610913
   23      C       4.9241182373     7.2750806432     0.7507269376
   24      H       5.3813288787     8.2601443911     0.7290741749
   25      C       4.3933926968     6.7567849349    -0.4103109426
   26      H       4.4124197096     7.2362803769    -1.3836310820
   27      C       3.9601246003     5.4129595284    -0.3585612222
   28      H       3.5910069976     4.9578325461    -1.2719590683
   29      C       6.9494094675     0.8453222862    -2.4571852968
   30      C       7.9046539513     0.7109301656    -0.3018419984
   31      C       7.4435085370    -3.7283554648     0.3683758756
   32      C       2.2723439942    -1.0758126330    -2.2504434761
   33      C       4.6882792920    -3.3278289336     2.4000351250
   34      C       7.2040201681     1.4632147269    -1.2265263989
   35      C       2.2617215556    -3.1963973253    -0.3001517731
   36      C       8.0751504661    -2.5089188125    -1.5727505304
   37      C       5.2880056281     0.6942266051     2.6534607854
   38      C       1.7903940393    -0.8759716449    -0.9611639019
   39      C       3.9458831702     2.0076347394     1.1864456591
   40      C       4.0082491464     0.1196358311     2.7270392484
   41      C       2.1064341123    -1.3364612670     1.2184310101
   42      C       3.0981035204    -3.8869186516     0.6393222856
   43      C       6.3611607457     1.9594331624     0.8100033107
   44      C       5.3993739014    -4.6740419550     0.4829300268
   45      C       3.7015882125     2.3082248376    -0.2529940119
   46      C       2.7702544025     1.3831217671    -0.9957272369
   47      C       5.6948887184    -3.9924014664     1.7133897934
   48      C       5.0427354507    -3.0250309648    -3.1465813411
   49      C       6.3158994445    -4.1730640414    -1.6863353002
   50      C       7.0729641835    -3.1553635849    -2.3216869838
   51      C       8.2048456037    -1.1498352501    -1.8038090551
   52      C       3.3049657833     1.1418580559    -2.2471334702
   53      C       5.3197356395     1.8265059015     1.7218284538
   54      C       8.4256667821    -0.5661688283    -0.5780335800
   55      C       1.8069132470    -1.8878090596    -0.0218656733
   56      C       7.4515796381     1.0415876399     0.9845662966
   57      C       3.8240284624    -1.2906256441     2.9339361089
   58      C       4.0630648917    -0.7288004214    -3.5299661184
   59      C       8.2475254667    -2.7582914725    -0.2327960030
   60      C       3.1699133433     0.8783774881     1.8477911724
   61      C       6.4711134221    -1.0834286733    -3.4534411017
   62      C       2.8713303812    -1.9809591726     2.1772089550
   63      C       6.4135267912    -0.1541577812     2.8221944349
   64      C       3.9219088136    -4.2819865801    -1.4285684684
   65      C       2.8104374337    -3.3750151800    -1.5395425698
   66      C       6.2308178240    -1.5332116990     3.0354002629
   67      C       3.0363706320    -0.0774139413    -2.8791638821
   68      C       2.1062784409     0.3442133785    -0.3465660224
   69      C       3.9271756064    -2.1520261565    -3.2803491938
   70      C       4.9075880271     2.3486526519    -1.0687826113
   71      C       8.0186267980    -1.2279682641     1.7067259167
   72      C       2.3021099393     0.0892183165     1.0187495245
   73      C       4.9702947480    -2.1281984741     3.0965256441
   74      C       5.3780887709    -0.2129310740    -3.5824257572
   75      C       6.9456109706    -3.3589456688     1.6443854430
   76      C       7.4293590014    -0.4168660510    -2.7491083109
   77      C       6.5361006724    -4.4526215632    -0.3410397895
   78      C       7.5211617888     0.0118662255     1.9812272886
   79      C       7.2798744411    -2.1803132458     2.3738945544
   80      C       6.2028507477     2.2393355555    -0.5473899981
   81      C       4.6201720065     1.6471337447    -2.2687914671
   82      C       5.0313010811    -4.1132474068    -2.2646838241
   83      C       8.5165949708    -1.5222728943     0.4342105009
   84      C       3.3925034257    -3.2776050051     1.8632563427
   85      C       2.7844835637    -2.3386951332    -2.5501330691
   86      C       4.1155771307    -4.5735142550    -0.0801552537
   87      C       5.6780570471     1.0190406764    -2.9861786277
   88      C       6.2798816876    -2.4633613365    -3.2183129052
   89      O      -6.4326103332     2.3790133787    -4.4703399568
   90      C      -7.8062265699     2.0793453484    -4.7606527296
   91      H      -8.4256841317     2.4709179829    -3.9439709059
   92      H      -7.9774050399     1.0029581445    -4.8836223140
   93      H      -8.1502489893     2.6415495677    -5.6370173745
   94      O      -5.7636292567     1.2621673333    -6.3418463635
   95      C      -5.5386082624     1.9793693948    -5.3800871654
   96      C      -4.0785594832     2.3763380595    -5.0788655833
   97      H      -3.7647870318     2.5824181590    -6.1093974078
   98      H      -3.6320480200     1.5044682629    -4.5859278885
   99      C      -3.8589136952     3.7532675025    -4.3507982533
  100      H      -2.8222218349     4.1015077647    -4.4431925525
  101      H      -4.5106231468     4.4880684742    -4.8402830056
  102      C      -4.2257015329     3.7638424720    -2.8392259420
  103      H      -4.1779968674     4.7937439546    -2.4649690771
  104      H      -5.2889936061     3.5348441561    -2.6946896547
  105      C      -3.3672658597     2.8815456031    -1.9762291690
  106      C      -1.9697073263     3.3314329773    -2.0799860794
  107      C      -1.6245520959     4.5522575997    -1.3947283847
  108      H      -2.3284487553     5.0671899531    -0.7486144904
  109      C      -0.3111300352     4.9945008877    -1.3419234162
  110      H       0.0343646680     5.7914455166    -0.6899919256
  111      C       0.6813886580     4.2178957918    -2.0096173346
  112      H       1.7385870434     4.4274213156    -1.8759923785
  113      C       0.3412685935     3.1607411927    -2.8424987760
  114      H       1.1762525109     2.6268175945    -3.2859640497
  115      C      -0.9902184430     2.6884395479    -2.9007948130
  116      H      -1.2165850024     1.8455066763    -3.5468469431
  117      C      -1.8076609645    -2.1648403593    -0.8613559524
  118      C      -1.3507251021    -0.9721847687     1.2479233699
  119      C      -4.6804463590    -2.8683569722     3.6655137665
  120      C      -6.5826482413    -1.6357851806    -2.2644525721
  121      C      -6.8598140340    -0.1697037022     3.1973246315
  122      C      -1.3997923689    -1.0373139834    -0.1426846225
  123      C      -8.1936665601    -1.3526510755     0.0353659109
  124      C      -3.1232520630    -3.9010606422     2.0827067491
  125      C      -3.8938034402     2.0794976879     1.6719006694
  126      C      -6.9970013150    -0.3610312180    -1.8510050360
  127      C      -3.8773019795     2.2533260358    -0.7325663001
  128      C      -5.2657539949     2.2166383043     1.3003941057
  129      C      -7.4290949438     0.9798030955    -0.0774914500
  130      C      -8.0860836920    -1.2353526293     1.4170131166
  131      C      -2.0927663305     1.0037496323     0.5168480946
  132      C      -6.8314487826    -2.5640462019     3.0446373468
  133      C      -3.6320792296     1.4327666571    -1.9500481722
  134      C      -4.8245358311     0.6117938467    -2.4361478516
  135      C      -6.3347178812    -1.4095397154     3.7119027993
  136      C      -5.5450493754    -4.2955294698    -0.3935335707
  137      C      -5.5406269761    -4.2998331153     1.9443483598
  138      C      -4.2109367709    -4.4454054930     1.4112727170
  139      C      -2.0825573189    -3.2984082005     1.3275044688
  140      C      -4.4000679310    -0.6659153261    -2.7825584053
  141      C      -3.0982360395     2.0297538367     0.4913130783
  142      C      -1.6325336400    -2.1547033773     1.9791891822
  143      C      -7.7929332592    -0.2082433738    -0.6807519801
  144      C      -1.7567042683     0.3019057018     1.6826179636
  145      C      -6.3390577022     1.7279231989     2.0327066740
  146      C      -4.7969990847    -3.0145316597    -2.2292782080
  147      C      -3.3917608289    -3.0406745647     3.1715317306
  148      C      -5.2606622486     2.2411618794    -0.1177489295
  149      C      -3.2083312073    -3.9234281299    -0.7594936721
  150      C      -7.4052267040     1.0448658962     1.3534030741
  151      C      -3.6137125919     1.2923665528     2.7857155969
  152      C      -7.4662717771    -3.3192808360     0.7968369969
  153      C      -7.7539599569    -2.6226296982    -0.3656158854
  154      C      -4.6515206868     0.7602232561     3.5956365005
  155      C      -5.2972991751    -1.7384203129    -2.6597775113
  156      C      -6.1638710589     0.7801381844    -1.9224219214
  157      C      -5.8671367717    -3.5803062143    -1.5666995454
  158      C      -2.6058230239     0.3125789941    -1.7676233932
  159      C      -2.8385502415    -0.6896195059     3.5720753070
  160      C      -6.3573321842     1.5801439859    -0.7802014915
  161      C      -5.9988522220     0.9176382788     3.1461565290
  162      C      -3.4515026023    -3.2072596208    -1.9213737603
  163      C      -5.0510814002    -1.5997997056     4.0750453620
  164      C      -2.1532887114    -3.2782781404    -0.0833895211
  165      C      -5.7910307589    -3.5221797674     3.0659071929
  166      C      -2.5610062924     0.4215615256     2.8253899171
  167      C      -4.1732501778    -0.5480712191     3.9874066961
  168      C      -1.8129743991     0.1970787564    -0.5731462049
  169      C      -3.0489008435    -0.8270479561    -2.4189531560
  170      C      -6.3485752639    -4.2151061961     0.7931724769
  171      C      -2.4387945984    -1.9668754825     3.1405818586
  172      C      -7.6572685751    -0.0883840801     2.1165992391
  173      C      -7.0001121859    -2.7691813706    -1.5502922739
  174      C      -7.6888588736    -2.5121837985     1.8922558010
  175      C      -2.5774753538    -2.0937868544    -2.0015845284
  176      C      -4.2688832454    -4.4467943559    -0.0138508837
 ----------------------------------------------------------------

    9   -5804.2717993907      7.74E-06 Convergence criterion met
 Total energy in the final basis set = -5804.2717993907

                    Orbital Energies (a.u.)
 --------------------------------------------------------------

 Alpha MOs
 -- Occupied --
-19.205 -19.188 -19.146 -19.133 -10.319 -10.317 -10.248 -10.240
-10.240 -10.240 -10.238 -10.238 -10.235 -10.233 -10.232 -10.230
-10.229 -10.229 -10.228 -10.228 -10.228 -10.227 -10.227 -10.227
-10.226 -10.225 -10.223 -10.223 -10.222 -10.222 -10.222 -10.221
-10.221 -10.221 -10.221 -10.220 -10.220 -10.220 -10.219 -10.219
-10.219 -10.219 -10.219 -10.219 -10.218 -10.218 -10.218 -10.217
-10.217 -10.217 -10.217 -10.217 -10.217 -10.216 -10.216 -10.216
-10.216 -10.216 -10.216 -10.216 -10.216 -10.215 -10.215 -10.215
-10.215 -10.215 -10.215 -10.215 -10.215 -10.214 -10.214 -10.214
-10.214 -10.214 -10.214 -10.214 -10.214 -10.214 -10.214 -10.214
-10.214 -10.214 -10.213 -10.213 -10.213 -10.213 -10.213 -10.213
-10.213 -10.213 -10.213 -10.213 -10.213 -10.212 -10.212 -10.212
-10.212 -10.212 -10.212 -10.211 -10.211 -10.211 -10.211 -10.211
-10.211 -10.211 -10.211 -10.211 -10.211 -10.210 -10.210 -10.209
-10.209 -10.209 -10.209 -10.209 -10.209 -10.209 -10.209 -10.208
-10.208 -10.208 -10.208 -10.208 -10.208 -10.208 -10.208 -10.208
-10.207 -10.207 -10.207 -10.206 -10.206 -10.205 -10.205 -10.204
-10.204 -10.204 -10.203 -10.203 -10.202 -10.202 -10.201 -10.201
-10.200 -10.197 -10.197 -10.196  -1.108  -1.089  -1.021  -1.014
 -0.985  -0.984  -0.969  -0.967  -0.965  -0.964  -0.962  -0.962
 -0.940  -0.939  -0.929  -0.928  -0.928  -0.926  -0.923  -0.922
 -0.921  -0.921  -0.899  -0.898  -0.894  -0.893  -0.888  -0.886
 -0.878  -0.875  -0.857  -0.856  -0.844  -0.840  -0.838  -0.838
 -0.837  -0.835  -0.826  -0.823  -0.805  -0.804  -0.799  -0.797
 -0.796  -0.795  -0.794  -0.793  -0.792  -0.792  -0.786  -0.785
 -0.774  -0.771  -0.769  -0.768  -0.768  -0.767  -0.766  -0.764
 -0.757  -0.757  -0.742  -0.739  -0.738  -0.730  -0.719  -0.717
 -0.716  -0.714  -0.713  -0.712  -0.712  -0.711  -0.711  -0.710
 -0.708  -0.707  -0.707  -0.705  -0.699  -0.696  -0.676  -0.673
 -0.661  -0.659  -0.658  -0.656  -0.652  -0.648  -0.636  -0.634
 -0.631  -0.629  -0.629  -0.627  -0.623  -0.621  -0.619  -0.618
 -0.616  -0.615  -0.614  -0.613  -0.612  -0.611  -0.611  -0.608
 -0.608  -0.606  -0.604  -0.602  -0.572  -0.568  -0.566  -0.565
 -0.563  -0.562  -0.561  -0.559  -0.558  -0.556  -0.555  -0.551
 -0.541  -0.540  -0.538  -0.537  -0.529  -0.527  -0.527  -0.525
 -0.523  -0.522  -0.521  -0.518  -0.517  -0.515  -0.514  -0.513
 -0.511  -0.508  -0.502  -0.497  -0.497  -0.494  -0.490  -0.487
 -0.485  -0.484  -0.483  -0.483  -0.481  -0.481  -0.476  -0.476
 -0.475  -0.473  -0.472  -0.472  -0.469  -0.468  -0.467  -0.466
 -0.465  -0.465  -0.464  -0.464  -0.462  -0.461  -0.460  -0.460
 -0.459  -0.457  -0.455  -0.454  -0.453  -0.449  -0.446  -0.444
 -0.444  -0.443  -0.441  -0.439  -0.439  -0.437  -0.437  -0.435
 -0.434  -0.433  -0.432  -0.431  -0.430  -0.428  -0.426  -0.425
 -0.424  -0.424  -0.423  -0.422  -0.421  -0.421  -0.420  -0.419
 -0.419  -0.418  -0.416  -0.416  -0.414  -0.414  -0.413  -0.412
 -0.412  -0.411  -0.410  -0.409  -0.403  -0.402  -0.401  -0.395
 -0.392  -0.392  -0.390  -0.388  -0.388  -0.387  -0.387  -0.384
 -0.383  -0.378  -0.376  -0.374  -0.373  -0.372  -0.369  -0.367
 -0.367  -0.366  -0.364  -0.363  -0.362  -0.361  -0.359  -0.358
 -0.358  -0.357  -0.356  -0.356  -0.355  -0.355  -0.354  -0.354
 -0.351  -0.351  -0.350  -0.349  -0.348  -0.347  -0.346  -0.345
 -0.345  -0.344  -0.343  -0.341  -0.339  -0.339  -0.336  -0.334
 -0.332  -0.332  -0.331  -0.330  -0.329  -0.327  -0.326  -0.325
 -0.315  -0.308  -0.306  -0.298  -0.292  -0.290  -0.274  -0.272
 -0.271  -0.270  -0.268  -0.268  -0.267  -0.265  -0.265  -0.264
 -0.264  -0.263  -0.261  -0.260  -0.259  -0.257  -0.255  -0.254
 -0.251  -0.249  -0.248  -0.243  -0.227  -0.225  -0.216  -0.211
 -0.210  -0.207  -0.205  -0.200  -0.200  -0.198

          Ground-State Mulliken Net Atomic Charges

     Atom                 Charge (a.u.)
  ----------------------------------------
      1 O                    -0.481961
      2 C                    -0.084316
      3 H                     0.121503
      4 H                     0.121480
      5 H                     0.126607
      6 O                    -0.435835
      7 C                     0.578276
      8 C                    -0.248410
      9 H                     0.120116
     10 H                     0.137040
     11 C                    -0.195139
     12 H                     0.117589
     13 H                     0.111654
     14 C                    -0.166035
     15 H                     0.108741
     16 H                     0.102445
     17 C                    -0.002268
     18 C                     0.103329
     19 C                    -0.103611
     20 H                     0.096459
     21 C                    -0.091960
     22 H                     0.092647
     23 C                    -0.090606
     24 H                     0.090667
     25 C                    -0.078894
     26 H                     0.099277
     27 C                    -0.121501
     28 H                     0.086350
     29 C                    -0.001583
     30 C                     0.011448
     31 C                     0.005751
     32 C                    -0.026832
     33 C                    -0.005092
     34 C                    -0.024863
     35 C                    -0.018790
     36 C                    -0.003310
     37 C                     0.001877
     38 C                     0.005567
     39 C                    -0.091847
     40 C                     0.010714
     41 C                     0.005345
     42 C                    -0.014599
     43 C                     0.012540
     44 C                    -0.026329
     45 C                    -0.105518
     46 C                     0.053281
     47 C                    -0.008602
     48 C                     0.014344
     49 C                     0.005917
     50 C                    -0.013903
     51 C                    -0.010008
     52 C                    -0.014138
     53 C                     0.016576
     54 C                     0.017881
     55 C                     0.023192
     56 C                    -0.015100
     57 C                    -0.003134
     58 C                     0.001291
     59 C                    -0.015942
     60 C                     0.010674
     61 C                     0.005288
     62 C                    -0.012287
     63 C                    -0.016768
     64 C                     0.000025
     65 C                     0.009774
     66 C                     0.004889
     67 C                     0.002259
     68 C                     0.017729
     69 C                    -0.006937
     70 C                     0.054131
     71 C                     0.019207
     72 C                    -0.016622
     73 C                    -0.003548
     74 C                    -0.021850
     75 C                     0.018348
     76 C                     0.015863
     77 C                     0.012340
     78 C                    -0.000043
     79 C                    -0.014969
     80 C                     0.000402
     81 C                     0.004884
     82 C                    -0.029204
     83 C                    -0.009497
     84 C                     0.008558
     85 C                    -0.000818
     86 C                     0.022125
     87 C                    -0.012764
     88 C                     0.024946
     89 O                    -0.438920
     90 C                    -0.095874
     91 H                     0.121816
     92 H                     0.141716
     93 H                     0.127011
     94 O                    -0.476767
     95 C                     0.593839
     96 C                    -0.259105
     97 H                     0.139456
     98 H                     0.139158
     99 C                    -0.193768
    100 H                     0.116204
    101 H                     0.102541
    102 C                    -0.187752
    103 H                     0.100110
    104 H                     0.120697
    105 C                     0.038010
    106 C                     0.069821
    107 C                    -0.104151
    108 H                     0.096060
    109 C                    -0.099771
    110 H                     0.102195
    111 C                    -0.069657
    112 H                     0.077161
    113 C                    -0.094429
    114 H                     0.093128
    115 C                    -0.111886
    116 H                     0.103382
    117 C                     0.018900
    118 C                     0.005907
    119 C                    -0.008348
    120 C                     0.000219
    121 C                     0.011609
    122 C                    -0.008580
    123 C                    -0.015036
    124 C                    -0.022834
    125 C                    -0.009916
    126 C                    -0.028780
    127 C                    -0.082028
    128 C                     0.031381
    129 C                    -0.008387
    130 C                    -0.016754
    131 C                     0.004252
    132 C                    -0.010106
    133 C                    -0.094180
    134 C                     0.008292
    135 C                    -0.003969
    136 C                     0.003419
    137 C                     0.012339
    138 C                    -0.010745
    139 C                     0.007616
    140 C                     0.019385
    141 C                     0.017141
    142 C                    -0.018822
    143 C                     0.007650
    144 C                    -0.020982
    145 C                    -0.025261
    146 C                     0.016474
    147 C                     0.017550
    148 C                     0.028336
    149 C                    -0.016591
    150 C                    -0.036833
    151 C                     0.032765
    152 C                     0.004412
    153 C                     0.025984
    154 C                    -0.021484
    155 C                     0.012986
    156 C                     0.005326
    157 C                    -0.011818
    158 C                     0.020767
    159 C                     0.003671
    160 C                    -0.014484
    161 C                    -0.016498
    162 C                    -0.016211
    163 C                     0.031890
    164 C                     0.001265
    165 C                    -0.012104
    166 C                     0.025683
    167 C                    -0.010534
    168 C                     0.004456
    169 C                     0.000652
    170 C                    -0.028063
    171 C                    -0.009499
    172 C                     0.050321
    173 C                    -0.011818
    174 C                    -0.004755
    175 C                    -0.009337
    176 C                     0.037972
  ----------------------------------------
  Sum of atomic charges =     0.000000

                    Cartesian Multipole Moments
 -----------------------------------------------------------------
    Charge (ESU x 10^10)
                 0.0000
    Dipole Moment (Debye)
         X      -0.0556      Y       5.7726      Z       0.0750
       Tot       5.7734
    Quadrupole Moments (Debye-Ang)
        XX    -809.1751     XY      -2.3002     YY    -773.3594
        XZ       3.3968     YZ      -0.0430     ZZ    -824.9842

 Total job time:  937.78s(wall), 7585.09s(cpu)
        *  Thank you very much for using Q-Chem.  Have a nice day.  *
