 Q-Chem 4.4, Q-Chem, Inc., Pleasanton, CA (2016)
 Q-Chem 4.4.2 for Intel X86 Linux

User input:
--------------------------------------------------------------
$comment
SP
$end

$rem
MEM_STATIC 5000
MEM_TOTAL 20000
JOBTYPE SP
EXCHANGE B3LYP
BASIS 6-31g(d,p)
$end

$molecule
0 1
O          31.476000    -11.755000      8.488000
C          32.387000    -11.316000      9.548000
H          32.792000    -12.175000     10.099000
H          32.008000    -10.685000     10.361000
H          33.314000    -10.856000      9.183000
O          30.123000    -12.611000     10.025000
C          30.397000    -12.462000      8.875000
C          29.506000    -13.043000      7.806000
H          29.091000    -13.960000      8.242000
H          30.222000    -13.343000      7.031000
C          28.429000    -12.121000      7.145000
H          27.848000    -11.754000      8.000000
H          28.832000    -11.202000      6.704000
C          27.547000    -12.947000      6.191000
H          28.165000    -13.545000      5.510000
H          27.004000    -13.663000      6.820000
C          26.462000    -12.157000      5.444000
C          27.044000    -11.388000      4.269000
C          27.051000    -12.009000      3.038000
H          26.912000    -13.086000      3.017000
C          27.389000    -11.372000      1.844000
H          27.331000    -11.887000      0.889000
C          27.712000     -9.984000      1.940000
H          28.015000     -9.408000      1.071000
C          27.700000     -9.331000      3.195000
H          27.826000     -8.253000      3.232000
C          27.358000    -10.000000      4.317000
H          27.352000     -9.421000      5.235000
C          22.165000     -8.788000      5.884000
C          21.699000     -9.953000      3.793000
C          18.284000    -12.496000      5.408000
C          23.006000    -12.008000      9.739000
C          20.303000    -15.297000      5.950000
C          22.612000     -9.351000      4.654000
C          21.412000    -14.317000      9.194000
C          18.865000    -10.167000      5.772000
C          23.325000    -13.635000      3.842000
C          23.570000    -13.192000      9.174000
C          25.098000    -12.738000      5.265000
C          23.600000    -14.533000      4.909000
C          23.174000    -14.897000      7.692000
C          20.472000    -14.986000      8.343000
C          23.578000    -11.228000      3.826000
C          18.687000    -13.937000      7.122000
C          25.264000    -11.602000      6.182000
C          24.961000    -11.789000      7.614000
C          19.189000    -14.488000      5.927000
C          19.773000    -10.599000      9.155000
C          18.351000    -11.556000      7.691000
C          18.715000    -10.328000      7.164000
C          19.898000     -9.348000      5.330000
C          24.305000    -10.623000      8.112000
C          24.114000    -12.466000      4.074000
C          20.343000     -9.968000      4.121000
C          22.752000    -14.321000      8.871000
C          22.303000    -11.148000      3.306000
C          22.497000    -15.277000      5.434000
C          22.118000    -10.022000      9.106000
C          18.617000    -11.223000      4.876000
C          24.532000    -14.032000      5.802000
C          20.660000     -8.925000      7.546000
C          22.295000    -15.561000      6.844000
C          22.032000    -13.510000      3.218000
C          19.544000    -13.035000      9.135000
C          20.832000    -13.122000      9.656000
C          20.958000    -14.299000      3.775000
C          23.302000    -10.772000      9.126000
C          24.499000    -13.063000      8.090000
C          21.084000    -10.723000      9.725000
C          24.575000    -10.339000      5.882000
C          20.118000    -12.270000      3.256000
C          24.257000    -14.091000      7.167000
C          21.209000    -15.146000      4.890000
C          21.939000     -9.053000      8.105000
C          18.926000    -13.611000      4.872000
C          20.787000     -8.693000      6.148000
C          18.178000    -12.659000      6.814000
C          21.512000    -12.273000      2.928000
C          19.842000    -13.510000      3.800000
C          23.813000    -10.125000      4.670000
C          24.025000     -9.799000      7.065000
C          18.986000    -11.730000      8.912000
C          19.549000    -11.098000      3.859000
C          20.932000    -15.625000      7.154000
C          21.637000    -11.994000      9.942000
C          19.344000    -14.149000      8.306000
C          22.885000     -8.962000      7.112000
C          19.593000     -9.736000      8.058000
O          23.258000    -15.579000     13.695000
C          23.219000    -14.521000     14.750000
H          24.182000    -13.996000     14.776000
H          23.176000    -15.031000     15.720000
H          22.403000    -13.815000     14.551000
O          24.189000    -14.139000     12.187000
C          23.855000    -15.243000     12.535000
C          24.082000    -16.388000     11.640000
H          24.694000    -17.111000     12.193000
H          24.712000    -16.064000     10.803000
C          22.769000    -17.102000     11.050000
H          22.276000    -17.745000     11.789000
H          22.030000    -16.344000     10.763000
C          23.051000    -17.916000      9.713000
H          22.150000    -18.243000      9.180000
H          23.577000    -17.299000      8.974000
C          24.177000    -19.088000      9.777000
C          23.981000    -20.072000     10.824000
C          23.039000    -21.087000     10.659000
H          22.643000    -21.022000      9.650000
C          22.680000    -21.945000     11.679000
H          21.973000    -22.744000     11.473000
C          23.219000    -21.764000     12.984000
H          23.033000    -22.457000     13.800000
C          24.127000    -20.755000     13.171000
H          24.561000    -20.635000     14.158000
C          24.520000    -19.911000     12.122000
H          25.295000    -19.161000     12.250000
C          29.591000    -20.537000      9.168000
C          28.371000    -22.385000      8.280000
C          29.288000    -21.865000      3.888000
C          28.057000    -16.291000      6.889000
C          26.136000    -20.236000      3.204000
C          28.468000    -21.352000      9.176000
C          27.267000    -16.947000      4.288000
C          30.687000    -21.571000      5.859000
C          24.806000    -21.314000      6.837000
C          26.703000    -16.356000      6.629000
C          24.681000    -19.613000      8.460000
C          24.299000    -20.185000      6.184000
C          25.245000    -17.683000      5.354000
C          27.081000    -18.007000      3.393000
C          26.301000    -21.551000      8.678000
C          28.578000    -19.903000      2.967000
C          25.686000    -18.838000      9.328000
C          26.294000    -17.588000      8.712000
C          27.449000    -20.782000      2.987000
C          30.913000    -18.075000      5.662000
C          30.585000    -19.795000      4.226000
C          31.074000    -20.313000      5.387000
C          30.415000    -21.780000      7.238000
C          27.648000    -17.513000      8.960000
C          25.051000    -21.022000      8.164000
C          29.361000    -22.665000      7.308000
C          26.307000    -16.741000      5.325000
C          27.066000    -22.538000      7.933000
C          24.605000    -19.931000      4.823000
C          29.831000    -17.411000      7.766000
C          29.778000    -22.356000      5.100000
C          24.416000    -19.115000      7.122000
C          30.982000    -19.528000      7.684000
C          24.931000    -18.674000      4.370000
C          25.569000    -22.235000      6.100000
C          29.294000    -17.772000      3.840000
C          28.615000    -16.738000      4.546000
C          25.797000    -22.025000      4.771000
C          28.556000    -16.891000      8.071000
C          25.876000    -17.130000      7.464000
C          30.156000    -17.137000      6.420000
C          26.994000    -19.507000      9.720000
C          27.574000    -23.216000      5.630000
C          24.992000    -17.879000      6.664000
C          25.300000    -20.910000      4.094000
C          30.283000    -18.546000      8.446000
C          27.901000    -21.997000      3.553000
C          30.522000    -20.754000      8.166000
C          29.712000    -20.590000      3.456000
C          26.652000    -22.929000      6.640000
C          27.035000    -22.678000      4.468000
C          27.198000    -20.851000      9.430000
C          28.120000    -18.645000      9.584000
C          30.412000    -18.406000      4.387000
C          28.933000    -23.063000      5.997000
C          25.950000    -18.894000      3.434000
C          29.045000    -16.462000      5.852000
C          28.385000    -18.558000      3.175000
C          29.415000    -19.186000      9.357000
C          31.184000    -19.281000      6.290000
$end

--------------------------------------------------------------

             Standard Nuclear Orientation (Angstroms)
    I     Atom           X                Y                Z
 ----------------------------------------------------------------
    1      O      -0.6020228450     4.8170269915    -6.0025586530
    2      C      -0.8129495903     4.9037980908    -7.4497015915
    3      H      -1.7679373433     4.4438962299    -7.7360504520
    4      H      -0.1106102658     4.4073608573    -8.1301724185
    5      H      -0.9617578254     5.9250773023    -7.8225271287
    6      O      -0.5733809394     2.6029831556    -6.1538977885
    7      C      -0.5670478918     3.5798099060    -5.4715881869
    8      C      -0.4829679992     3.4513398999    -3.9713785252
    9      H      -1.0056034527     2.5173448285    -3.7311382511
   10      H      -1.1125840629     4.2788853645    -3.6220461384
   11      C       0.9169200850     3.5797323103    -3.2852570048
   12      H       1.5197995251     2.8153850658    -3.7908108303
   13      H       1.4483281755     4.5101288710    -3.5163818217
   14      C       0.7919524181     3.2791890653    -1.7804736848
   15      H      -0.0270513198     3.8573733190    -1.3352491952
   16      H       0.4997697112     2.2247967806    -1.7028066024
   17      C       2.0922942150     3.4017173807    -0.9721222618
   18      C       2.4258264053     4.8542246671    -0.6726412755
   19      C       1.9631272068     5.3859915215     0.5123416207
   20      H       1.1677096916     4.8538358079     1.0259682098
   21      C       2.3313215727     6.6389701040     1.0023687429
   22      H       1.9820664740     6.9969269391     1.9669939449
   23      C       3.2704339500     7.3723296836     0.2147516596
   24      H       3.5968686215     8.3683173833     0.4979387131
   25      C       3.7611668614     6.8355309478    -0.9987582608
   26      H       4.5643222947     7.3495357363    -1.5184403053
   27      C       3.3719831291     5.6126741379    -1.4189561248
   28      H       3.8118371177     5.2647904276    -2.3482065715
   29      C       7.3082743272     1.8058786288    -0.4673251272
   30      C       6.7095831776     2.3574020582     1.8313816428
   31      C       6.5568172265    -1.9385339008     3.3343439844
   32      C       4.0526877263    -1.4998435222    -2.5673401140
   33      C       3.0859146293    -2.1864461828     3.0070816107
   34      C       6.6377752255     2.6424372512     0.4709065211
   35      C       3.1174527765    -3.1467279838    -0.4266745262
   36      C       8.1022605764    -0.8134342994     1.8376630768
   37      C       2.7679995357     1.8015773821     2.4300287202
   38      C       2.7835042258    -1.2792574333    -1.9511485695
   39      C       2.4165657572     2.3996431658     0.0865529645
   40      C       1.8369367294     0.9106913600     1.8300602659
   41      C       1.6814394658    -1.3033656749     0.0600791792
   42      C       3.1499825480    -3.4838450399     0.9663997376
   43      C       4.5814949538     2.9945287828     1.3595076676
   44      C       5.0848798810    -3.3937165915     2.3896060379
   45      C       3.2102287807     2.3984934034    -1.1499900728
   46      C       3.1790213400     1.2058854436    -2.0183876486
   47      C       4.3909438955    -2.5394466407     3.2684152887
   48      C       7.0954958613    -2.5903508141    -1.0406644773
   49      C       7.1962433958    -2.9635115253     1.1801079149
   50      C       8.0050803388    -1.8716651941     0.9120344391
   51      C       8.1872153954     0.4772716274     1.3276876958
   52      C       4.4894178592     0.9619835142    -2.5295322575
   53      C       3.2536003065     2.6520817168     1.3890002537
   54      C       7.4706724067     1.2748809381     2.2734633208
   55      C       2.3499774072    -2.0856916086    -0.8569399887
   56      C       5.4052929640     2.5487456141     2.3719597429
   57      C       1.8504405117    -0.4461892202     2.2822358280
   58      C       6.2081686873    -0.8173952813    -2.4203869729
   59      C       7.4204428296    -0.8441694469     3.0679621912
   60      C       1.6706766731     1.1444466894     0.4755160475
   61      C       8.0055629606    -0.2804310915    -0.9224496295
   62      C       1.6825760386    -1.6013557230     1.4179604846
   63      C       3.6428248000     1.4302047848     3.5133629950
   64      C       5.2458557579    -3.7571624095     0.0567502978
   65      C       4.4087876034    -3.3066942888    -0.9602793856
   66      C       3.6016701742     0.0521854262     3.9441935234
   67      C       4.9107198580    -0.3927592368    -2.7382969683
   68      C       2.3914704397     0.0647364597    -1.6433695478
   69      C       6.2131112201    -2.1723772400    -2.0921835861
   70      C       4.6491198160     2.6872994020    -1.0720562294
   71      C       5.7599972893     0.7102816503     3.9625081061
   72      C       1.7299987860     0.0670542674    -0.4065482676
   73      C       2.7242046672    -0.8632151640     3.2994214369
   74      C       7.1388850038     0.1224877996    -1.9477455314
   75      C       5.2974997711    -1.6575197164     3.8614450893
   76      C       8.1741001504     0.7970970510    -0.0087290389
   77      C       6.4319775374    -2.9785238953     2.3764938587
   78      C       4.9622336788     1.8094192982     3.5083069911
   79      C       4.8897478936    -0.3414108307     4.1777310476
   80      C       5.3110893560     3.0703106549     0.1569607388
   81      C       5.3623739547     1.8054354233    -1.9129922893
   82      C       6.6400903793    -3.4163905755    -0.0072995081
   83      C       7.0208614157     0.4570028930     3.3245225844
   84      C       2.4085174921    -2.6975705875     1.8967996819
   85      C       4.8496815247    -2.4980611325    -2.0344907097
   86      C       4.4864525248    -3.8249083011     1.2344405048
   87      C       6.7025973639     1.4027536062    -1.7031672013
   88      C       7.9441565938    -1.6344095561    -0.4519971073
   89      O       0.8488333001    -5.3952867553    -4.3069722110
   90      C       1.6925366752    -5.6490167436    -5.5143229090
   91      H       1.5608842598    -4.8283530414    -6.2304574838
   92      H       1.2653140525    -6.5159400062    -6.0327569815
   93      H       2.7477311601    -5.7424614183    -5.2284458518
   94      O       1.5390587867    -3.2214416113    -4.1955672399
   95      C       0.8206034440    -4.1265467803    -3.8548583413
   96      C      -0.2089668425    -3.8925181183    -2.8307516035
   97      H      -1.1732713266    -4.1638888205    -3.2774694160
   98      H      -0.2783958969    -2.8152949192    -2.6378402621
   99      C      -0.0068629833    -4.6544519350    -1.4305816534
  100      H      -0.2727836246    -5.7166223931    -1.4914021298
  101      H       1.0493955090    -4.6201611376    -1.1369898645
  102      C      -0.7820031403    -3.9609588057    -0.2272886647
  103      H      -0.5057735519    -4.3323626604     0.7669826218
  104      H      -0.5563720624    -2.8887571287    -0.1728811234
  105      C      -2.3910607713    -3.7806438637    -0.3821307188
  106      C      -3.1184296738    -4.9957813610    -0.6939902104
  107      C      -3.3925513954    -5.9216398277     0.3122192019
  108      H      -3.0717107453    -5.4986490482     1.2594583890
  109      C      -3.9218590662    -7.1700098099     0.0536640299
  110      H      -4.1547584010    -7.8279031805     0.8865026775
  111      C      -4.1365813392    -7.5875069399    -1.2901728247
  112      H      -4.6240455113    -8.5244128504    -1.5456860257
  113      C      -3.8484794572    -6.7000265953    -2.2936118829
  114      H      -4.0398973442    -7.0061434392    -3.3166351820
  115      C      -3.3491669019    -5.4172670881    -2.0245375089
  116      H      -3.1925915166    -4.6866566299    -2.8127008848
  117      C      -6.6848598119    -0.5487434779    -2.0850657426
  118      C      -7.4484653656    -1.5410051909    -0.0542109346
  119      C      -7.3891986850     2.0861980630     2.6366694075
  120      C      -2.2524804418     1.7375830837    -1.2470699357
  121      C      -4.2104213168     1.2049636979     4.1115936215
  122      C      -6.6978675039    -1.6164027712    -1.1988646179
  123      C      -2.2296144059     2.6258770343     1.4043538331
  124      C      -8.0356725067     1.8377087259     0.3024023604
  125      C      -4.4556951851    -2.4350080998     2.4322726156
  126      C      -1.5108506591     1.0128428364    -0.3360936246
  127      C      -3.0603411955    -2.8356966716     0.5787379080
  128      C      -3.2179098991    -1.8601339635     2.7413135728
  129      C      -1.6976532515     0.3383193640     1.9049866678
  130      C      -2.9506553948     2.6323735360     2.6040532487
  131      C      -5.5851257400    -2.7640000872     0.3594422091
  132      C      -5.3454329235     3.0570757720     2.9233800390
  133      C      -3.0448931615    -2.4230424783    -0.9023265319
  134      C      -2.3561525897    -1.1089595499    -1.2346554085
  135      C      -5.4075221840     1.9507257526     3.8288172584
  136      C      -5.3130975760     3.5917187080    -1.0477590112
  137      C      -6.4685320457     3.5750977466     0.8997457846
  138      C      -7.2178370784     2.9216317833    -0.0313236020
  139      C      -8.1007348015     0.6895985078    -0.5324124844
  140      C      -3.0891843206    -0.3722681660    -2.1404121563
  141      C      -4.4105203590    -3.0071879430     1.1765706357
  142      C      -8.2130759064    -0.4035476811     0.2991233751
  143      C      -1.5451075371     1.4344169710     1.0154087674
  144      C      -6.8035554264    -2.2159197853     0.9334248589
  145      C      -3.1366025780    -0.6827944838     3.5272740484
  146      C      -4.2256962896     1.8312889496    -2.3732330804
  147      C      -8.1190461446     1.4120641991     1.6553482474
  148      C      -2.4503811583    -1.9340488188     1.5397024768
  149      C      -6.6129872366     1.7204196709    -2.0542284762
  150      C      -2.2849558521     0.3495663260     3.2103150407
  151      C      -5.6195411921    -1.8653420264     2.9749714608
  152      C      -4.0588038378     3.8573646647     1.0471952709
  153      C      -2.8504630086     3.4091662585     0.4408425442
  154      C      -5.5300720283    -0.7770090759     3.7934161185
  155      C      -3.0751354068     1.0422201839    -2.1667624094
  156      C      -1.6935219995    -0.3797472584    -0.2491798204
  157      C      -4.1396892667     3.0196046321    -1.6163145706
  158      C      -4.3624326353    -2.1238632063    -1.5999442625
  159      C      -7.5621404533    -0.6999482805     2.7076672756
  160      C      -1.7605138973    -0.7478248442     1.1082029467
  161      C      -4.3085644402    -0.1862751324     4.1213118647
  162      C      -5.4375224881     1.2014217026    -2.6726884458
  163      C      -6.6801314697     1.3601485093     3.6483480767
  164      C      -7.3628497415     0.5970574740    -1.7038521095
  165      C      -6.5804892878     3.1752534980     2.2468330694
  166      C      -6.8326849771    -1.8154457399     2.2880089309
  167      C      -6.7675408083    -0.0692668623     3.6569097909
  168      C      -5.5637285091    -2.3775800841    -0.9483554586
  169      C      -4.3080245202    -0.9521246733    -2.4083281858
  170      C      -5.2436517268     3.9505585243     0.3133428440
  171      C      -8.2391052558    -0.0034160913     1.6773563684
  172      C      -3.0188984605     1.5078630273     3.4976023518
  173      C      -2.9247203080     2.9617631129    -0.8861948626
  174      C      -4.1465731049     3.3709124710     2.3285862413
  175      C      -5.4902430113    -0.2093059196    -2.6763109063
  176      C      -6.4758534705     2.8496104651    -1.1875269818
 ----------------------------------------------------------------

    9   -5804.2644025074      8.14E-06 Convergence criterion met
 Total energy in the final basis set = -5804.2644025074

                    Orbital Energies (a.u.)
 --------------------------------------------------------------

 Alpha MOs
 -- Occupied --
-19.195 -19.193 -19.130 -19.123 -10.309 -10.305 -10.251 -10.248
-10.247 -10.243 -10.238 -10.237 -10.235 -10.233 -10.232 -10.230
-10.229 -10.226 -10.226 -10.225 -10.224 -10.224 -10.224 -10.223
-10.223 -10.223 -10.223 -10.222 -10.222 -10.222 -10.222 -10.221
-10.220 -10.220 -10.220 -10.219 -10.219 -10.219 -10.219 -10.219
-10.219 -10.218 -10.218 -10.218 -10.218 -10.218 -10.218 -10.218
-10.218 -10.218 -10.217 -10.217 -10.217 -10.217 -10.216 -10.216
-10.216 -10.216 -10.216 -10.216 -10.215 -10.215 -10.215 -10.215
-10.215 -10.215 -10.215 -10.215 -10.215 -10.215 -10.214 -10.214
-10.214 -10.214 -10.214 -10.214 -10.214 -10.214 -10.214 -10.213
-10.213 -10.213 -10.213 -10.213 -10.213 -10.213 -10.213 -10.213
-10.213 -10.213 -10.212 -10.212 -10.212 -10.212 -10.212 -10.212
-10.212 -10.212 -10.212 -10.212 -10.212 -10.212 -10.211 -10.211
-10.211 -10.211 -10.211 -10.210 -10.210 -10.210 -10.210 -10.210
-10.210 -10.210 -10.210 -10.209 -10.209 -10.209 -10.209 -10.209
-10.209 -10.209 -10.209 -10.208 -10.208 -10.208 -10.208 -10.208
-10.208 -10.207 -10.206 -10.206 -10.202 -10.202 -10.201 -10.201
-10.200 -10.199 -10.199 -10.199 -10.198 -10.198 -10.198 -10.196
-10.195 -10.194 -10.192 -10.191  -1.098  -1.094  -1.012  -1.009
 -0.985  -0.980  -0.967  -0.966  -0.964  -0.962  -0.960  -0.959
 -0.936  -0.934  -0.929  -0.927  -0.924  -0.923  -0.922  -0.922
 -0.920  -0.918  -0.900  -0.894  -0.892  -0.888  -0.887  -0.885
 -0.877  -0.873  -0.854  -0.854  -0.844  -0.841  -0.839  -0.836
 -0.836  -0.835  -0.820  -0.817  -0.802  -0.799  -0.798  -0.796
 -0.795  -0.795  -0.793  -0.793  -0.791  -0.788  -0.786  -0.782
 -0.772  -0.771  -0.768  -0.768  -0.765  -0.765  -0.764  -0.760
 -0.753  -0.750  -0.742  -0.738  -0.734  -0.731  -0.718  -0.716
 -0.714  -0.712  -0.711  -0.711  -0.711  -0.710  -0.709  -0.708
 -0.708  -0.706  -0.705  -0.704  -0.702  -0.702  -0.677  -0.671
 -0.661  -0.658  -0.656  -0.655  -0.650  -0.646  -0.636  -0.628
 -0.628  -0.627  -0.625  -0.625  -0.623  -0.622  -0.620  -0.616
 -0.615  -0.614  -0.613  -0.612  -0.611  -0.610  -0.610  -0.609
 -0.607  -0.605  -0.603  -0.600  -0.567  -0.567  -0.564  -0.563
 -0.561  -0.560  -0.560  -0.558  -0.557  -0.555  -0.554  -0.551
 -0.537  -0.535  -0.534  -0.531  -0.530  -0.525  -0.525  -0.524
 -0.524  -0.523  -0.520  -0.518  -0.516  -0.516  -0.515  -0.511
 -0.506  -0.504  -0.498  -0.494  -0.492  -0.488  -0.485  -0.485
 -0.483  -0.482  -0.481  -0.479  -0.478  -0.476  -0.475  -0.474
 -0.472  -0.471  -0.470  -0.469  -0.468  -0.467  -0.466  -0.465
 -0.465  -0.464  -0.464  -0.462  -0.461  -0.460  -0.459  -0.456
 -0.455  -0.454  -0.452  -0.449  -0.448  -0.446  -0.446  -0.441
 -0.441  -0.440  -0.440  -0.437  -0.436  -0.434  -0.434  -0.431
 -0.429  -0.429  -0.428  -0.427  -0.426  -0.426  -0.424  -0.423
 -0.422  -0.421  -0.421  -0.420  -0.420  -0.419  -0.418  -0.418
 -0.417  -0.416  -0.415  -0.414  -0.413  -0.412  -0.412  -0.411
 -0.410  -0.409  -0.408  -0.408  -0.405  -0.400  -0.397  -0.396
 -0.395  -0.394  -0.391  -0.390  -0.389  -0.387  -0.386  -0.384
 -0.382  -0.382  -0.374  -0.372  -0.371  -0.368  -0.367  -0.367
 -0.365  -0.364  -0.363  -0.361  -0.360  -0.360  -0.359  -0.358
 -0.356  -0.355  -0.354  -0.354  -0.353  -0.352  -0.351  -0.350
 -0.350  -0.349  -0.348  -0.348  -0.347  -0.347  -0.346  -0.346
 -0.344  -0.343  -0.342  -0.340  -0.339  -0.338  -0.335  -0.333
 -0.332  -0.331  -0.329  -0.327  -0.326  -0.326  -0.325  -0.322
 -0.312  -0.310  -0.304  -0.297  -0.289  -0.287  -0.272  -0.270
 -0.269  -0.268  -0.266  -0.265  -0.265  -0.263  -0.263  -0.262
 -0.260  -0.260  -0.259  -0.258  -0.257  -0.257  -0.255  -0.254
 -0.248  -0.247  -0.243  -0.242  -0.225  -0.219  -0.212  -0.210
 -0.210  -0.208  -0.205  -0.205  -0.198  -0.194

          Ground-State Mulliken Net Atomic Charges

     Atom                 Charge (a.u.)
  ----------------------------------------
      1 O                    -0.461951
      2 C                    -0.095935
      3 H                     0.124679
      4 H                     0.134621
      5 H                     0.120679
      6 O                    -0.455597
      7 C                     0.573287
      8 C                    -0.250190
      9 H                     0.138611
     10 H                     0.115270
     11 C                    -0.193173
     12 H                     0.120133
     13 H                     0.114974
     14 C                    -0.177979
     15 H                     0.112595
     16 H                     0.113658
     17 C                     0.009522
     18 C                     0.087318
     19 C                    -0.113161
     20 H                     0.088949
     21 C                    -0.083619
     22 H                     0.097086
     23 C                    -0.098436
     24 H                     0.087563
     25 C                    -0.080437
     26 H                     0.090524
     27 C                    -0.105021
     28 H                     0.089126
     29 C                    -0.003078
     30 C                    -0.010070
     31 C                    -0.022080
     32 C                    -0.006304
     33 C                     0.012853
     34 C                    -0.009322
     35 C                    -0.033554
     36 C                     0.007921
     37 C                     0.013242
     38 C                     0.013266
     39 C                    -0.108156
     40 C                     0.004211
     41 C                    -0.004939
     42 C                    -0.008341
     43 C                     0.033038
     44 C                    -0.008641
     45 C                    -0.064075
     46 C                     0.017269
     47 C                    -0.002195
     48 C                    -0.006967
     49 C                    -0.002065
     50 C                     0.000208
     51 C                     0.019809
     52 C                    -0.016455
     53 C                     0.025937
     54 C                    -0.006850
     55 C                     0.019647
     56 C                     0.010510
     57 C                    -0.011947
     58 C                     0.029847
     59 C                    -0.011351
     60 C                     0.025217
     61 C                    -0.021877
     62 C                    -0.014854
     63 C                    -0.019701
     64 C                     0.009282
     65 C                     0.012690
     66 C                    -0.013306
     67 C                     0.008133
     68 C                    -0.009827
     69 C                    -0.034879
     70 C                     0.043236
     71 C                    -0.023946
     72 C                     0.030224
     73 C                     0.008669
     74 C                    -0.004932
     75 C                     0.015700
     76 C                    -0.015113
     77 C                     0.011190
     78 C                    -0.008162
     79 C                     0.026904
     80 C                    -0.031043
     81 C                     0.018741
     82 C                    -0.020814
     83 C                     0.010152
     84 C                    -0.016876
     85 C                     0.015872
     86 C                     0.002240
     87 C                     0.004226
     88 C                     0.022490
     89 O                    -0.472501
     90 C                    -0.095170
     91 H                     0.140301
     92 H                     0.127962
     93 H                     0.139162
     94 O                    -0.469621
     95 C                     0.595518
     96 C                    -0.247166
     97 H                     0.120131
     98 H                     0.133088
     99 C                    -0.196148
    100 H                     0.126671
    101 H                     0.115486
    102 C                    -0.186474
    103 H                     0.118185
    104 H                     0.117911
    105 C                    -0.022779
    106 C                     0.117319
    107 C                    -0.089454
    108 H                     0.083950
    109 C                    -0.105550
    110 H                     0.092489
    111 C                    -0.081506
    112 H                     0.093891
    113 C                    -0.086354
    114 H                     0.088769
    115 C                    -0.116471
    116 H                     0.086697
    117 C                     0.002352
    118 C                     0.014221
    119 C                     0.008887
    120 C                    -0.020397
    121 C                     0.000630
    122 C                    -0.005014
    123 C                    -0.009864
    124 C                    -0.008153
    125 C                     0.011289
    126 C                    -0.005265
    127 C                    -0.090162
    128 C                    -0.015424
    129 C                     0.021222
    130 C                     0.000840
    131 C                    -0.003961
    132 C                    -0.003743
    133 C                    -0.069966
    134 C                     0.019620
    135 C                     0.004543
    136 C                    -0.044444
    137 C                     0.005814
    138 C                     0.006117
    139 C                     0.011983
    140 C                     0.010046
    141 C                     0.024290
    142 C                    -0.018567
    143 C                    -0.019329
    144 C                    -0.008935
    145 C                     0.010978
    146 C                     0.030135
    147 C                     0.003996
    148 C                     0.012676
    149 C                    -0.011567
    150 C                    -0.030973
    151 C                     0.022284
    152 C                    -0.003934
    153 C                    -0.019704
    154 C                     0.026787
    155 C                    -0.006817
    156 C                    -0.002486
    157 C                    -0.001867
    158 C                    -0.005412
    159 C                     0.005472
    160 C                     0.028245
    161 C                    -0.012213
    162 C                    -0.040603
    163 C                    -0.017424
    164 C                     0.013182
    165 C                    -0.020997
    166 C                    -0.026453
    167 C                    -0.021939
    168 C                     0.021447
    169 C                     0.016979
    170 C                     0.009987
    171 C                    -0.002796
    172 C                     0.002116
    173 C                     0.007555
    174 C                     0.020558
    175 C                     0.009565
    176 C                     0.032155
  ----------------------------------------
  Sum of atomic charges =     0.000000

                    Cartesian Multipole Moments
 -----------------------------------------------------------------
    Charge (ESU x 10^10)
                 0.0000
    Dipole Moment (Debye)
         X      -0.9436      Y      -1.1916      Z      -2.0162
       Tot       2.5250
    Quadrupole Moments (Debye-Ang)
        XX    -823.6749     XY       9.9099     YY    -761.7520
        XZ       1.0006     YZ       3.6425     ZZ    -797.8419

 Total job time:  893.78s(wall), 7476.01s(cpu)
        *  Thank you very much for using Q-Chem.  Have a nice day.  *
