 Q-Chem 4.4, Q-Chem, Inc., Pleasanton, CA (2016)
 Q-Chem 4.4.2 for Intel X86 Linux

User input:
--------------------------------------------------------------
$comment
SP
$end

$rem
MEM_STATIC 5000
MEM_TOTAL 20000
JOBTYPE SP
EXCHANGE B3LYP
BASIS 6-31g(d,p)
$end

$molecule
0 1
O          26.592000     15.904000     13.460000
C          25.483000     16.504000     14.230000
H          25.836000     16.700000     15.250000
H          24.562000     15.916000     14.328000
H          25.197000     17.396000     13.659000
O          25.767000     16.570000     11.429000
C          26.606000     15.975000     12.088000
C          27.822000     15.227000     11.541000
H          27.606000     14.158000     11.651000
H          28.652000     15.453000     12.223000
C          28.111000     15.573000     10.103000
H          28.073000     16.663000      9.985000
H          29.103000     15.149000      9.905000
C          27.110000     14.811000      9.230000
H          27.264000     13.727000      9.291000
H          26.099000     15.051000      9.583000
C          27.176000     15.292000      7.753000
C          28.286000     14.715000      6.894000
C          28.041000     13.435000      6.390000
H          27.150000     12.828000      6.521000
C          29.078000     12.866000      5.675000
H          28.832000     11.920000      5.202000
C          30.239000     13.569000      5.360000
H          31.070000     13.169000      4.786000
C          30.447000     14.862000      5.873000
H          31.404000     15.343000      5.694000
C          29.481000     15.429000      6.618000
H          29.653000     16.373000      7.126000
C          26.815000     19.571000      4.496000
C          26.184000     17.768000      3.003000
C          21.765000     18.966000      2.886000
C          24.135000     19.768000      8.823000
C          20.824000     16.763000      5.395000
C          26.971000     18.225000      4.065000
C          21.530000     18.846000      8.167000
C          23.762000     20.276000      2.787000
C          24.354000     14.847000      5.186000
C          23.720000     18.479000      9.136000
C          25.831000     15.489000      6.931000
C          23.601000     14.943000      6.362000
C          22.489000     16.637000      8.310000
C          20.669000     18.368000      7.146000
C          26.325000     16.047000      4.605000
C          20.552000     19.074000      4.790000
C          26.611000     16.668000      7.399000
C          25.934000     17.662000      8.379000
C          20.659000     17.751000      4.400000
C          23.295000     21.669000      5.976000
C          21.982000     20.943000      4.311000
C          23.301000     21.179000      3.766000
C          25.175000     19.971000      2.823000
C          26.288000     18.969000      8.023000
C          25.629000     15.276000      5.507000
C          25.236000     18.638000      2.392000
C          22.451000     17.950000      8.786000
C          25.779000     16.448000      3.391000
C          22.255000     15.288000      6.363000
C          25.296000     21.056000      7.240000
C          23.019000     19.210000      2.329000
C          24.419000     15.394000      7.408000
C          25.451000     21.267000      4.839000
C          21.637000     16.135000      7.344000
C          23.721000     15.231000      3.987000
C          21.340000     20.480000      6.604000
C          21.913000     20.189000      7.851000
C          22.382000     15.578000      3.941000
C          25.418000     20.077000      8.236000
C          24.585000     17.404000      8.823000
C          23.903000     21.367000      7.184000
C          27.227000     17.541000      6.423000
C          23.530000     16.836000      2.420000
C          23.868000     16.289000      8.312000
C          21.664000     15.622000      5.136000
C          26.042000     20.991000      6.068000
C          21.365000     17.678000      3.199000
C          25.986000     20.491000      3.832000
C          21.276000     19.866000      3.840000
C          24.464000     16.028000      3.082000
C          22.292000     16.649000      3.026000
C          27.131000     17.191000      5.035000
C          27.037000     18.896000      6.867000
C          21.969000     21.320000      5.646000
C          23.911000     18.174000      2.132000
C          20.765000     17.003000      6.722000
C          23.212000     20.609000      8.156000
C          20.581000     19.396000      6.144000
C          26.850000     19.894000      5.866000
C          24.044000     21.688000      4.800000
O          28.566000      7.651000      4.686000
C          29.379000      8.743000      5.179000
H          29.897000      8.292000      6.035000
H          28.801000      9.649000      5.401000
H          30.151000      8.953000      4.428000
O          27.331000      7.557000      6.652000
C          27.557000      7.154000      5.510000
C          26.802000      6.005000      4.869000
H          25.970000      5.735000      5.531000
H          27.584000      5.237000      4.834000
C          26.454000      6.125000      3.318000
H          27.394000      6.511000      2.906000
H          26.258000      5.130000      2.901000
C          25.542000      7.247000      2.979000
H          24.522000      7.154000      3.373000
H          25.984000      8.068000      3.556000
C          25.479000      7.555000      1.460000
C          24.956000      6.397000      0.675000
C          23.584000      6.231000      0.355000
H          22.856000      6.997000      0.605000
C          23.127000      5.046000     -0.291000
H          22.093000      4.891000     -0.583000
C          24.016000      3.987000     -0.499000
H          23.668000      3.030000     -0.879000
C          25.357000      4.080000     -0.162000
H          25.960000      3.190000     -0.312000
C          25.831000      5.356000      0.325000
H          26.884000      5.291000      0.584000
C          28.819000      9.074000     -2.550000
C          26.705000      9.835000     -3.397000
C          27.465000     14.181000     -2.888000
C          29.743000     10.967000      2.048000
C          25.674000     14.351000      0.131000
C          27.455000      8.842000     -2.701000
C          28.432000     13.489000      2.220000
C          28.916000     12.514000     -3.773000
C          24.172000     10.660000     -0.439000
C          28.518000     11.073000      2.712000
C          25.248000      9.041000      0.919000
C          24.383000     11.202000      0.884000
C          26.505000     12.114000      2.617000
C          27.671000     14.479000      1.532000
C          25.434000      9.012000     -1.657000
C          27.784000     15.005000     -0.789000
C          26.640000      8.353000      0.967000
C          27.766000      8.966000      1.685000
C          26.428000     14.857000     -0.939000
C          30.896000     12.523000     -0.890000
C          29.671000     14.016000     -2.009000
C          29.915000     12.937000     -2.888000
C          28.636000     11.153000     -3.857000
C          29.008000      8.885000      1.036000
C          24.738000      9.380000     -0.446000
C          27.286000     10.946000     -3.950000
C          27.860000     12.353000      2.737000
C          25.445000      9.834000     -2.787000
C          24.735000     12.568000      1.050000
C          30.749000     10.322000      0.096000
C          27.678000     13.131000     -3.804000
C          25.154000     10.279000      1.664000
C          30.415000     10.633000     -2.273000
C          25.691000     13.035000      1.985000
C          24.214000     11.528000     -1.545000
C          29.625000     14.184000      0.397000
C          29.654000     13.343000      1.586000
C          24.506000     12.864000     -1.329000
C          30.049000      9.853000      1.194000
C          27.514000     10.077000      2.484000
C          30.918000     11.680000      0.278000
C          27.325000      8.128000     -0.337000
C          25.465000     12.262000     -3.219000
C          26.278000     10.723000      2.489000
C          24.679000     13.418000     -0.065000
C          30.464000      9.787000     -1.143000
C          26.195000     14.351000     -2.239000
C          29.412000     10.208000     -3.071000
C          28.422000     14.676000     -1.991000
C          24.874000     11.115000     -2.684000
C          25.226000     13.336000     -2.384000
C          26.723000      8.377000     -1.560000
C          28.711000      8.381000     -0.212000
C          30.288000     13.769000     -0.784000
C          26.678000     12.145000     -3.904000
C          26.262000     14.221000      1.404000
C          30.381000     12.095000      1.516000
C          28.403000     14.844000      0.414000
C          29.464000      8.821000     -1.325000
C          30.652000     11.973000     -2.158000
$end

--------------------------------------------------------------

             Standard Nuclear Orientation (Angstroms)
    I     Atom           X                Y                Z
 ----------------------------------------------------------------
    1      O      -7.6166853081    -6.9681400799     1.1275432182
    2      C      -8.8210545176    -6.9814420326     0.2719154573
    3      H      -9.5153299362    -7.7353761209     0.6630548615
    4      H      -8.6807034422    -7.2109715779    -0.7916665863
    5      H      -9.1938124801    -5.9500060775     0.2982284187
    6      O      -7.0444274727    -4.8182797999     0.5800363724
    7      C      -6.8065196163    -5.8594526744     1.1729831637
    8      C      -5.6055978729    -6.1298128328     2.0796591537
    9      H      -4.9401385461    -6.8006324567     1.5240676522
   10      H      -5.9901468996    -6.7028182294     2.9334078647
   11      C      -4.8877030590    -4.8653037799     2.4755441009
   12      H      -5.6276740416    -4.1224490519     2.7981550090
   13      H      -4.2008260742    -5.1695896224     3.2747024918
   14      C      -4.0311744108    -4.4235372181     1.2855966316
   15      H      -3.2307023246    -5.1428029428     1.0748971858
   16      H      -4.6841207223    -4.3446297139     0.4070952257
   17      C      -3.4446843556    -3.0021062128     1.5153993996
   18      C      -2.2013100501    -2.9060557732     2.3800985666
   19      C      -1.0030384958    -3.2164807380     1.7318527619
   20      H      -0.8617676061    -3.4892549010     0.6901580889
   21      C       0.1258718134    -3.2126390610     2.5292872453
   22      H       1.0580347105    -3.3500386113     1.9895144256
   23      C       0.0970288311    -2.7965568386     3.8587227145
   24      H       0.9610320135    -2.7596627072     4.5161223827
   25      C      -1.1257965120    -2.4777016067     4.4762269828
   26      H      -1.1274064564    -2.2556923692     5.5392228937
   27      C      -2.2541175841    -2.5210441863     3.7450067841
   28      H      -3.2253717186    -2.3965529083     4.2139964726
   29      C      -4.6537624921     2.1369721376     2.5999337551
   30      C      -2.5476611695     2.3703921547     1.4218542525
   31      C      -4.4722593596     4.0974169142    -2.3583258076
   32      C      -8.1838504507    -0.5570700596     0.1049881357
   33      C      -4.6548518345     1.0397287325    -3.9865069926
   34      C      -3.3514185325     1.6463793931     2.3083313376
   35      C      -7.7494472218    -0.0415690028    -2.6539967311
   36      C      -4.8734977384     4.5272808111    -0.0414022453
   37      C      -2.2204425027    -0.6696303745    -1.2795936862
   38      C      -7.5333229565    -1.4740748558    -0.7120988751
   39      C      -3.4144120866    -1.9621694162     0.3149273887
   40      C      -3.2173924115    -1.3716025391    -1.9669996503
   41      C      -5.9673023822    -1.6575500077    -2.4740629581
   42      C      -6.9745183187     0.6536514565    -3.6175317374
   43      C      -2.2452836185     0.0766437234     0.9798000134
   44      C      -6.0498244020     2.9316264558    -3.4810324229
   45      C      -4.3807626032    -1.7957445272     1.4356121952
   46      C      -5.8984407841    -1.8312547075     1.1159921609
   47      C      -4.8024732813     2.4329345671    -3.8116372959
   48      C      -8.0157306066     2.9605613337    -0.0460585413
   49      C      -6.7685300252     4.1066959162    -1.5137561357
   50      C      -6.2689572617     4.3934591744    -0.1868515092
   51      C      -4.3148161031     4.0221978170     1.1929623683
   52      C      -6.5507032303    -0.8572792088     1.8816464099
   53      C      -2.4165815154    -0.9350130648     0.0634657002
   54      C      -3.0460108938     3.5592491614     0.8158909121
   55      C      -7.2437277303    -1.2463202373    -2.0821223927
   56      C      -1.9186975306     1.3745234098     0.6035516289
   57      C      -3.8118662223    -0.8858665584    -3.1251893780
   58      C      -7.8504352557     1.1927002444     1.6346587508
   59      C      -3.9874606267     4.4119233286    -1.0901156894
   60      C      -3.9988906741    -2.0931974706    -1.0531056627
   61      C      -6.4637602157     3.1566244454     1.8659184883
   62      C      -5.2068322293    -1.0212606369    -3.4373308248
   63      C      -1.9126343233     0.6248221789    -1.7436978896
   64      C      -8.0244001667     2.1807640594    -2.2870340097
   65      C      -8.4460073146     0.9163520367    -1.8493941465
   66      C      -2.4773921387     1.1469119277    -2.8943137699
   67      C      -7.7209196521    -0.1869350832     1.4221191751
   68      C      -6.3261052773    -2.0459342362    -0.2458142795
   69      C      -8.3959804841     1.7127103591     0.4212849895
   70      C      -4.2585602110    -0.6494093500     2.3103368587
   71      C      -2.1639367861     2.8333807731    -1.3871715817
   72      C      -5.3641750527    -2.1543338109    -1.2857059927
   73      C      -3.4390467616     0.3920969237    -3.5658490972
   74      C      -6.8806281074     1.9113087050     2.3256008435
   75      C      -3.8186887052     3.1778476385    -3.1609158317
   76      C      -5.1258254429     3.3716187257     2.1231304696
   77      C      -5.8569104093     3.9872065490    -2.5310456555
   78      C      -1.7467953842     1.6442689856    -0.7744153433
   79      C      -2.7174402382     2.5109215817    -2.6218792387
   80      C      -3.1554628162     0.2465878243     2.1138039070
   81      C      -5.5842547382    -0.1564951295     2.5726927082
   82      C      -7.8858413289     3.2908681407    -1.4109772894
   83      C      -2.8748428139     3.7669417101    -0.5862810794
   84      C      -5.6776617966     0.1590120081    -3.9720905860
   85      C      -8.6194381085     0.6530898282    -0.4865145592
   86      C      -7.1278623441     2.0597145181    -3.3567554413
   87      C      -5.7410436761     1.2519129737     2.7301025041
   88      C      -7.1046435212     3.7311991642     0.6753121381
   89      O       4.4640065995    -5.4095391494     0.3405189662
   90      C       3.5545158599    -5.3208570186     1.4636592399
   91      H       3.4819131134    -6.3632028114     1.7993750265
   92      H       2.6013172639    -4.8380684036     1.2135960681
   93      H       4.0643707239    -4.7737832153     2.2666805792
   94      O       2.9911259913    -6.7381804179    -0.8696678348
   95      C       4.0604728184    -6.1329606739    -0.7810369999
   96      C       5.1193063920    -6.1520601065    -1.8671372140
   97      H       4.6943233014    -6.6525097240    -2.7459475195
   98      H       5.9050185991    -6.7421622819    -1.3803017693
   99      C       5.9141418976    -4.7987833548    -2.1463925675
  100      H       6.1242280439    -4.4475566730    -1.1291199250
  101      H       6.8600013780    -5.0192598019    -2.6553817417
  102      C       5.0686221200    -3.6809525050    -2.6374114032
  103      H       4.6334458768    -3.8285166548    -3.6339712153
  104      H       4.2129822208    -3.7395803697    -1.9542005014
  105      C       5.7765428005    -2.3016788981    -2.5859660208
  106      C       6.9906571098    -2.2625944828    -3.4549406191
  107      C       6.9676607110    -1.8224822110    -4.8033145857
  108      H       6.0624219216    -1.4125517859    -5.2411955978
  109      C       8.1313043859    -1.9215797335    -5.6197109840
  110      H       8.1678594534    -1.5678876254    -6.6453866733
  111      C       9.2670241318    -2.5709186367    -5.1261872788
  112      H      10.1233641912    -2.7658694856    -5.7665222451
  113      C       9.3254267049    -3.0608209486    -3.8311645515
  114      H      10.2280411207    -3.5955690608    -3.5527032924
  115      C       8.1984741721    -2.7876550974    -2.9678109700
  116      H       8.3497005318    -3.2493635653    -1.9961778712
  117      C       8.0083410419     1.0184689790     1.0935387942
  118      C       7.4442692852     2.5722418222    -0.6480521465
  119      C       4.1103863061     4.5787330168     1.4928855844
  120      C       3.9656111482    -1.6444723456     2.5577476277
  121      C       1.6432635661     2.7016803328    -0.1626870074
  122      C       7.9302474529     1.2862032250    -0.2700376667
  123      C       1.6665611151    -0.0154782368     2.1459999640
  124      C       6.2602683945     3.9804904278     2.3221188512
  125      C       4.3450026114     1.2850867944    -2.7891397250
  126      C       3.1628754732    -1.8420830875     1.4311055236
  127      C       4.9605730529    -0.9548713027    -2.3129446444
  128      C       3.1699201339     0.5288253636    -2.4205426287
  129      C       1.9468242741    -0.7307500997    -0.1280716540
  130      C       1.1750148988     1.2648664967     1.7565584657
  131      C       6.6417195095     0.9974358624    -2.1300339435
  132      C       2.2685864538     3.3610263482     2.0510090236
  133      C       5.7890504566    -1.6907799866    -1.2241950862
  134      C       5.1710196459    -2.1258545496     0.0359307178
  135      C       2.1299025855     3.6758400129     0.7225515944
  136      C       4.9476430990     1.3215429708     4.1766223574
  137      C       4.2378448534     3.3321714548     3.5167780201
  138      C       5.6458587253     3.3298530377     3.3988392165
  139      C       7.2465177764     3.3021766734     1.6114996793
  140      C       5.9502021674    -1.9287697656     1.1867383412
  141      C       5.4365241336     0.4166075536    -2.6745553679
  142      C       7.1171920273     3.5364884403     0.2689756212
  143      C       2.0368936495    -0.9682924445     1.2295023374
  144      C       6.7454728709     2.3609888564    -1.8425213825
  145      C       2.1467891917     1.1310116513    -1.6408050126
  146      C       5.9172852486    -0.7144382883     3.3089931656
  147      C       5.5123540855     4.6288861117     1.3554228165
  148      C       3.5569477629    -0.7858400313    -2.0002635379
  149      C       7.0868767090     1.3863419771     3.1109626318
  150      C       1.4577689103     0.4763814057    -0.5905858482
  151      C       4.4076015930     2.6505378481    -2.4574037043
  152      C       2.5958636275     1.5649538407     3.5128336367
  153      C       2.4792718612     0.1357810254     3.2564853888
  154      C       3.3601769341     3.2086624953    -1.7445120841
  155      C       5.3994257665    -1.6999632700     2.4867237041
  156      C       3.7874664588    -2.0406044411     0.1573349897
  157      C       4.8439109301    -0.0909635812     3.9131420397
  158      C       6.9441866764    -0.9507875361    -0.6425272368
  159      C       5.2294566745     4.1255985780    -1.0239522512
  160      C       2.9961181630    -1.4035951760    -0.7981879409
  161      C       2.2036020580     2.5134718684    -1.4074875330
  162      C       7.0159562265    -0.0039827340     2.8722484031
  163      C       3.2584758269     4.4400264700     0.3448394054
  164      C       7.6472821216     1.9688064936     2.0292423073
  165      C       3.4247500979     3.9700351271     2.5534858244
  166      C       5.5918464218     3.1562574859    -1.9621241536
  167      C       3.8539413857     4.1582237622    -0.9026456656
  168      C       7.3744475185     0.2762390686    -1.1215004292
  169      C       7.0286094944    -1.1904903134     0.7488912360
  170      C       3.8086370825     2.1016107363     4.0105634061
  171      C       6.0504323958     4.3356189959     0.0878810497
  172      C       1.0903621711     1.5087960295     0.3417930086
  173      C       3.6272097275    -0.6985595067     3.5340597600
  174      C       1.7902008302     2.1979195547     2.5750517527
  175      C       7.5906183798    -0.2215183591     1.6118033779
  176      C       6.0858741037     2.0371416923     3.7738710077
 ----------------------------------------------------------------

    9   -5804.2815840053      8.78E-06 Convergence criterion met
 Total energy in the final basis set = -5804.2815840053

                    Orbital Energies (a.u.)
 --------------------------------------------------------------

 Alpha MOs
 -- Occupied --
-19.194 -19.193 -19.145 -19.141 -10.324 -10.323 -10.250 -10.246
-10.245 -10.244 -10.238 -10.232 -10.231 -10.229 -10.228 -10.227
-10.224 -10.224 -10.224 -10.223 -10.221 -10.221 -10.220 -10.219
-10.219 -10.218 -10.218 -10.218 -10.217 -10.217 -10.217 -10.217
-10.216 -10.216 -10.216 -10.216 -10.216 -10.216 -10.215 -10.215
-10.215 -10.215 -10.215 -10.215 -10.214 -10.214 -10.214 -10.214
-10.214 -10.214 -10.214 -10.214 -10.214 -10.213 -10.213 -10.213
-10.213 -10.213 -10.213 -10.213 -10.212 -10.212 -10.212 -10.212
-10.212 -10.212 -10.211 -10.211 -10.211 -10.211 -10.211 -10.211
-10.211 -10.211 -10.211 -10.210 -10.210 -10.210 -10.210 -10.210
-10.210 -10.210 -10.210 -10.210 -10.210 -10.209 -10.209 -10.209
-10.209 -10.209 -10.209 -10.209 -10.209 -10.208 -10.208 -10.208
-10.208 -10.208 -10.207 -10.207 -10.207 -10.207 -10.207 -10.207
-10.207 -10.207 -10.207 -10.207 -10.206 -10.206 -10.206 -10.206
-10.206 -10.206 -10.206 -10.206 -10.206 -10.206 -10.205 -10.205
-10.205 -10.205 -10.204 -10.204 -10.204 -10.204 -10.204 -10.204
-10.204 -10.203 -10.203 -10.203 -10.203 -10.203 -10.202 -10.202
-10.201 -10.201 -10.201 -10.201 -10.198 -10.197 -10.195 -10.194
-10.194 -10.193 -10.191 -10.190  -1.090  -1.084  -1.012  -1.007
 -0.984  -0.976  -0.966  -0.964  -0.962  -0.958  -0.956  -0.953
 -0.934  -0.930  -0.927  -0.925  -0.922  -0.920  -0.918  -0.918
 -0.917  -0.911  -0.895  -0.891  -0.887  -0.886  -0.883  -0.880
 -0.874  -0.869  -0.853  -0.852  -0.843  -0.839  -0.837  -0.836
 -0.833  -0.829  -0.823  -0.820  -0.808  -0.807  -0.800  -0.796
 -0.793  -0.792  -0.790  -0.788  -0.786  -0.786  -0.784  -0.780
 -0.771  -0.768  -0.767  -0.766  -0.766  -0.761  -0.761  -0.759
 -0.755  -0.748  -0.745  -0.741  -0.732  -0.727  -0.716  -0.715
 -0.713  -0.711  -0.709  -0.709  -0.708  -0.708  -0.707  -0.705
 -0.704  -0.703  -0.703  -0.701  -0.700  -0.698  -0.673  -0.666
 -0.660  -0.658  -0.653  -0.650  -0.649  -0.643  -0.630  -0.627
 -0.624  -0.624  -0.624  -0.620  -0.619  -0.618  -0.617  -0.616
 -0.615  -0.613  -0.611  -0.611  -0.610  -0.608  -0.608  -0.606
 -0.604  -0.603  -0.601  -0.595  -0.566  -0.564  -0.563  -0.559
 -0.559  -0.558  -0.557  -0.555  -0.553  -0.553  -0.549  -0.549
 -0.536  -0.531  -0.531  -0.529  -0.526  -0.525  -0.522  -0.521
 -0.520  -0.518  -0.518  -0.516  -0.515  -0.513  -0.511  -0.510
 -0.507  -0.505  -0.502  -0.501  -0.490  -0.487  -0.486  -0.485
 -0.483  -0.481  -0.479  -0.478  -0.477  -0.476  -0.475  -0.473
 -0.472  -0.472  -0.469  -0.468  -0.467  -0.466  -0.465  -0.464
 -0.464  -0.463  -0.463  -0.460  -0.459  -0.457  -0.457  -0.455
 -0.453  -0.452  -0.451  -0.449  -0.448  -0.445  -0.445  -0.442
 -0.440  -0.438  -0.437  -0.437  -0.436  -0.435  -0.435  -0.433
 -0.432  -0.430  -0.429  -0.428  -0.424  -0.424  -0.423  -0.422
 -0.421  -0.419  -0.419  -0.418  -0.418  -0.416  -0.416  -0.416
 -0.414  -0.414  -0.413  -0.412  -0.411  -0.410  -0.410  -0.409
 -0.408  -0.407  -0.405  -0.404  -0.403  -0.401  -0.398  -0.394
 -0.392  -0.392  -0.390  -0.388  -0.387  -0.385  -0.384  -0.381
 -0.376  -0.375  -0.373  -0.371  -0.370  -0.368  -0.366  -0.366
 -0.364  -0.362  -0.361  -0.361  -0.359  -0.358  -0.357  -0.357
 -0.355  -0.355  -0.354  -0.352  -0.352  -0.351  -0.351  -0.350
 -0.347  -0.346  -0.346  -0.345  -0.344  -0.344  -0.342  -0.341
 -0.341  -0.340  -0.338  -0.337  -0.335  -0.334  -0.331  -0.330
 -0.329  -0.329  -0.327  -0.327  -0.326  -0.325  -0.322  -0.318
 -0.312  -0.303  -0.301  -0.297  -0.284  -0.283  -0.277  -0.272
 -0.272  -0.269  -0.267  -0.266  -0.265  -0.264  -0.262  -0.262
 -0.260  -0.259  -0.257  -0.256  -0.255  -0.253  -0.253  -0.251
 -0.249  -0.244  -0.241  -0.234  -0.221  -0.217  -0.210  -0.209
 -0.205  -0.203  -0.202  -0.199  -0.198  -0.193

          Ground-State Mulliken Net Atomic Charges

     Atom                 Charge (a.u.)
  ----------------------------------------
      1 O                    -0.482808
      2 C                    -0.092833
      3 H                     0.129625
      4 H                     0.127516
      5 H                     0.141665
      6 O                    -0.470991
      7 C                     0.612012
      8 C                    -0.270311
      9 H                     0.138433
     10 H                     0.131203
     11 C                    -0.166800
     12 H                     0.118827
     13 H                     0.106246
     14 C                    -0.190814
     15 H                     0.104852
     16 H                     0.132563
     17 C                     0.011326
     18 C                     0.051763
     19 C                    -0.084809
     20 H                     0.101969
     21 C                    -0.099473
     22 H                     0.078024
     23 C                    -0.086477
     24 H                     0.088003
     25 C                    -0.092884
     26 H                     0.091143
     27 C                    -0.075580
     28 H                     0.091187
     29 C                     0.006161
     30 C                    -0.020208
     31 C                    -0.004246
     32 C                     0.002814
     33 C                     0.027905
     34 C                    -0.005542
     35 C                    -0.018058
     36 C                    -0.001233
     37 C                    -0.007594
     38 C                     0.002752
     39 C                    -0.084138
     40 C                     0.006950
     41 C                     0.014766
     42 C                    -0.028358
     43 C                     0.004922
     44 C                    -0.016399
     45 C                    -0.084050
     46 C                     0.028015
     47 C                     0.005268
     48 C                     0.016186
     49 C                    -0.000001
     50 C                     0.000322
     51 C                    -0.009358
     52 C                     0.013758
     53 C                     0.060641
     54 C                     0.009185
     55 C                    -0.010640
     56 C                     0.003663
     57 C                     0.000509
     58 C                    -0.001611
     59 C                     0.016068
     60 C                     0.011827
     61 C                    -0.010838
     62 C                    -0.028984
     63 C                    -0.000595
     64 C                     0.006691
     65 C                     0.008283
     66 C                    -0.002641
     67 C                    -0.009030
     68 C                     0.028478
     69 C                     0.007576
     70 C                     0.018528
     71 C                    -0.028050
     72 C                     0.012231
     73 C                    -0.024334
     74 C                    -0.006340
     75 C                    -0.007839
     76 C                    -0.003624
     77 C                     0.006903
     78 C                    -0.001524
     79 C                     0.015371
     80 C                    -0.008220
     81 C                    -0.016264
     82 C                    -0.021928
     83 C                    -0.010987
     84 C                     0.008195
     85 C                    -0.013186
     86 C                     0.007894
     87 C                     0.003006
     88 C                    -0.009696
     89 O                    -0.485404
     90 C                    -0.078519
     91 H                     0.125705
     92 H                     0.133470
     93 H                     0.126942
     94 O                    -0.476439
     95 C                     0.597221
     96 C                    -0.256385
     97 H                     0.133988
     98 H                     0.137067
     99 C                    -0.198588
    100 H                     0.126217
    101 H                     0.112643
    102 C                    -0.166923
    103 H                     0.105408
    104 H                     0.111635
    105 C                     0.010933
    106 C                     0.103422
    107 C                    -0.115500
    108 H                     0.095754
    109 C                    -0.086071
    110 H                     0.094988
    111 C                    -0.074859
    112 H                     0.086000
    113 C                    -0.092047
    114 H                     0.096313
    115 C                    -0.125965
    116 H                     0.093171
    117 C                    -0.007728
    118 C                     0.010131
    119 C                     0.011296
    120 C                    -0.007067
    121 C                     0.015812
    122 C                    -0.031469
    123 C                     0.038708
    124 C                    -0.012648
    125 C                    -0.009333
    126 C                    -0.034141
    127 C                    -0.096959
    128 C                    -0.015577
    129 C                    -0.008889
    130 C                    -0.032079
    131 C                    -0.004584
    132 C                     0.023814
    133 C                    -0.072986
    134 C                     0.051250
    135 C                    -0.002611
    136 C                    -0.013314
    137 C                    -0.023825
    138 C                     0.012811
    139 C                    -0.015139
    140 C                     0.012754
    141 C                     0.045326
    142 C                     0.054942
    143 C                     0.015733
    144 C                    -0.013100
    145 C                    -0.008021
    146 C                     0.018744
    147 C                    -0.007785
    148 C                     0.026057
    149 C                     0.000587
    150 C                     0.009250
    151 C                    -0.006323
    152 C                    -0.001864
    153 C                    -0.023423
    154 C                     0.023830
    155 C                    -0.027815
    156 C                    -0.016583
    157 C                     0.006661
    158 C                     0.045098
    159 C                    -0.000718
    160 C                    -0.006976
    161 C                    -0.000830
    162 C                    -0.003497
    163 C                    -0.036824
    164 C                     0.010224
    165 C                     0.000800
    166 C                    -0.005270
    167 C                     0.012792
    168 C                     0.005979
    169 C                    -0.007312
    170 C                     0.005332
    171 C                    -0.016211
    172 C                    -0.013094
    173 C                    -0.022835
    174 C                     0.017496
    175 C                    -0.010402
    176 C                     0.005708
  ----------------------------------------
  Sum of atomic charges =     0.000000

                    Cartesian Multipole Moments
 -----------------------------------------------------------------
    Charge (ESU x 10^10)
                 0.0000
    Dipole Moment (Debye)
         X       2.4047      Y      -5.3739      Z       0.1613
       Tot       5.8896
    Quadrupole Moments (Debye-Ang)
        XX    -775.8155     XY       9.0698     YY    -794.7157
        XZ     -21.5915     YZ      -4.4692     ZZ    -791.6753

 Total job time:  863.16s(wall), 7328.81s(cpu)
        *  Thank you very much for using Q-Chem.  Have a nice day.  *
