 Q-Chem 4.4, Q-Chem, Inc., Pleasanton, CA (2016)
 Q-Chem 4.4.2 for Intel X86 Linux

User input:
--------------------------------------------------------------
$comment
SP
$end

$rem
MEM_STATIC 5000
MEM_TOTAL 20000
JOBTYPE SP
EXCHANGE B3LYP
BASIS 6-31g(d,p)
$end

$molecule
0 1
O          34.646000      4.808000     -3.640000
C          35.820000      4.563000     -2.858000
H          36.141000      3.566000     -3.183000
H          35.653000      4.815000     -1.803000
H          36.678000      5.163000     -3.186000
O          35.843000      4.615000     -5.557000
C          34.835000      4.802000     -4.978000
C          33.494000      4.915000     -5.630000
H          32.935000      5.814000     -5.341000
H          32.873000      4.039000     -5.404000
C          33.591000      4.849000     -7.219000
H          34.239000      5.647000     -7.603000
H          34.125000      3.972000     -7.604000
C          32.244000      4.792000     -7.855000
H          31.621000      5.607000     -7.467000
H          32.401000      4.958000     -8.928000
C          31.408000      3.497000     -7.732000
C          32.144000      2.204000     -8.018000
C          32.933000      1.556000     -7.064000
H          33.124000      1.903000     -6.052000
C          33.631000      0.405000     -7.403000
H          34.301000     -0.022000     -6.663000
C          33.617000     -0.148000     -8.685000
H          34.153000     -1.033000     -9.014000
C          32.897000      0.519000     -9.666000
H          32.941000      0.139000    -10.682000
C          32.222000      1.714000     -9.351000
H          31.727000      2.205000    -10.184000
C          26.632000      1.377000     -9.352000
C          27.143000      0.237000     -7.194000
C          23.947000      2.328000     -4.707000
C          26.759000      6.534000     -8.557000
C          26.124000      4.603000     -3.165000
C          27.525000      0.811000     -8.418000
C          25.936000      7.064000     -5.913000
C          23.860000      1.474000     -6.988000
C          29.289000      2.542000     -4.733000
C          27.696000      6.677000     -7.529000
C          30.291000      3.492000     -6.670000
C          29.345000      3.955000     -4.615000
C          28.252000      6.322000     -5.432000
C          25.514000      6.385000     -4.733000
C          29.080000      1.232000     -6.750000
C          24.025000      4.557000     -4.392000
C          29.976000      3.672000     -8.174000
C          29.198000      4.944000     -8.458000
C          24.950000      3.957000     -3.436000
C          23.798000      4.689000     -8.342000
C          23.074000      3.763000     -6.483000
C          23.317000      2.712000     -7.390000
C          24.844000      0.825000     -7.799000
C          28.152000      4.665000     -9.338000
C          29.716000      2.263000     -6.003000
C          25.760000      0.193000     -6.939000
C          27.333000      7.016000     -6.227000
C          28.063000      0.517000     -6.189000
C          28.372000      4.573000     -3.775000
C          25.781000      4.806000     -9.681000
C          24.206000      1.298000     -5.638000
C          29.809000      4.546000     -5.798000
C          24.698000      2.653000     -9.372000
C          27.880000      5.811000     -4.155000
C          28.243000      1.772000     -4.051000
C          23.930000      6.028000     -6.313000
C          24.975000      6.827000     -6.902000
C          27.263000      2.431000     -3.260000
C          27.022000      5.456000     -9.441000
C          28.897000      5.912000     -7.529000
C          24.813000      5.424000     -8.890000
C          29.068000      2.645000     -8.799000
C          26.242000      0.815000     -4.606000
C          29.242000      5.720000     -6.193000
C          27.349000      3.824000     -3.108000
C          25.727000      3.396000    -10.027000
C          24.891000      2.591000     -3.697000
C          25.267000      1.422000     -8.998000
C          23.363000      3.565000     -5.142000
C          27.648000      0.819000     -4.891000
C          26.078000      1.826000     -3.659000
C          28.750000      1.437000     -8.127000
C          28.032000      3.271000     -9.543000
C          23.363000      4.968000     -7.045000
C          25.337000      0.468000     -5.577000
C          26.491000      5.799000     -3.841000
C          25.414000      6.471000     -8.190000
C          24.357000      5.764000     -5.042000
C          26.885000      2.645000     -9.912000
C          23.792000      3.297000     -8.525000
O          28.566000      7.651000      4.686000
C          29.379000      8.743000      5.179000
H          29.897000      8.292000      6.035000
H          28.801000      9.649000      5.401000
H          30.151000      8.953000      4.428000
O          27.331000      7.557000      6.652000
C          27.557000      7.154000      5.510000
C          26.802000      6.005000      4.869000
H          25.970000      5.735000      5.531000
H          27.584000      5.237000      4.834000
C          26.454000      6.125000      3.318000
H          27.394000      6.511000      2.906000
H          26.258000      5.130000      2.901000
C          25.542000      7.247000      2.979000
H          24.522000      7.154000      3.373000
H          25.984000      8.068000      3.556000
C          25.479000      7.555000      1.460000
C          24.956000      6.397000      0.675000
C          23.584000      6.231000      0.355000
H          22.856000      6.997000      0.605000
C          23.127000      5.046000     -0.291000
H          22.093000      4.891000     -0.583000
C          24.016000      3.987000     -0.499000
H          23.668000      3.030000     -0.879000
C          25.357000      4.080000     -0.162000
H          25.960000      3.190000     -0.312000
C          25.831000      5.356000      0.325000
H          26.884000      5.291000      0.584000
C          28.819000      9.074000     -2.550000
C          26.705000      9.835000     -3.397000
C          27.465000     14.181000     -2.888000
C          29.743000     10.967000      2.048000
C          25.674000     14.351000      0.131000
C          27.455000      8.842000     -2.701000
C          28.432000     13.489000      2.220000
C          28.916000     12.514000     -3.773000
C          24.172000     10.660000     -0.439000
C          28.518000     11.073000      2.712000
C          25.248000      9.041000      0.919000
C          24.383000     11.202000      0.884000
C          26.505000     12.114000      2.617000
C          27.671000     14.479000      1.532000
C          25.434000      9.012000     -1.657000
C          27.784000     15.005000     -0.789000
C          26.640000      8.353000      0.967000
C          27.766000      8.966000      1.685000
C          26.428000     14.857000     -0.939000
C          30.896000     12.523000     -0.890000
C          29.671000     14.016000     -2.009000
C          29.915000     12.937000     -2.888000
C          28.636000     11.153000     -3.857000
C          29.008000      8.885000      1.036000
C          24.738000      9.380000     -0.446000
C          27.286000     10.946000     -3.950000
C          27.860000     12.353000      2.737000
C          25.445000      9.834000     -2.787000
C          24.735000     12.568000      1.050000
C          30.749000     10.322000      0.096000
C          27.678000     13.131000     -3.804000
C          25.154000     10.279000      1.664000
C          30.415000     10.633000     -2.273000
C          25.691000     13.035000      1.985000
C          24.214000     11.528000     -1.545000
C          29.625000     14.184000      0.397000
C          29.654000     13.343000      1.586000
C          24.506000     12.864000     -1.329000
C          30.049000      9.853000      1.194000
C          27.514000     10.077000      2.484000
C          30.918000     11.680000      0.278000
C          27.325000      8.128000     -0.337000
C          25.465000     12.262000     -3.219000
C          26.278000     10.723000      2.489000
C          24.679000     13.418000     -0.065000
C          30.464000      9.787000     -1.143000
C          26.195000     14.351000     -2.239000
C          29.412000     10.208000     -3.071000
C          28.422000     14.676000     -1.991000
C          24.874000     11.115000     -2.684000
C          25.226000     13.336000     -2.384000
C          26.723000      8.377000     -1.560000
C          28.711000      8.381000     -0.212000
C          30.288000     13.769000     -0.784000
C          26.678000     12.145000     -3.904000
C          26.262000     14.221000      1.404000
C          30.381000     12.095000      1.516000
C          28.403000     14.844000      0.414000
C          29.464000      8.821000     -1.325000
C          30.652000     11.973000     -2.158000
$end

--------------------------------------------------------------

             Standard Nuclear Orientation (Angstroms)
    I     Atom           X                Y                Z
 ----------------------------------------------------------------
    1      O       2.3875997942    -6.3959084345    -2.6194448519
    2      C       2.1240716877    -7.4065998342    -3.5986694593
    3      H       3.0973164469    -7.5554707112    -4.0816881967
    4      H       1.2117961625    -7.1808408586    -4.1654183023
    5      H       1.9721044176    -8.3971322510    -3.1520158127
    6      O       3.9184357281    -7.7292697296    -1.6076958710
    7      C       3.3136462244    -6.7225215482    -1.6911330061
    8      C       3.5730029951    -5.5088953167    -0.8568671997
    9      H       2.6780171062    -5.1125397216    -0.3607769853
   10      H       4.0136308128    -4.7051579290    -1.4601468511
   11      C       4.7062761262    -5.7608995459     0.2344035636
   12      H       4.4318519379    -6.5923614081     0.8958614509
   13      H       5.6484248143    -6.1476004057    -0.1722022585
   14      C       5.0786012848    -4.5058294214     0.9473740813
   15      H       4.1730845394    -4.0197606712     1.3303552736
   16      H       5.6967814446    -4.8070891257     1.8021429861
   17      C       5.8793018830    -3.4202311609     0.1914607471
   18      C       7.0735008117    -3.9101440757    -0.6017701491
   19      C       6.9591129186    -4.4470395026    -1.8867603088
   20      H       6.0333280576    -4.5935369154    -2.4367556717
   21      C       8.0826172996    -4.9339326244    -2.5406708483
   22      H       7.9429311109    -5.4219495040    -3.5004397235
   23      C       9.3553561173    -4.9477843727    -1.9666734345
   24      H      10.2655190981    -5.3288238545    -2.4196350904
   25      C       9.4793279310    -4.4847841059    -0.6644016724
   26      H      10.4495210053    -4.5610373851    -0.1832542562
   27      C       8.3416580709    -4.0316408659     0.0307554994
   28      H       8.5107254938    -3.7368244234     1.0624989131
   29      C       8.1706870716     1.4802655464     1.0061152379
   30      C       7.5785223906     1.4415308290    -1.4157694852
   31      C       4.1241639931     4.4049378280    -1.1759924634
   32      C       3.8712087893     0.4141620081     3.7666790834
   33      C       1.5780380370     1.9966855426    -1.2773904208
   34      C       8.0176995632     0.8235797135    -0.2330455826
   35      C       1.6288893842     1.3941584313     2.3664734928
   36      C       6.2890678102     4.4148760121    -0.0566450217
   37      C       4.3848165706    -0.8437943085    -2.1590017173
   38      C       3.1394773735    -0.4165887850     2.9124986252
   39      C       5.0791078067    -2.2171678373    -0.3450894179
   40      C       3.2760699591    -1.1672774417    -1.3345815490
   41      C       2.0182199861    -0.6621581175     1.0376526118
   42      C       1.2933197823     2.0672713653     1.1557559285
   43      C       6.6948683488    -0.5957862820    -1.5030880028
   44      C       2.2869497839     3.9185566921     0.0330680562
   45      C       5.9440951931    -2.1077680803     0.9329831600
   46      C       5.1487216349    -1.6339849506     2.1358274762
   47      C       2.1462869870     3.2398410473    -1.2511126363
   48      C       4.8526584553     3.6890795077     3.0390507966
   49      C       4.2145161079     4.7785103041     1.2380933056
   50      C       5.6161564650     4.6538628458     1.1595673836
   51      C       7.3871421447     3.4986620790    -0.1009483485
   52      C       5.8713337846    -0.6540626837     2.8169596454
   53      C       5.4820991015    -1.3405144419    -1.5091477672
   54      C       7.3343123619     2.8247788610    -1.3343057267
   55      C       1.9814159867     0.0092723072     2.2648643500
   56      C       6.7609735362     0.5975639634    -2.1601879161
   57      C       2.1818091575    -0.2524846304    -1.3339409910
   58      C       5.8236178511     1.5904281851     3.6649896740
   59      C       5.5279283604     4.2579426394    -1.2267863185
   60      C       3.6811426334    -1.8640835788    -0.1880897976
   61      C       7.1068852481     3.1075912851     2.2666978890
   62      C       1.4977893799    -0.0608104739    -0.1446193517
   63      C       4.4068871647     0.4017612390    -2.9337560442
   64      C       2.5075108035     3.5115813107     2.4097949811
   65      C       2.4010872454     2.2712093431     3.1360858376
   66      C       3.3153674071     1.3099378013    -2.8692428635
   67      C       5.2784813049     0.2778854518     3.6495391371
   68      C       3.7884950188    -1.4339385223     2.1565875140
   69      C       4.7629662530     2.4950876663     3.7001807321
   70      C       7.0508523386    -1.0857957055     0.9110951228
   71      C       5.3332658976     2.4819204258    -2.7272731136
   72      C       3.0484725437    -1.5882128112     0.9863947179
   73      C       2.2004227426     0.9648716526    -2.0890013957
   74      C       7.0849670310     1.8868755398     3.0078373232
   75      C       3.3174453302     3.5415193165    -1.9402689010
   76      C       7.7956153962     2.8388769452     1.0698514550
   77      C       3.4713008234     4.6805147747     0.0723172049
   78      C       5.6287837787     1.0810192959    -2.8179494949
   79      C       3.9396417839     2.5418876886    -2.7208111365
   80      C       7.4543186532    -0.4631172789    -0.2978128597
   81      C       7.0204154922    -0.2813728881     2.0818579208
   82      C       3.7364643775     4.1964920212     2.3712796369
   83      C       6.1778518985     3.3282819139    -2.0545014447
   84      C       1.1897207670     1.3282414165    -0.0838774765
   85      C       3.5677627023     1.7762135452     3.7462075781
   86      C       1.8703393397     3.2848041432     1.2223394485
   87      C       7.6425341043     0.9209713673     2.1866564123
   88      C       5.9938805944     3.9526938888     2.2649006256
   89      O      -5.7925504378    -0.1460863206    -5.5170629644
   90      C      -6.8643941252    -1.1026583257    -5.3364996547
   91      H      -7.0765818236    -1.4253791099    -6.3637720996
   92      H      -7.7204735024    -0.6963877575    -4.7830772796
   93      H      -6.4507944441    -1.9771316229    -4.8185066467
   94      O      -7.1496671929     1.2867507031    -6.7436147067
   95      C      -6.0635897923     1.0242733264    -6.2247789845
   96      C      -4.8453580796     1.9198146074    -6.3473526681
   97      H      -5.1592183010     2.8551283579    -6.8269858087
   98      H      -4.2017388626     1.3074235764    -6.9902403167
   99      C      -3.9070997172     2.0682671830    -5.0672206131
  100      H      -3.8395273164     1.0314917590    -4.7166914547
  101      H      -2.9115748660     2.4126913794    -5.3715760693
  102      C      -4.5655387714     2.6965583201    -3.8936545694
  103      H      -4.8410662697     3.7509279668    -4.0227833649
  104      H      -5.5239989841     2.1643859235    -3.8717328681
  105      C      -3.7651014210     2.5333798820    -2.5749935647
  106      C      -2.4252716613     3.1892717557    -2.6483424928
  107      C      -2.1894712191     4.5243585118    -2.2308721283
  108      H      -2.9734190373     5.1076437734    -1.7571167885
  109      C      -0.9192491751     5.1362754553    -2.4369876616
  110      H      -0.6852071881     6.1429539659    -2.1049218179
  111      C       0.0624320294     4.4590770995    -3.1668988888
  112      H       0.9937170773     4.9479552486    -3.4408684398
  113      C      -0.1338543377     3.1705603346    -3.6377440956
  114      H       0.6635629033     2.7444837327    -4.2384049592
  115      C      -1.3614806313     2.5068700384    -3.2602922789
  116      H      -1.4108996956     1.5219864438    -3.7160082663
  117      C      -1.9058642513    -1.4533508863     0.6175408404
  118      C      -2.0457315964     0.3631115145     2.1816468063
  119      C      -5.5110531038    -1.1886423485     4.4855573512
  120      C      -6.3392423867    -2.2367564850    -1.6868599442
  121      C      -7.8169484683     0.8462464083     2.7846704310
  122      C      -1.7358478021    -0.0947500263     0.8673790088
  123      C      -8.3975088331    -1.4439594506     0.1141956069
  124      C      -3.5837121234    -2.3647905231     3.7308738305
  125      C      -4.8445384536     2.9836394185     1.1111367969
  126      C      -6.9587005809    -0.9933696236    -1.8385756601
  127      C      -4.5016901200     2.4041113925    -1.1625613553
  128      C      -6.1223146867     2.8122026640     0.4580584421
  129      C      -7.8057551125     0.7496845824    -0.6599596685
  130      C      -8.7114483444    -0.9739263435     1.4230408466
  131      C      -2.7193544130     1.9520289292     0.6513057496
  132      C      -7.5132336147    -1.4381262617     3.4293523621
  133      C      -3.9272341323     1.1905307809    -1.9439283736
  134      C      -4.7781369902     0.0487187389    -2.3064178040
  135      C      -7.4047009331    -0.1039515141     3.7315747968
  136      C      -5.3976936520    -3.9855041664     1.2179217218
  137      C      -5.8216849844    -3.2100618753     3.2674962151
  138      C      -4.4184935667    -3.3270954296     3.1501293008
  139      C      -2.5527882854    -1.8298354394     2.9635433288
  140      C      -4.1858566025    -1.2145980429    -2.1529230121
  141      C      -3.8617921907     2.6866891514     0.1599084743
  142      C      -2.4393396634    -0.4836237061     3.1845441869
  143      C      -7.9605350854    -0.6048748315    -0.8807717020
  144      C      -2.5529636300     1.6561145116     2.0068328665
  145      C      -7.2071279711     2.2149283745     1.1536585866
  146      C      -4.4685386714    -3.2977528222    -0.9038405435
  147      C      -4.1062825606    -1.2852347934     4.4206372425
  148      C      -5.9190052011     2.3289579286    -0.8760741520
  149      C      -3.1140273065    -3.2888657008     1.0925707321
  150      C      -8.1112022018     1.2911082703     0.5744727783
  151      C      -4.7257339925     2.6509399957     2.4726141540
  152      C      -7.5798543908    -2.9403068906     1.6380028624
  153      C      -7.7693832673    -2.6732298421     0.2186397463
  154      C      -5.8270175124     2.1234573312     3.1251113935
  155      C      -4.9227868119    -2.4045193333    -1.8584910351
  156      C      -6.1510567408     0.1585740290    -2.1083037617
  157      C      -5.5720402530    -3.7134659196    -0.1859854884
  158      C      -2.8270720817     0.4280956779    -1.2892512193
  159      C      -4.0333139534     1.1063301699     3.9011686597
  160      C      -6.7190943139     1.2342687846    -1.4262105803
  161      C      -7.0763891261     1.9803049824     2.5308732461
  162      C      -3.2583876451    -3.0466101022    -0.2914413046
  163      C      -6.1704858875     0.0842096268     4.3961299910
  164      C      -2.3370926328    -2.3129212619     1.6096229199
  165      C      -6.4097461244    -2.1230985390     3.9520543214
  166      C      -3.6019288749     1.9680471461     2.8899981661
  167      C      -5.4026325452     1.2147639544     4.0461883428
  168      C      -2.2245784387     0.8334740370    -0.1090801317
  169      C      -2.9931593238    -0.9589119385    -1.5111856690
  170      C      -6.4258755316    -3.6302345213     2.0839710863
  171      C      -3.3924683935    -0.1254316181     4.0635351152
  172      C      -8.5413911409     0.4361583215     1.6488079502
  173      C      -6.7552589004    -3.1401441083    -0.7003139176
  174      C      -8.1652183203    -1.8797498810     2.3175180568
  175      C      -2.5035751058    -1.8996006777    -0.5758835845
  176      C      -4.1538419969    -3.7744222588     1.8328505701
 ----------------------------------------------------------------

    9   -5804.2749272836      9.03E-06 Convergence criterion met
 Total energy in the final basis set = -5804.2749272836

                    Orbital Energies (a.u.)
 --------------------------------------------------------------

 Alpha MOs
 -- Occupied --
-19.195 -19.192 -19.145 -19.139 -10.321 -10.316 -10.250 -10.246
-10.246 -10.245 -10.244 -10.243 -10.240 -10.239 -10.232 -10.229
-10.228 -10.227 -10.225 -10.225 -10.225 -10.224 -10.224 -10.224
-10.223 -10.223 -10.222 -10.222 -10.221 -10.221 -10.221 -10.220
-10.220 -10.220 -10.219 -10.219 -10.219 -10.219 -10.219 -10.218
-10.218 -10.218 -10.218 -10.218 -10.217 -10.217 -10.217 -10.217
-10.217 -10.217 -10.217 -10.217 -10.216 -10.216 -10.216 -10.216
-10.216 -10.216 -10.216 -10.216 -10.215 -10.215 -10.215 -10.215
-10.215 -10.215 -10.215 -10.215 -10.215 -10.215 -10.215 -10.215
-10.214 -10.214 -10.214 -10.214 -10.214 -10.214 -10.214 -10.214
-10.214 -10.213 -10.213 -10.213 -10.213 -10.213 -10.213 -10.213
-10.213 -10.213 -10.213 -10.212 -10.212 -10.212 -10.212 -10.212
-10.212 -10.212 -10.212 -10.211 -10.211 -10.211 -10.211 -10.211
-10.211 -10.210 -10.210 -10.210 -10.210 -10.210 -10.210 -10.210
-10.210 -10.209 -10.208 -10.208 -10.208 -10.208 -10.208 -10.208
-10.208 -10.208 -10.208 -10.208 -10.207 -10.207 -10.207 -10.206
-10.206 -10.206 -10.206 -10.205 -10.205 -10.205 -10.205 -10.204
-10.203 -10.203 -10.202 -10.202 -10.202 -10.200 -10.200 -10.200
-10.199 -10.199 -10.195 -10.191  -1.113  -1.082  -1.036  -1.005
 -0.986  -0.983  -0.967  -0.967  -0.965  -0.963  -0.962  -0.959
 -0.935  -0.934  -0.931  -0.927  -0.926  -0.923  -0.923  -0.922
 -0.922  -0.920  -0.897  -0.896  -0.893  -0.888  -0.888  -0.884
 -0.875  -0.874  -0.858  -0.852  -0.844  -0.843  -0.841  -0.839
 -0.838  -0.837  -0.825  -0.824  -0.808  -0.805  -0.801  -0.799
 -0.797  -0.795  -0.794  -0.794  -0.793  -0.790  -0.787  -0.783
 -0.774  -0.772  -0.768  -0.768  -0.767  -0.767  -0.767  -0.766
 -0.755  -0.751  -0.747  -0.744  -0.736  -0.732  -0.717  -0.716
 -0.714  -0.714  -0.714  -0.713  -0.712  -0.711  -0.710  -0.709
 -0.709  -0.707  -0.706  -0.705  -0.702  -0.701  -0.674  -0.674
 -0.661  -0.660  -0.659  -0.658  -0.650  -0.650  -0.631  -0.629
 -0.628  -0.626  -0.626  -0.625  -0.624  -0.623  -0.618  -0.617
 -0.617  -0.616  -0.614  -0.614  -0.612  -0.612  -0.611  -0.610
 -0.608  -0.607  -0.606  -0.603  -0.571  -0.566  -0.566  -0.564
 -0.561  -0.559  -0.558  -0.557  -0.557  -0.556  -0.554  -0.551
 -0.538  -0.537  -0.533  -0.532  -0.531  -0.528  -0.526  -0.525
 -0.523  -0.523  -0.521  -0.520  -0.517  -0.517  -0.516  -0.515
 -0.514  -0.505  -0.505  -0.501  -0.499  -0.490  -0.489  -0.487
 -0.486  -0.485  -0.483  -0.482  -0.480  -0.479  -0.479  -0.475
 -0.475  -0.474  -0.472  -0.471  -0.470  -0.469  -0.468  -0.467
 -0.466  -0.465  -0.465  -0.464  -0.464  -0.463  -0.461  -0.460
 -0.459  -0.457  -0.457  -0.453  -0.449  -0.448  -0.446  -0.446
 -0.444  -0.442  -0.440  -0.439  -0.437  -0.436  -0.436  -0.435
 -0.434  -0.433  -0.429  -0.428  -0.428  -0.427  -0.425  -0.425
 -0.424  -0.424  -0.422  -0.422  -0.420  -0.420  -0.419  -0.419
 -0.418  -0.418  -0.417  -0.417  -0.415  -0.415  -0.414  -0.413
 -0.413  -0.412  -0.411  -0.409  -0.406  -0.404  -0.400  -0.400
 -0.395  -0.394  -0.393  -0.392  -0.389  -0.387  -0.386  -0.386
 -0.379  -0.376  -0.375  -0.373  -0.372  -0.372  -0.369  -0.368
 -0.365  -0.363  -0.363  -0.362  -0.361  -0.361  -0.360  -0.359
 -0.359  -0.359  -0.357  -0.356  -0.355  -0.354  -0.353  -0.353
 -0.351  -0.351  -0.347  -0.347  -0.346  -0.346  -0.345  -0.345
 -0.342  -0.341  -0.340  -0.339  -0.339  -0.337  -0.336  -0.334
 -0.332  -0.331  -0.330  -0.330  -0.329  -0.327  -0.327  -0.325
 -0.313  -0.313  -0.304  -0.299  -0.286  -0.284  -0.283  -0.273
 -0.272  -0.271  -0.268  -0.267  -0.266  -0.266  -0.265  -0.265
 -0.264  -0.262  -0.262  -0.259  -0.258  -0.258  -0.257  -0.253
 -0.252  -0.250  -0.245  -0.244  -0.223  -0.222  -0.213  -0.210
 -0.210  -0.208  -0.207  -0.206  -0.201  -0.200

          Ground-State Mulliken Net Atomic Charges

     Atom                 Charge (a.u.)
  ----------------------------------------
      1 O                    -0.463701
      2 C                    -0.093324
      3 H                     0.126152
      4 H                     0.127250
      5 H                     0.128707
      6 O                    -0.448662
      7 C                     0.613093
      8 C                    -0.282130
      9 H                     0.134132
     10 H                     0.136628
     11 C                    -0.187082
     12 H                     0.110891
     13 H                     0.122081
     14 C                    -0.178813
     15 H                     0.100688
     16 H                     0.108704
     17 C                     0.023709
     18 C                     0.070676
     19 C                    -0.093881
     20 H                     0.094149
     21 C                    -0.095786
     22 H                     0.089130
     23 C                    -0.070800
     24 H                     0.094009
     25 C                    -0.088145
     26 H                     0.092494
     27 C                    -0.105673
     28 H                     0.092410
     29 C                    -0.015896
     30 C                     0.002437
     31 C                     0.000677
     32 C                    -0.046723
     33 C                     0.020749
     34 C                     0.016977
     35 C                    -0.028739
     36 C                    -0.014804
     37 C                    -0.007209
     38 C                     0.011804
     39 C                    -0.098162
     40 C                    -0.012004
     41 C                    -0.000921
     42 C                     0.008994
     43 C                    -0.010104
     44 C                    -0.024078
     45 C                    -0.107814
     46 C                     0.042401
     47 C                     0.018784
     48 C                    -0.023460
     49 C                     0.005155
     50 C                    -0.008137
     51 C                     0.012584
     52 C                     0.011537
     53 C                     0.047830
     54 C                    -0.026468
     55 C                     0.004493
     56 C                     0.021578
     57 C                    -0.005375
     58 C                     0.002311
     59 C                     0.010414
     60 C                     0.072950
     61 C                    -0.002173
     62 C                    -0.007798
     63 C                    -0.030378
     64 C                    -0.019695
     65 C                    -0.014959
     66 C                    -0.013994
     67 C                    -0.022389
     68 C                     0.002278
     69 C                     0.026827
     70 C                     0.017299
     71 C                     0.022187
     72 C                    -0.010507
     73 C                    -0.008931
     74 C                    -0.041463
     75 C                    -0.014351
     76 C                    -0.003230
     77 C                    -0.022104
     78 C                    -0.001862
     79 C                     0.014742
     80 C                    -0.022945
     81 C                     0.036629
     82 C                     0.011511
     83 C                    -0.027292
     84 C                    -0.017108
     85 C                     0.024078
     86 C                     0.045579
     87 C                     0.007893
     88 C                     0.032229
     89 O                    -0.485016
     90 C                    -0.078047
     91 H                     0.124973
     92 H                     0.134671
     93 H                     0.125522
     94 O                    -0.474807
     95 C                     0.596496
     96 C                    -0.255828
     97 H                     0.134195
     98 H                     0.136701
     99 C                    -0.198874
    100 H                     0.125815
    101 H                     0.112577
    102 C                    -0.166692
    103 H                     0.105628
    104 H                     0.112852
    105 C                     0.010436
    106 C                     0.103602
    107 C                    -0.115364
    108 H                     0.095262
    109 C                    -0.085733
    110 H                     0.095974
    111 C                    -0.075904
    112 H                     0.090655
    113 C                    -0.099471
    114 H                     0.100273
    115 C                    -0.124618
    116 H                     0.093791
    117 C                    -0.010858
    118 C                     0.010912
    119 C                     0.011550
    120 C                    -0.004411
    121 C                     0.014700
    122 C                    -0.025700
    123 C                     0.019719
    124 C                    -0.013264
    125 C                    -0.009492
    126 C                    -0.029888
    127 C                    -0.096249
    128 C                    -0.016914
    129 C                     0.001449
    130 C                    -0.032780
    131 C                    -0.002797
    132 C                     0.024933
    133 C                    -0.073949
    134 C                     0.052311
    135 C                    -0.002890
    136 C                    -0.013242
    137 C                    -0.023180
    138 C                     0.012539
    139 C                    -0.015483
    140 C                     0.013578
    141 C                     0.046159
    142 C                     0.054472
    143 C                     0.012538
    144 C                    -0.010967
    145 C                    -0.004595
    146 C                     0.017984
    147 C                    -0.007593
    148 C                     0.025763
    149 C                    -0.000142
    150 C                    -0.006128
    151 C                    -0.006110
    152 C                     0.000818
    153 C                    -0.019584
    154 C                     0.022980
    155 C                    -0.027561
    156 C                    -0.016309
    157 C                     0.005765
    158 C                     0.041911
    159 C                    -0.000867
    160 C                    -0.001183
    161 C                    -0.000045
    162 C                    -0.004910
    163 C                    -0.037253
    164 C                     0.009879
    165 C                    -0.000562
    166 C                    -0.006368
    167 C                     0.012801
    168 C                     0.011954
    169 C                    -0.007140
    170 C                     0.004938
    171 C                    -0.015676
    172 C                    -0.019801
    173 C                    -0.018313
    174 C                     0.018256
    175 C                    -0.008897
    176 C                     0.005364
  ----------------------------------------
  Sum of atomic charges =     0.000000

                    Cartesian Multipole Moments
 -----------------------------------------------------------------
    Charge (ESU x 10^10)
                 0.0000
    Dipole Moment (Debye)
         X       2.7917      Y      -1.7031      Z      -1.5822
       Tot       3.6328
    Quadrupole Moments (Debye-Ang)
        XX    -825.5914     XY      -8.0938     YY    -800.7848
        XZ     -15.6504     YZ      10.2423     ZZ    -808.9649

 Total job time:  864.54s(wall), 7324.37s(cpu)
        *  Thank you very much for using Q-Chem.  Have a nice day.  *
