 Q-Chem 4.4, Q-Chem, Inc., Pleasanton, CA (2016)
 Q-Chem 4.4.2 for Intel X86 Linux

User input:
--------------------------------------------------------------
$comment
SP
$end

$rem
MEM_STATIC 5000
MEM_TOTAL 20000
JOBTYPE SP
EXCHANGE B3LYP
BASIS 6-31g(d,p)
$end

$molecule
0 1
O          -8.828000     15.822000     -1.054000
C          -7.683000     15.198000     -1.780000
H          -6.793000     15.836000     -1.842000
H          -7.925000     14.938000     -2.818000
H          -7.557000     14.248000     -1.246000
O          -9.939000     13.802000     -0.883000
C          -9.900000     15.003000     -0.753000
C         -11.107000     15.813000     -0.348000
H         -11.975000     15.149000     -0.446000
H         -11.241000     16.579000     -1.122000
C         -11.033000     16.467000      1.017000
H         -11.315000     15.674000      1.722000
H         -10.035000     16.835000      1.285000
C         -12.104000     17.625000      1.023000
H         -12.002000     18.230000      0.114000
H         -13.137000     17.259000      1.057000
C         -12.022000     18.493000      2.307000
C         -12.841000     17.932000      3.434000
C         -12.275000     17.050000      4.272000
H         -11.232000     16.773000      4.152000
C         -13.009000     16.492000      5.299000
H         -12.634000     15.697000      5.936000
C         -14.392000     16.805000      5.443000
H         -15.042000     16.331000      6.172000
C         -15.001000     17.670000      4.481000
H         -16.068000     17.867000      4.517000
C         -14.210000     18.370000      3.588000
H         -14.715000     19.087000      2.947000
C         -12.437000     23.641000      4.199000
C         -10.953000     22.554000      5.845000
C          -7.140000     24.680000      4.398000
C         -10.720000     22.922000     -0.602000
C          -6.039000     21.961000      2.435000
C         -12.058000     22.496000      4.942000
C          -7.872000     22.916000     -0.462000
C          -9.410000     25.545000      4.745000
C          -8.797000     19.538000      4.080000
C         -10.026000     21.714000     -0.592000
C         -10.738000     19.218000      2.662000
C          -8.368000     19.389000      2.782000
C          -8.234000     20.586000      0.143000
C          -6.697000     22.943000      0.346000
C         -10.885000     20.481000      4.923000
C          -6.379000     24.400000      2.321000
C         -11.900000     19.947000      2.148000
C         -11.769000     20.753000      0.840000
C          -5.988000     23.236000      3.061000
C          -9.951000     25.875000      1.222000
C          -8.125000     25.967000      2.628000
C          -9.315000     26.083000      3.463000
C         -10.585000     24.899000      5.180000
C         -12.392000     21.980000      0.984000
C         -10.191000     19.509000      4.076000
C         -10.202000     23.763000      5.921000
C          -8.644000     21.736000     -0.573000
C         -10.229000     21.345000      5.789000
C          -7.206000     20.029000      2.301000
C         -11.916000     24.354000      0.740000
C          -8.289000     24.799000      5.215000
C          -9.483000     19.233000      1.890000
C         -11.602000     25.320000      3.018000
C          -7.100000     20.632000      1.002000
C          -8.111000     20.439000      4.935000
C          -7.824000     24.898000      0.501000
C          -8.588000     24.066000     -0.291000
C          -6.972000     21.073000      4.493000
C         -11.805000     23.078000      0.249000
C         -10.497000     20.653000      0.208000
C         -10.690000     25.026000      0.374000
C         -12.397000     21.070000      3.062000
C          -8.149000     22.466000      5.884000
C          -9.394000     19.918000      0.640000
C          -6.518000     20.877000      3.179000
C         -12.283000     24.487000      2.115000
C          -6.470000     23.428000      4.348000
C         -11.688000     24.829000      4.313000
C          -7.103000     25.240000      3.145000
C          -8.817000     21.276000      5.834000
C          -7.024000     22.362000      5.055000
C         -11.971000     21.183000      4.388000
C         -12.821000     22.195000      2.312000
C          -8.544000     25.798000      1.328000
C          -8.798000     23.725000      5.916000
C          -6.354000     21.822000      1.091000
C          -9.970000     24.070000     -0.390000
C          -6.667000     24.211000      0.953000
C         -12.769000     23.432000      2.885000
C         -10.440000     26.020000      2.588000
O          -5.408000     27.435000      1.912000
C          -5.410000     28.343000      3.022000
H          -5.635000     29.331000      2.603000
H          -4.515000     28.216000      3.644000
H          -6.215000     28.095000      3.725000
O          -3.684000     28.447000      0.710000
C          -4.502000     27.555000      0.852000
C          -4.774000     26.506000     -0.263000
H          -5.849000     26.557000     -0.475000
H          -4.473000     25.526000      0.127000
C          -3.967000     26.686000     -1.573000
H          -4.096000     27.731000     -1.880000
H          -2.930000     26.386000     -1.375000
C          -4.600000     25.824000     -2.623000
H          -5.241000     25.038000     -2.206000
H          -5.336000     26.472000     -3.116000
C          -3.585000     25.220000     -3.639000
C          -3.013000     26.237000     -4.615000
C          -1.912000     27.031000     -4.255000
H          -1.444000     26.793000     -3.304000
C          -1.589000     28.111000     -5.050000
H          -0.756000     28.765000     -4.810000
C          -2.380000     28.413000     -6.191000
H          -2.255000     29.383000     -6.663000
C          -3.432000     27.627000     -6.606000
H          -4.122000     27.950000     -7.380000
C          -3.684000     26.526000     -5.830000
H          -4.672000     26.075000     -5.827000
C          -3.041000     21.473000     -7.561000
C          -0.761000     21.907000     -6.856000
C          -0.119000     17.892000     -4.806000
C          -5.859000     20.137000     -3.619000
C          -0.706000     19.183000     -1.560000
C          -2.052000     22.393000     -7.101000
C          -4.297000     18.774000     -1.749000
C          -1.222000     18.403000     -6.910000
C          -0.665000     22.973000     -2.962000
C          -5.363000     20.833000     -2.505000
C          -2.736000     24.023000     -3.318000
C          -1.486000     22.570000     -1.900000
C          -3.667000     21.039000     -1.110000
C          -2.984000     18.293000     -1.529000
C          -1.299000     23.518000     -5.258000
C          -1.378000     17.373000     -3.005000
C          -3.927000     23.871000     -4.181000
C          -4.964000     22.839000     -3.840000
C          -0.422000     18.270000     -2.567000
C          -4.399000     17.671000     -5.696000
C          -2.292000     16.978000     -5.236000
C          -2.321000     17.566000     -6.550000
C          -1.472000     19.636000     -7.640000
C          -5.409000     22.174000     -4.986000
C          -1.370000     23.874000     -3.855000
C          -0.486000     20.514000     -7.118000
C          -4.624000     20.138000     -1.533000
C          -0.296000     22.593000     -5.728000
C          -1.234000     21.283000     -1.256000
C          -5.667000     19.809000     -5.894000
C          -0.126000     18.529000     -6.073000
C          -2.736000     23.143000     -2.060000
C          -3.868000     19.285000     -7.431000
C          -2.329000     20.577000     -0.873000
C           0.310000     22.029000     -3.472000
C          -3.823000     17.249000     -3.370000
C          -4.799000     18.144000     -2.882000
C           0.637000     20.790000     -2.806000
C          -5.871000     20.828000     -4.887000
C          -4.898000     22.133000     -2.641000
C          -5.433000     18.590000     -5.185000
C          -3.636000     23.474000     -5.624000
C           0.804000     20.554000     -5.031000
C          -3.809000     22.286000     -1.750000
C          -0.225000     20.480000     -1.751000
C          -4.832000     20.208000     -6.916000
C           0.409000     18.574000     -3.690000
C          -2.739000     20.127000     -7.754000
C          -1.187000     17.147000     -4.336000
C           0.518000     21.903000     -4.800000
C           0.937000     19.873000     -3.831000
C          -2.362000     23.398000     -6.169000
C          -4.576000     22.504000     -6.023000
C          -3.639000     17.061000     -4.756000
C           0.353000     19.860000     -6.195000
C          -2.000000     19.252000     -1.104000
C          -5.645000     18.775000     -3.769000
C          -2.692000     17.345000     -2.532000
C          -4.293000     21.496000     -7.014000
C          -3.621000     18.014000     -6.891000
$end

--------------------------------------------------------------

             Standard Nuclear Orientation (Angstroms)
    I     Atom           X                Y                Z
 ----------------------------------------------------------------
    1      O       1.5687694185    -6.0735947537     0.5721931854
    2      C       0.2374368933    -6.6233123934     0.1812440531
    3      H      -0.4542737524    -5.8732932393    -0.2212427806
    4      H      -0.2963778975    -7.0884321869     1.0192854283
    5      H       0.5116010135    -7.4386095101    -0.4996793249
    6      O       2.4970259332    -8.1850486974     0.7273192194
    7      C       2.5568559115    -6.9882022019     0.8848020433
    8      C       3.7135897194    -6.3210206018     1.5875179249
    9      H       4.2797708397    -7.1197409307     2.0829054249
   10      H       3.2811099542    -5.7263273475     2.4018208083
   11      C       4.5934617174    -5.4438880074     0.7198309543
   12      H       5.2820404507    -6.1416217278     0.2254374031
   13      H       4.0490201575    -4.8843715410    -0.0507381288
   14      C       5.3777554777    -4.4836289686     1.6949344750
   15      H       4.6809077259    -4.0313043635     2.4108364672
   16      H       6.1544043488    -4.9960173185     2.2749997385
   17      C       6.1962319018    -3.4105471865     0.9285169438
   18      C       7.5650206716    -3.8958245562     0.5457191148
   19      C       7.7263980363    -4.5249900215    -0.6284325634
   20      H       6.8839781932    -4.6512904857    -1.3017489829
   21      C       8.9647709140    -5.0108051312    -0.9962168685
   22      H       9.1277906135    -5.6189443443    -1.8805303169
   23      C      10.0714903072    -4.8987163303    -0.1051488098
   24      H      11.0446167744    -5.3396071348    -0.2981699937
   25      C       9.8566083489    -4.3136379990     1.1817307846
   26      H      10.6590838924    -4.2830542221     1.9122727989
   27      C       8.6683030238    -3.6582026409     1.4490600674
   28      H       8.5973750662    -3.1470218816     2.4049148975
   29      C       7.7906687783     1.8523558154     1.0443445730
   30      C       7.8358482971     1.3030685799    -1.3617691700
   31      C       4.0641936736     3.7270125997    -2.3873279398
   32      C       3.2534006518     0.6161514363     3.1418782869
   33      C       1.9195685517     0.9238215567    -2.3521987080
   34      C       8.0235250157     0.9219740436     0.0018078919
   35      C       1.2727349180     1.0800695399     1.1437583596
   36      C       5.9562363233     4.2714269017    -0.9226362727
   37      C       5.0577062118    -1.5906582682    -2.2381757439
   38      C       2.7549586889    -0.4491624061     2.3951105674
   39      C       5.5025996570    -2.4441540553    -0.0123680784
   40      C       3.8566528930    -1.8862190685    -1.6372092400
   41      C       1.9521069341    -1.1429288046     0.4207777069
   42      C       0.9690209004     1.4260227548    -0.2061646637
   43      C       7.1564703138    -0.8585955341    -1.2287623511
   44      C       2.0880048929     3.2252822806    -1.4848898035
   45      C       5.9976046534    -2.0029365648     1.2938394777
   46      C       5.0064174831    -1.4173751477     2.3196692981
   47      C       2.3100698739     2.2777849808    -2.5376542649
   48      C       3.9393329479     3.9167950571     2.0132532057
   49      C       3.5702078280     4.5283466589    -0.1797646429
   50      C       5.0092492279     4.5948665591     0.0472066162
   51      C       7.1110286117     3.5315404326    -0.5967700682
   52      C       5.5584800805    -0.2966070590     2.9142277730
   53      C       6.0713554700    -1.8379891530    -1.3132781200
   54      C       7.3395943278     2.6102095510    -1.6384864980
   55      C       1.7603288455    -0.2080084108     1.4659576063
   56      C       7.2703631930     0.2304096474    -2.0819236059
   57      C       2.6798599154    -1.1619267304    -1.9231531105
   58      C       5.0430340766     2.0476437457     3.3152160291
   59      C       5.4610208128     3.7998570974    -2.1742114873
   60      C       4.0592068105    -2.3624178849    -0.2972720781
   61      C       6.3725979938     3.4192230236     1.7114498135
   62      C       1.7131795356    -0.7763513905    -0.9336549041
   63      C       5.1421757619    -0.4627857908    -3.0950249546
   64      C       1.8956510871     3.1782191672     0.8834881386
   65      C       1.9111283625     2.1158510257     1.7634417657
   66      C       4.0088474305     0.2586057231    -3.3946950682
   67      C       4.6268131156     0.7407404491     3.2967258958
   68      C       3.6465141254    -1.4214164009     1.8977042212
   69      C       3.8982660585     2.8324033272     2.9123828331
   70      C       6.9848522678    -0.8344660540     1.2342339978
   71      C       5.8181866440     1.6633374346    -3.2777359771
   72      C       3.1384086562    -1.8914756837     0.6876087280
   73      C       2.7786437617    -0.0814667574    -2.8098210293
   74      C       6.2515915003     2.3502651296     2.6146360896
   75      C       3.5422118907     2.6050470656    -3.0856347194
   76      C       7.3218927214     3.1451194086     0.7371763773
   77      C       3.1793293051     4.0676416113    -1.3943702741
   78      C       6.2717083526     0.3920567773    -3.0704015850
   79      C       4.4306363015     1.5993184203    -3.4629051241
   80      C       7.5817069005    -0.4352711936     0.0355142595
   81      C       6.7800266284     0.0682241498     2.3071262820
   82      C       2.9860769537     4.0801061974     0.9829879578
   83      C       6.3125338731     2.7923868193    -2.5790412626
   84      C       1.2294795208     0.5136945054    -1.2206268229
   85      C       2.8509906044     1.8865812340     2.7553265013
   86      C       1.3618338443     2.7666949178    -0.3657552098
   87      C       7.1335478425     1.3764674196     2.1498866619
   88      C       5.2306742548     4.2104691339     1.4030932549
   89      O       1.0983368707     6.2627629599    -1.1448672621
   90      C       1.8589481751     7.3324224082    -1.7226796089
   91      H       1.7356492932     8.1884850726    -1.0486735997
   92      H       1.6321746902     7.4534087036    -2.7894382990
   93      H       2.9271580094     7.0828460886    -1.7421066652
   94      O      -0.9818861839     7.3162230524    -1.2082539822
   95      C      -0.2877690574     6.3436908861    -0.9688075369
   96      C      -0.8519450590     5.0930234917    -0.2372704512
   97      H      -0.2132827735     4.9386464176     0.6410507907
   98      H      -0.8039104326     4.2517908081    -0.9394963740
   99      C      -2.3370060124     5.1748941572     0.1959040620
  100      H      -2.4536791729     6.1202673735     0.7395692674
  101      H      -2.9573973519     5.0786179425    -0.7043283949
  102      C      -2.5935996996     4.0605702872     1.1647564720
  103      H      -1.8403852883     3.2650785961     1.1154916756
  104      H      -2.3947724557     4.4932266463     2.1536574792
  105      C      -4.0286376329     3.4612953538     1.0707741104
  106      C      -5.1142615976     4.3770235929     1.6156698797
  107      C      -5.6710865935     5.3827374388     0.8089961016
  108      H      -5.3612988723     5.3839745601    -0.2322046654
  109      C      -6.4513239383     6.3511318337     1.4058176677
  110      H      -6.8947952503     7.1584579004     0.8306978390
  111      C      -6.6556857212     6.3296967804     2.8117133965
  112      H      -7.0704334915     7.2141920844     3.2860142970
  113      C      -6.1722336886     5.3302201576     3.6266033355
  114      H      -6.1990711485     5.4066213717     4.7096303920
  115      C      -5.4567539650     4.3493244293     2.9911402482
  116      H      -4.7340811761     3.7560566485     3.5437082354
  117      C      -7.1072933451    -0.7583783625     2.6309861900
  118      C      -8.2873996587     0.1395743711     0.7114000427
  119      C      -7.3500914715    -3.3236761842    -2.0925682085
  120      C      -2.3539747986    -1.8389271279     1.4047067924
  121      C      -4.7012944032    -1.6145603742    -3.7082919593
  122      C      -7.5140926528     0.3691972951     1.8569006265
  123      C      -2.2121963440    -2.6070410862    -1.2756687069
  124      C      -7.9861768269    -3.3521425008     0.2524544118
  125      C      -5.6929539867     1.8454361110    -1.8707880565
  126      C      -1.9535943671    -0.8969002008     0.4436090978
  127      C      -4.4272475522     2.4831514308     0.0026001554
  128      C      -4.3672863146     1.5027208164    -2.1698623783
  129      C      -2.2355316699    -0.1966090701    -1.6288244210
  130      C      -3.0186566538    -2.8325444257    -2.4169399335
  131      C      -6.8024142332     1.8913407967     0.3058119806
  132      C      -5.1992340483    -3.7239459576    -2.6508149761
  133      C      -4.1494364480     2.0038021561     1.3735119918
  134      C      -3.1593669521     0.8940782622     1.5855244267
  135      C      -5.5970162822    -2.6276179138    -3.3925852334
  136      C      -4.8385189911    -4.3587465593     1.3396284634
  137      C      -6.0595054625    -4.6259071745    -0.5495817531
  138      C      -6.9380141349    -4.2786017228     0.5370563816
  139      C      -8.3042419615    -2.3137161252     1.2200257180
  140      C      -3.6188508195    -0.0151536380     2.5424663932
  141      C      -5.7906394024     2.4620861699    -0.5606448336
  142      C      -8.6663961975    -1.2170872772     0.3943057419
  143      C      -1.8267519230    -1.2944704664    -0.8979492790
  144      C      -7.8548294888     1.0693595351    -0.2412738768
  145      C      -4.1095062843     0.3976219471    -3.0901421971
  146      C      -4.0507875201    -2.5097536267     2.8156963022
  147      C      -8.2125023092    -2.9173469472    -1.0426867399
  148      C      -3.5657494826     1.8377050832    -1.0920157993
  149      C      -6.4140637088    -2.9957224214     2.5874289450
  150      C      -3.0485958898    -0.3968503777    -2.7944517169
  151      C      -6.7523193049     0.9938640687    -2.3751997726
  152      C      -3.6663111094    -4.2889914765    -0.7913804316
  153      C      -2.6212447027    -3.4889584060    -0.2819412385
  154      C      -6.5341934071    -0.0490736143    -3.3500372370
  155      C      -3.2134563336    -1.3809912885     2.4710253461
  156      C      -2.3864719979     0.4184286250     0.5287445005
  157      C      -3.7354374570    -3.5405841546     1.8768987946
  158      C      -5.3489659630     1.4209141663     2.1123689023
  159      C      -8.1786125649    -0.6258861171    -1.9367492373
  160      C      -2.5707518699     0.8874656955    -0.7938499783
  161      C      -5.1834781137    -0.3088715239    -3.5954801880
  162      C      -5.3592841371    -2.1620270473     3.0761436659
  163      C      -6.9716652866    -2.3899255570    -3.0796180496
  164      C      -7.4587795084    -2.0534884396     2.2577351147
  165      C      -6.2493007777    -4.1372803600    -1.8855486593
  166      C      -7.8127864834     0.6810261558    -1.6004315469
  167      C      -7.4538978446    -1.0665370125    -3.0331366518
  168      C      -6.6507985536     1.4551411531     1.6328509991
  169      C      -4.9361146386     0.2625857780     2.7990494165
  170      C      -4.7489386977    -4.6756648290     0.0262975145
  171      C      -8.6460239950    -1.5673035273    -0.9696955600
  172      C      -3.4457875442    -1.6736656756    -3.1539075345
  173      C      -2.6118611062    -3.1561851367     1.0559002691
  174      C      -3.9174531265    -3.8777425990    -2.1174358784
  175      C      -5.8201009964    -0.8404070574     3.0822612177
  176      C      -6.2238255594    -4.1034799311     1.7479453264
 ----------------------------------------------------------------

    9   -5804.2492397127      9.01E-06 Convergence criterion met
 Total energy in the final basis set = -5804.2492397127

                    Orbital Energies (a.u.)
 --------------------------------------------------------------

 Alpha MOs
 -- Occupied --
-19.190 -19.187 -19.141 -19.136 -10.322 -10.314 -10.246 -10.244
-10.241 -10.239 -10.238 -10.238 -10.236 -10.236 -10.234 -10.231
-10.230 -10.229 -10.228 -10.228 -10.228 -10.228 -10.227 -10.227
-10.226 -10.224 -10.224 -10.224 -10.224 -10.223 -10.223 -10.223
-10.223 -10.223 -10.222 -10.222 -10.222 -10.221 -10.221 -10.221
-10.220 -10.220 -10.220 -10.220 -10.220 -10.220 -10.220 -10.219
-10.219 -10.219 -10.219 -10.219 -10.219 -10.218 -10.218 -10.218
-10.218 -10.218 -10.218 -10.218 -10.218 -10.218 -10.217 -10.217
-10.217 -10.217 -10.217 -10.217 -10.217 -10.217 -10.217 -10.217
-10.216 -10.216 -10.216 -10.216 -10.216 -10.216 -10.216 -10.216
-10.216 -10.216 -10.216 -10.216 -10.216 -10.216 -10.216 -10.216
-10.216 -10.215 -10.215 -10.215 -10.215 -10.215 -10.215 -10.215
-10.215 -10.215 -10.214 -10.214 -10.214 -10.214 -10.214 -10.214
-10.214 -10.213 -10.213 -10.213 -10.212 -10.212 -10.212 -10.212
-10.212 -10.212 -10.211 -10.211 -10.210 -10.210 -10.210 -10.210
-10.210 -10.209 -10.209 -10.209 -10.209 -10.208 -10.208 -10.207
-10.207 -10.206 -10.206 -10.205 -10.205 -10.204 -10.203 -10.203
-10.202 -10.201 -10.201 -10.200 -10.199 -10.198 -10.197 -10.197
-10.196 -10.194 -10.194 -10.191  -1.082  -1.081  -1.013  -1.007
 -0.984  -0.983  -0.967  -0.966  -0.965  -0.962  -0.962  -0.959
 -0.939  -0.938  -0.929  -0.928  -0.926  -0.924  -0.923  -0.921
 -0.919  -0.919  -0.900  -0.896  -0.893  -0.891  -0.885  -0.885
 -0.878  -0.874  -0.858  -0.857  -0.843  -0.842  -0.839  -0.839
 -0.837  -0.835  -0.824  -0.820  -0.810  -0.809  -0.798  -0.798
 -0.797  -0.795  -0.795  -0.793  -0.792  -0.789  -0.786  -0.784
 -0.772  -0.772  -0.769  -0.768  -0.767  -0.766  -0.764  -0.762
 -0.757  -0.755  -0.742  -0.739  -0.733  -0.733  -0.718  -0.717
 -0.715  -0.713  -0.713  -0.712  -0.711  -0.711  -0.711  -0.708
 -0.708  -0.706  -0.706  -0.703  -0.701  -0.700  -0.675  -0.672
 -0.661  -0.659  -0.657  -0.656  -0.649  -0.645  -0.633  -0.631
 -0.629  -0.629  -0.628  -0.624  -0.623  -0.620  -0.619  -0.616
 -0.616  -0.615  -0.614  -0.614  -0.612  -0.611  -0.610  -0.608
 -0.606  -0.605  -0.603  -0.601  -0.568  -0.565  -0.563  -0.562
 -0.560  -0.559  -0.558  -0.558  -0.557  -0.556  -0.555  -0.554
 -0.539  -0.536  -0.535  -0.533  -0.529  -0.529  -0.527  -0.525
 -0.524  -0.523  -0.522  -0.520  -0.518  -0.516  -0.515  -0.514
 -0.507  -0.507  -0.498  -0.498  -0.494  -0.492  -0.487  -0.486
 -0.484  -0.483  -0.483  -0.482  -0.480  -0.480  -0.477  -0.474
 -0.474  -0.473  -0.471  -0.469  -0.469  -0.467  -0.467  -0.466
 -0.465  -0.465  -0.464  -0.464  -0.463  -0.462  -0.461  -0.460
 -0.457  -0.455  -0.454  -0.452  -0.450  -0.449  -0.444  -0.444
 -0.443  -0.441  -0.440  -0.440  -0.438  -0.436  -0.435  -0.435
 -0.432  -0.432  -0.431  -0.429  -0.428  -0.427  -0.426  -0.425
 -0.425  -0.424  -0.423  -0.422  -0.422  -0.420  -0.420  -0.418
 -0.418  -0.417  -0.417  -0.415  -0.415  -0.414  -0.414  -0.412
 -0.412  -0.410  -0.410  -0.408  -0.401  -0.399  -0.397  -0.397
 -0.394  -0.394  -0.393  -0.392  -0.390  -0.388  -0.386  -0.383
 -0.383  -0.380  -0.377  -0.373  -0.372  -0.369  -0.369  -0.368
 -0.366  -0.364  -0.364  -0.364  -0.362  -0.361  -0.361  -0.359
 -0.358  -0.356  -0.356  -0.355  -0.355  -0.354  -0.354  -0.351
 -0.351  -0.349  -0.348  -0.347  -0.347  -0.346  -0.344  -0.344
 -0.343  -0.342  -0.341  -0.341  -0.338  -0.337  -0.335  -0.335
 -0.333  -0.332  -0.331  -0.329  -0.328  -0.327  -0.326  -0.323
 -0.312  -0.309  -0.300  -0.295  -0.292  -0.288  -0.273  -0.272
 -0.271  -0.270  -0.269  -0.268  -0.268  -0.267  -0.266  -0.266
 -0.264  -0.263  -0.262  -0.261  -0.259  -0.258  -0.258  -0.257
 -0.247  -0.246  -0.246  -0.243  -0.224  -0.223  -0.215  -0.214
 -0.211  -0.206  -0.206  -0.204  -0.202  -0.199

          Ground-State Mulliken Net Atomic Charges

     Atom                 Charge (a.u.)
  ----------------------------------------
      1 O                    -0.484112
      2 C                    -0.097156
      3 H                     0.130177
      4 H                     0.126718
      5 H                     0.140928
      6 O                    -0.461937
      7 C                     0.584267
      8 C                    -0.241188
      9 H                     0.131918
     10 H                     0.123560
     11 C                    -0.189212
     12 H                     0.118714
     13 H                     0.127429
     14 C                    -0.188649
     15 H                     0.113272
     16 H                     0.119007
     17 C                     0.000699
     18 C                     0.080048
     19 C                    -0.089357
     20 H                     0.095376
     21 C                    -0.099874
     22 H                     0.092805
     23 C                    -0.088575
     24 H                     0.092662
     25 C                    -0.092409
     26 H                     0.089551
     27 C                    -0.096978
     28 H                     0.093910
     29 C                    -0.007773
     30 C                    -0.010702
     31 C                    -0.017336
     32 C                    -0.031123
     33 C                     0.010912
     34 C                    -0.016647
     35 C                    -0.011693
     36 C                    -0.008280
     37 C                     0.014588
     38 C                    -0.021180
     39 C                    -0.052161
     40 C                    -0.002211
     41 C                    -0.028345
     42 C                    -0.007072
     43 C                     0.000899
     44 C                     0.000310
     45 C                    -0.099492
     46 C                    -0.005340
     47 C                    -0.017108
     48 C                    -0.005848
     49 C                     0.004823
     50 C                    -0.013027
     51 C                    -0.002082
     52 C                     0.000568
     53 C                     0.015731
     54 C                    -0.002908
     55 C                     0.011325
     56 C                     0.005419
     57 C                     0.006127
     58 C                    -0.040522
     59 C                    -0.007318
     60 C                     0.009313
     61 C                     0.012966
     62 C                    -0.020720
     63 C                     0.000625
     64 C                    -0.032844
     65 C                     0.033591
     66 C                     0.003482
     67 C                     0.026717
     68 C                     0.040612
     69 C                    -0.017973
     70 C                     0.026719
     71 C                     0.006655
     72 C                     0.008151
     73 C                    -0.005648
     74 C                     0.012549
     75 C                    -0.011206
     76 C                    -0.000212
     77 C                     0.070385
     78 C                    -0.014298
     79 C                     0.000368
     80 C                     0.004446
     81 C                     0.016687
     82 C                     0.005251
     83 C                     0.011165
     84 C                     0.019025
     85 C                     0.037395
     86 C                    -0.016229
     87 C                     0.007324
     88 C                    -0.025838
     89 O                    -0.484904
     90 C                    -0.076711
     91 H                     0.128819
     92 H                     0.125875
     93 H                     0.121926
     94 O                    -0.457889
     95 C                     0.591482
     96 C                    -0.276018
     97 H                     0.132349
     98 H                     0.138291
     99 C                    -0.163360
    100 H                     0.125456
    101 H                     0.112892
    102 C                    -0.190693
    103 H                     0.107977
    104 H                     0.112906
    105 C                     0.000392
    106 C                     0.069240
    107 C                    -0.081227
    108 H                     0.095312
    109 C                    -0.096818
    110 H                     0.095561
    111 C                    -0.087248
    112 H                     0.086191
    113 C                    -0.083680
    114 H                     0.099529
    115 C                    -0.107579
    116 H                     0.085000
    117 C                     0.008002
    118 C                     0.017952
    119 C                    -0.003492
    120 C                     0.001471
    121 C                    -0.037178
    122 C                    -0.015998
    123 C                    -0.002657
    124 C                    -0.010977
    125 C                    -0.002314
    126 C                    -0.007846
    127 C                    -0.064390
    128 C                     0.002331
    129 C                    -0.005417
    130 C                    -0.018927
    131 C                     0.031976
    132 C                     0.025516
    133 C                    -0.081777
    134 C                     0.012854
    135 C                     0.020005
    136 C                    -0.009715
    137 C                    -0.012976
    138 C                    -0.002176
    139 C                    -0.017023
    140 C                    -0.001036
    141 C                    -0.008066
    142 C                    -0.010637
    143 C                     0.004439
    144 C                    -0.028988
    145 C                     0.006290
    146 C                    -0.030000
    147 C                     0.018834
    148 C                     0.022458
    149 C                     0.008561
    150 C                     0.000388
    151 C                    -0.008441
    152 C                     0.003380
    153 C                     0.009463
    154 C                    -0.018079
    155 C                    -0.010378
    156 C                     0.014859
    157 C                    -0.013192
    158 C                     0.044961
    159 C                     0.021895
    160 C                    -0.004428
    161 C                     0.026595
    162 C                     0.022892
    163 C                    -0.011702
    164 C                     0.006769
    165 C                    -0.004931
    166 C                     0.003769
    167 C                    -0.010883
    168 C                     0.000260
    169 C                    -0.006622
    170 C                     0.014297
    171 C                    -0.010045
    172 C                     0.016603
    173 C                    -0.007081
    174 C                    -0.016038
    175 C                     0.018134
    176 C                    -0.017204
  ----------------------------------------
  Sum of atomic charges =     0.000000

                    Cartesian Multipole Moments
 -----------------------------------------------------------------
    Charge (ESU x 10^10)
                 0.0000
    Dipole Moment (Debye)
         X       2.6256      Y       1.2029      Z       1.7603
       Tot       3.3822
    Quadrupole Moments (Debye-Ang)
        XX    -792.3025     XY     -12.2702     YY    -824.6553
        XZ      -3.7670     YZ       6.5723     ZZ    -799.8112

 Total job time:  839.84s(wall), 7158.72s(cpu)
        *  Thank you very much for using Q-Chem.  Have a nice day.  *
