 Q-Chem 4.4, Q-Chem, Inc., Pleasanton, CA (2016)
 Q-Chem 4.4.2 for Intel X86 Linux

User input:
--------------------------------------------------------------
$comment
SP
$end

$rem
MEM_STATIC 5000
MEM_TOTAL 20000
JOBTYPE SP
EXCHANGE B3LYP
BASIS 6-31g(d,p)
$end

$molecule
0 1
O          -8.316000     32.225000    -13.060000
C          -8.637000     33.632000    -12.636000
H          -7.814000     34.253000    -13.012000
H          -8.740000     33.663000    -11.544000
H          -9.586000     34.031000    -13.015000
O          -6.364000     32.137000    -11.856000
C          -7.172000     31.600000    -12.613000
C          -6.954000     30.199000    -13.205000
H          -6.068000     29.829000    -12.674000
H          -6.621000     30.329000    -14.242000
C          -8.176000     29.251000    -13.034000
H          -8.948000     29.560000    -13.750000
H          -7.876000     28.246000    -13.356000
C          -8.699000     29.359000    -11.562000
H          -7.882000     29.259000    -10.837000
H          -9.082000     30.373000    -11.393000
C          -9.797000     28.285000    -11.181000
C         -10.812000     28.247000    -12.282000
C         -10.770000     27.253000    -13.238000
H         -10.109000     26.394000    -13.180000
C         -11.723000     27.246000    -14.292000
H         -11.752000     26.437000    -15.015000
C         -12.654000     28.284000    -14.371000
H         -13.470000     28.314000    -15.087000
C         -12.678000     29.289000    -13.415000
H         -13.367000     30.125000    -13.487000
C         -11.700000     29.338000    -12.377000
H         -11.789000     30.085000    -11.594000
C         -13.635000     26.710000     -7.454000
C         -13.033000     24.651000     -8.661000
C         -10.683000     22.724000     -5.295000
C          -9.325000     28.827000     -5.746000
C          -7.575000     23.581000     -6.536000
C         -13.246000     26.028000     -8.713000
C          -7.449000     26.889000     -4.986000
C         -12.775000     23.948000     -5.226000
C          -9.196000     24.751000    -10.036000
C          -8.261000     28.571000     -6.606000
C          -9.445000     27.109000    -10.281000
C          -8.030000     25.355000     -9.530000
C          -7.067000     26.887000     -7.446000
C          -7.252000     25.471000     -4.989000
C         -11.481000     25.573000    -10.096000
C          -8.818000     23.643000     -4.496000
C         -10.289000     28.216000     -9.732000
C          -9.760000     28.872000     -8.484000
C          -8.517000     23.007000     -5.673000
C         -11.331000     26.720000     -3.714000
C         -10.957000     24.459000     -3.716000
C         -12.260000     24.718000     -4.153000
C         -13.521000     24.525000     -6.244000
C         -10.807000     28.983000     -7.567000
C         -10.101000     25.785000    -10.339000
C         -13.231000     23.901000     -7.491000
C          -7.383000     27.531000     -6.273000
C         -11.935000     24.403000     -9.520000
C          -7.291000     24.773000     -8.463000
C         -11.554000     28.524000     -5.318000
C         -11.999000     23.004000     -5.843000
C          -8.140000     26.744000     -9.630000
C         -13.238000     26.780000     -5.215000
C          -6.767000     25.521000     -7.407000
C          -9.658000     23.580000     -9.484000
C          -8.981000     25.952000     -3.650000
C          -8.514000     27.177000     -4.165000
C          -8.939000     22.957000     -8.421000
C         -10.587000     29.069000     -6.224000
C          -8.492000     28.562000     -7.971000
C         -10.866000     27.939000     -4.271000
C         -11.684000     27.881000     -9.317000
C         -11.178000     22.593000     -8.034000
C          -7.731000     27.489000     -8.526000
C          -7.727000     23.528000     -7.966000
C         -12.790000     27.968000     -5.782000
C          -9.691000     22.439000     -6.183000
C         -13.754000     25.946000     -6.233000
C         -10.188000     23.448000     -4.265000
C         -11.044000     23.364000     -9.196000
C          -9.883000     22.331000     -7.540000
C         -12.303000     26.597000     -9.594000
C         -11.980000     28.412000     -8.078000
C         -10.370000     25.735000     -3.436000
C         -12.263000     22.874000     -7.217000
C          -6.926000     24.802000     -6.209000
C          -9.506000     28.178000     -4.536000
C          -8.215000     24.948000     -4.136000
C         -12.968000     27.900000     -7.182000
C         -12.477000     26.120000     -4.176000
O          -5.408000     27.435000      1.912000
C          -5.410000     28.343000      3.022000
H          -5.635000     29.331000      2.603000
H          -4.515000     28.216000      3.644000
H          -6.215000     28.095000      3.725000
O          -3.684000     28.447000      0.710000
C          -4.502000     27.555000      0.852000
C          -4.774000     26.506000     -0.263000
H          -5.849000     26.557000     -0.475000
H          -4.473000     25.526000      0.127000
C          -3.967000     26.686000     -1.573000
H          -4.096000     27.731000     -1.880000
H          -2.930000     26.386000     -1.375000
C          -4.600000     25.824000     -2.623000
H          -5.241000     25.038000     -2.206000
H          -5.336000     26.472000     -3.116000
C          -3.585000     25.220000     -3.639000
C          -3.013000     26.237000     -4.615000
C          -1.912000     27.031000     -4.255000
H          -1.444000     26.793000     -3.304000
C          -1.589000     28.111000     -5.050000
H          -0.756000     28.765000     -4.810000
C          -2.380000     28.413000     -6.191000
H          -2.255000     29.383000     -6.663000
C          -3.432000     27.627000     -6.606000
H          -4.122000     27.950000     -7.380000
C          -3.684000     26.526000     -5.830000
H          -4.672000     26.075000     -5.827000
C          -3.041000     21.473000     -7.561000
C          -0.761000     21.907000     -6.856000
C          -0.119000     17.892000     -4.806000
C          -5.859000     20.137000     -3.619000
C          -0.706000     19.183000     -1.560000
C          -2.052000     22.393000     -7.101000
C          -4.297000     18.774000     -1.749000
C          -1.222000     18.403000     -6.910000
C          -0.665000     22.973000     -2.962000
C          -5.363000     20.833000     -2.505000
C          -2.736000     24.023000     -3.318000
C          -1.486000     22.570000     -1.900000
C          -3.667000     21.039000     -1.110000
C          -2.984000     18.293000     -1.529000
C          -1.299000     23.518000     -5.258000
C          -1.378000     17.373000     -3.005000
C          -3.927000     23.871000     -4.181000
C          -4.964000     22.839000     -3.840000
C          -0.422000     18.270000     -2.567000
C          -4.399000     17.671000     -5.696000
C          -2.292000     16.978000     -5.236000
C          -2.321000     17.566000     -6.550000
C          -1.472000     19.636000     -7.640000
C          -5.409000     22.174000     -4.986000
C          -1.370000     23.874000     -3.855000
C          -0.486000     20.514000     -7.118000
C          -4.624000     20.138000     -1.533000
C          -0.296000     22.593000     -5.728000
C          -1.234000     21.283000     -1.256000
C          -5.667000     19.809000     -5.894000
C          -0.126000     18.529000     -6.073000
C          -2.736000     23.143000     -2.060000
C          -3.868000     19.285000     -7.431000
C          -2.329000     20.577000     -0.873000
C           0.310000     22.029000     -3.472000
C          -3.823000     17.249000     -3.370000
C          -4.799000     18.144000     -2.882000
C           0.637000     20.790000     -2.806000
C          -5.871000     20.828000     -4.887000
C          -4.898000     22.133000     -2.641000
C          -5.433000     18.590000     -5.185000
C          -3.636000     23.474000     -5.624000
C           0.804000     20.554000     -5.031000
C          -3.809000     22.286000     -1.750000
C          -0.225000     20.480000     -1.751000
C          -4.832000     20.208000     -6.916000
C           0.409000     18.574000     -3.690000
C          -2.739000     20.127000     -7.754000
C          -1.187000     17.147000     -4.336000
C           0.518000     21.903000     -4.800000
C           0.937000     19.873000     -3.831000
C          -2.362000     23.398000     -6.169000
C          -4.576000     22.504000     -6.023000
C          -3.639000     17.061000     -4.756000
C           0.353000     19.860000     -6.195000
C          -2.000000     19.252000     -1.104000
C          -5.645000     18.775000     -3.769000
C          -2.692000     17.345000     -2.532000
C          -4.293000     21.496000     -7.014000
C          -3.621000     18.014000     -6.891000
$end

--------------------------------------------------------------

             Standard Nuclear Orientation (Angstroms)
    I     Atom           X                Y                Z
 ----------------------------------------------------------------
    1      O       9.1572056047    -1.4123654561     5.5233980943
    2      C       9.9914038655    -0.2675028376     6.0292328958
    3      H       9.9794735458    -0.3491317086     7.1235547839
    4      H       9.5685015551     0.6752376468     5.6598712640
    5      H      11.0327171278    -0.2577465579     5.6842481067
    6      O       7.2433128125    -0.6858740470     6.5611305320
    7      C       7.8227932420    -1.5093168304     5.8537222947
    8      C       7.1391225507    -2.7792134187     5.3238675590
    9      H       6.0857282350    -2.6387251354     5.5967786396
   10      H       7.4766951997    -3.6175080952     5.9455304435
   11      C       7.3224828897    -2.9959612912     3.7939563374
   12      H       8.3507619932    -3.3375180825     3.6204569321
   13      H       6.6884330629    -3.8382190693     3.4901609256
   14      C       7.0469347725    -1.6437298182     3.0540102052
   15      H       6.1059931643    -1.1883996547     3.3863012403
   16      H       7.8129281948    -0.9147490920     3.3460498908
   17      C       6.9763971654    -1.7669126179     1.4779101310
   18      C       8.1445076670    -2.5868663841     1.0228676303
   19      C       7.9846451021    -3.9228698835     0.7174587077
   20      H       7.0175820290    -4.4124285145     0.6601232100
   21      C       9.1075298402    -4.6943676962     0.3136085002
   22      H       8.9938290346    -5.7280555466     0.0027828986
   23      C      10.3684138050    -4.0943944126     0.2881195562
   24      H      11.2637863873    -4.5797035135    -0.0889679876
   25      C      10.5226766277    -2.7546735941     0.6135240890
   26      H      11.5015591673    -2.2857588036     0.6401491314
   27      C       9.4150188546    -1.9771285917     1.0661243840
   28      H       9.5433099689    -0.9121984604     1.2348970279
   29      C       6.8792082805     0.9709157739    -3.3796868075
   30      C       5.8440021819    -1.2111549552    -3.8547127716
   31      C       1.5866692935     0.2945603463    -4.2715138127
   32      C       4.4408048827     3.0142360090     0.6020319528
   33      C       0.5927964511    -0.6588671366    -1.1033302940
   34      C       6.8109016881    -0.4936036624    -3.1515573924
   35      C       1.7090321444     2.3901023978     0.5756701990
   36      C       3.6603793228     1.2569518030    -5.0795548999
   37      C       3.9866531625    -2.7684849978    -0.5762723256
   38      C       3.9841683627     2.0302269641     1.4740648009
   39      C       5.6380270492    -1.6841248511     0.7576382257
   40      C       3.3246726990    -2.1622284867     0.5075371174
   41      C       2.6012243362     0.2845983417     1.5597300361
   42      C       0.7546206435     1.6065431254    -0.1486747143
   43      C       6.0154319710    -2.1056327578    -1.7360966459
   44      C       0.5052851734     1.2304534047    -2.5639132833
   45      C       6.5880021634    -0.5321904766     0.6587419212
   46      C       6.0345326768     0.7991600437     1.0933202452
   47      C       0.4841082838    -0.1303221143    -2.3957837910
   48      C       3.6043134952     3.8297771498    -2.7487416603
   49      C       2.0412973504     2.5755412512    -3.8604402893
   50      C       3.2641894683     2.5044269946    -4.5352266484
   51      C       4.9680900185     0.8027037788    -4.9830123246
   52      C       6.3689282500     1.7513786637     0.1284998990
   53      C       5.3324112358    -2.3612184962    -0.5209622477
   54      C       4.9938863956    -0.6089218580    -4.7955753793
   55      C       2.6389161217     1.6480983284     1.3866170221
   56      C       5.3688918500    -2.1941308247    -2.9530378787
   57      C       1.9958543631    -1.6688066146     0.3887487073
   58      C       5.5503901575     3.4778317453    -1.3466428561
   59      C       2.8822330230     0.1433326382    -4.9112049906
   60      C       4.2523053514    -1.4907863256     1.3075896698
   61      C       5.6105275337     2.8343916158    -3.6855249172
   62      C       1.5888071245    -0.4483882403     0.9310655310
   63      C       3.3560624478    -2.8766421539    -1.7928438936
   64      C       1.5617489189     3.1913224259    -1.5090943244
   65      C       2.2031410757     3.3586873689    -0.2662974476
   66      C       2.0185992245    -2.4060696970    -1.9503643337
   67      C       5.6456202796     2.8948144274    -0.0412800595
   68      C       4.7698463530     0.9108293368     1.6892996670
   69      C       4.2631486029     3.9590296445    -1.4990756676
   70      C       7.1292366952    -0.1965699611    -0.6921463240
   71      C       3.1185115299    -2.0081686343    -3.9320943013
   72      C       3.8977554540    -0.2180125578     1.7497019928
   73      C       1.3305727440    -1.8656348939    -0.8383572358
   74      C       6.2673329676     2.9407554352    -2.4645292744
   75      C       1.1742197010    -0.7197372730    -3.4622433554
   76      C       5.9445046062     1.5988769350    -4.2856072353
   77      C       1.1971261732     1.4838785352    -3.7578218787
   78      C       4.0197571335    -2.5848156915    -3.0277295887
   79      C       1.8726080273    -1.8899975842    -3.2813523670
   80      C       6.9244155947    -1.0400025028    -1.8562837147
   81      C       7.0570954617     1.1594043005    -0.9387785286
   82      C       2.2613928244     3.4210481683    -2.7256182612
   83      C       3.6237455176    -1.0442719272    -4.7919296086
   84      C       0.7176598329     0.1891587046     0.0299094461
   85      C       3.6194223910     3.7018536410    -0.2757919444
   86      C       0.6942490109     2.1564795283    -1.4224220278
   87      C       6.9997154335     1.7541982721    -2.2364809844
   88      C       4.2347588889     3.2600801200    -3.8279746749
   89      O      -2.5525714837     8.2095512344     0.4380084592
   90      C      -2.5412353892     9.6236950138     0.6759934674
   91      H      -1.6212730938     9.8277793293     1.2366617892
   92      H      -3.5017949579     9.9690555427     1.0785967709
   93      H      -2.4770043889    10.1760513170    -0.2697945072
   94      O      -2.5521641421     7.5375069979     2.6717229393
   95      C      -2.5919503014     7.2779602893     1.4817630376
   96      C      -2.5003360514     5.8171717824     0.9570595334
   97      H      -1.6553315826     5.7959043506     0.2579993472
   98      H      -3.4527633886     5.5839792444     0.4655268207
   99      C      -2.3221892394     4.7202903887     2.0363481517
  100      H      -1.4853250489     5.0370364354     2.6705762404
  101      H      -3.2801218326     4.6013948218     2.5586526520
  102      C      -1.9115874584     3.4570697862     1.3421486941
  103      H      -2.1360236435     3.4630508824     0.2687621722
  104      H      -0.8142429420     3.4788893814     1.3393348783
  105      C      -2.4651237966     2.1625041983     2.0092277454
  106      C      -1.7995321512     1.8203911992     3.3336126809
  107      C      -2.2395855231     2.4137516259     4.5279800590
  108      H      -3.1336433383     3.0263430861     4.4540792743
  109      C      -1.4558799127     2.2866156762     5.6559853633
  110      H      -1.7427364860     2.7369092710     6.6015825211
  111      C      -0.2206866837     1.5879403155     5.5858681230
  112      H       0.4802874775     1.6960894226     6.4082111147
  113      C       0.2170281415     0.9469513006     4.4482109626
  114      H       1.2258649481     0.5545033346     4.3602456758
  115      C      -0.6173393168     1.0384565932     3.3650033528
  116      H      -0.2225400757     0.9185340802     2.3603610533
  117      C      -3.1762679673    -3.1862850798     1.2328539775
  118      C      -4.7723724990    -2.6378805286     2.9751179564
  119      C      -8.4914364029    -3.1439541902     0.3968739556
  120      C      -3.9145811088    -0.2631798439    -2.7890527203
  121      C      -8.8642743217     0.3324099881    -0.1720284844
  122      C      -3.5150791101    -2.4285076664     2.3935009528
  123      C      -6.6207179660     0.3863692280    -3.0113640192
  124      C      -6.4774127474    -4.4994591838     0.5010897306
  125      C      -6.0336015356     1.1786757539     2.5852366157
  126      C      -4.3602695719     0.9813569057    -2.3158528970
  127      C      -3.8767402503     1.6899490122     1.8075309830
  128      C      -6.2163590159     1.9505833106     1.4297919275
  129      C      -6.0217304037     2.0554221371    -1.3407586538
  130      C      -7.8780996624     0.1561080983    -2.4033335252
  131      C      -4.2227728787    -0.3755786544     3.1103935538
  132      C      -8.7945911124    -1.7630623321    -1.3636026556
  133      C      -2.7686843162     1.0293741638     1.0848921267
  134      C      -2.8367873955     0.8878376558    -0.4090969587
  135      C      -9.1145174729    -1.0320239527    -0.2350553541
  136      C      -5.3522727180    -3.4935838263    -2.6334315533
  137      C      -7.3740719703    -3.7314501452    -1.6399299691
  138      C      -6.3996763339    -4.5135018465    -0.9242978846
  139      C      -5.2532044990    -4.4217678442     1.2827336522
  140      C      -2.3921292952    -0.3730346524    -0.8165846226
  141      C      -4.6231489198     0.9971818064     2.8749923156
  142      C      -5.6433697104    -3.6341808780     2.3976515319
  143      C      -5.7104630824     1.3349196869    -2.4767902880
  144      C      -5.2097490071    -1.3832523550     3.4153621341
  145      C      -7.4331684110     1.7718395787     0.6411002423
  146      C      -3.1716528260    -2.3652190019    -2.1978150821
  147      C      -7.5251425324    -3.8631388833     1.1453100136
  148      C      -4.9754662388     2.2726426708     0.9074013799
  149      C      -3.9580402382    -4.1470550665    -0.7555941986
  150      C      -7.2926580460     1.8465384918    -0.7075386677
  151      C      -6.9942996777     0.1307369320     2.8693920405
  152      C      -7.0669264430    -1.8415688541    -3.1343757964
  153      C      -6.1237877564    -0.8380940673    -3.4430386712
  154      C      -8.2434475663    -0.0129501222     2.1590473475
  155      C      -2.9130890809    -0.9537576567    -2.0108721483
  156      C      -3.8507909881     1.5061860697    -1.1369945844
  157      C      -4.3672580432    -2.4510873672    -2.9766300720
  158      C      -2.5200994574    -0.4251399821     1.4684715413
  159      C      -7.4536951762    -2.0210075471     2.7740323397
  160      C      -4.9033546079     2.2029572752    -0.4968143650
  161      C      -8.3415379585     0.8076918676     1.0325066249
  162      C      -3.0192169728    -3.1074682074    -1.0459733275
  163      C      -8.9675247568    -1.9090589400     0.8844573848
  164      C      -4.0701281606    -4.1029757454     0.6843458387
  165      C      -8.4321948713    -3.0205194704    -0.9807338663
  166      C      -6.5864859249    -1.0728329696     3.3252773714
  167      C      -8.4982800930    -1.3965023525     2.1104921274
  168      C      -3.1590153925    -1.0745773091     2.5153213806
  169      C      -2.2714823184    -1.1644531222     0.2957368743
  170      C      -6.6521041009    -3.1239151768    -2.7175948789
  171      C      -7.0135015186    -3.3117139522     2.3494860881
  172      C      -8.1745689163     0.9060274983    -1.2124141849
  173      C      -4.7791637072    -1.1418808157    -3.4244435707
  174      C      -8.1558922984    -1.2246330436    -2.4830966155
  175      C      -2.5837648224    -2.5661220791     0.1690965446
  176      C      -5.1136833589    -4.4036843805    -1.5083759551
 ----------------------------------------------------------------

    9   -5804.2609209598      9.01E-06 Convergence criterion met
 Total energy in the final basis set = -5804.2609209598

                    Orbital Energies (a.u.)
 --------------------------------------------------------------

 Alpha MOs
 -- Occupied --
-19.195 -19.185 -19.138 -19.137 -10.322 -10.319 -10.258 -10.246
-10.245 -10.244 -10.243 -10.236 -10.234 -10.233 -10.232 -10.231
-10.230 -10.230 -10.226 -10.226 -10.226 -10.226 -10.225 -10.224
-10.224 -10.224 -10.223 -10.223 -10.223 -10.223 -10.222 -10.222
-10.222 -10.222 -10.222 -10.222 -10.221 -10.221 -10.221 -10.221
-10.221 -10.221 -10.221 -10.220 -10.220 -10.220 -10.219 -10.219
-10.219 -10.219 -10.219 -10.219 -10.219 -10.219 -10.219 -10.219
-10.219 -10.219 -10.219 -10.219 -10.219 -10.218 -10.218 -10.218
-10.218 -10.218 -10.218 -10.217 -10.217 -10.217 -10.217 -10.217
-10.217 -10.216 -10.216 -10.216 -10.216 -10.215 -10.215 -10.215
-10.215 -10.215 -10.215 -10.215 -10.214 -10.214 -10.214 -10.214
-10.213 -10.213 -10.213 -10.213 -10.213 -10.212 -10.212 -10.212
-10.212 -10.212 -10.212 -10.212 -10.212 -10.212 -10.212 -10.211
-10.211 -10.211 -10.211 -10.211 -10.211 -10.211 -10.211 -10.210
-10.210 -10.210 -10.210 -10.210 -10.210 -10.209 -10.209 -10.209
-10.208 -10.208 -10.208 -10.208 -10.208 -10.208 -10.207 -10.206
-10.206 -10.206 -10.205 -10.205 -10.205 -10.204 -10.204 -10.203
-10.203 -10.202 -10.202 -10.201 -10.201 -10.195 -10.193 -10.192
-10.191 -10.190 -10.187 -10.186  -1.081  -1.078  -1.009  -1.001
 -0.986  -0.978  -0.971  -0.965  -0.963  -0.962  -0.958  -0.954
 -0.938  -0.933  -0.931  -0.929  -0.927  -0.924  -0.923  -0.918
 -0.917  -0.915  -0.903  -0.892  -0.892  -0.890  -0.887  -0.880
 -0.880  -0.870  -0.859  -0.852  -0.845  -0.840  -0.837  -0.835
 -0.835  -0.831  -0.825  -0.816  -0.808  -0.805  -0.802  -0.799
 -0.796  -0.795  -0.793  -0.791  -0.790  -0.785  -0.785  -0.780
 -0.774  -0.771  -0.770  -0.768  -0.767  -0.764  -0.759  -0.757
 -0.754  -0.749  -0.743  -0.738  -0.734  -0.729  -0.720  -0.718
 -0.716  -0.714  -0.713  -0.712  -0.712  -0.710  -0.709  -0.708
 -0.706  -0.704  -0.704  -0.701  -0.698  -0.697  -0.676  -0.668
 -0.661  -0.660  -0.655  -0.651  -0.651  -0.640  -0.635  -0.633
 -0.629  -0.628  -0.627  -0.624  -0.624  -0.618  -0.618  -0.617
 -0.616  -0.615  -0.612  -0.611  -0.610  -0.609  -0.608  -0.606
 -0.604  -0.603  -0.600  -0.597  -0.571  -0.565  -0.565  -0.562
 -0.560  -0.560  -0.558  -0.555  -0.553  -0.553  -0.552  -0.550
 -0.542  -0.537  -0.532  -0.531  -0.531  -0.529  -0.529  -0.524
 -0.524  -0.521  -0.519  -0.518  -0.517  -0.517  -0.512  -0.509
 -0.509  -0.502  -0.496  -0.494  -0.492  -0.490  -0.489  -0.484
 -0.482  -0.481  -0.480  -0.479  -0.479  -0.479  -0.476  -0.473
 -0.472  -0.471  -0.470  -0.470  -0.469  -0.468  -0.467  -0.466
 -0.466  -0.465  -0.464  -0.462  -0.461  -0.459  -0.459  -0.459
 -0.458  -0.456  -0.452  -0.452  -0.449  -0.448  -0.447  -0.444
 -0.443  -0.441  -0.440  -0.439  -0.436  -0.435  -0.434  -0.432
 -0.432  -0.431  -0.431  -0.429  -0.427  -0.427  -0.426  -0.425
 -0.424  -0.422  -0.422  -0.421  -0.420  -0.420  -0.420  -0.418
 -0.417  -0.416  -0.416  -0.414  -0.414  -0.413  -0.412  -0.410
 -0.409  -0.408  -0.405  -0.405  -0.405  -0.399  -0.399  -0.395
 -0.394  -0.392  -0.392  -0.390  -0.389  -0.387  -0.385  -0.381
 -0.380  -0.378  -0.376  -0.373  -0.371  -0.369  -0.367  -0.367
 -0.367  -0.365  -0.364  -0.362  -0.360  -0.360  -0.360  -0.359
 -0.358  -0.356  -0.355  -0.354  -0.353  -0.352  -0.351  -0.350
 -0.350  -0.349  -0.347  -0.346  -0.345  -0.345  -0.345  -0.342
 -0.341  -0.340  -0.339  -0.338  -0.337  -0.335  -0.334  -0.333
 -0.332  -0.331  -0.329  -0.328  -0.327  -0.326  -0.322  -0.321
 -0.316  -0.304  -0.302  -0.296  -0.293  -0.284  -0.274  -0.272
 -0.269  -0.269  -0.268  -0.267  -0.267  -0.265  -0.265  -0.264
 -0.263  -0.261  -0.261  -0.259  -0.257  -0.256  -0.255  -0.253
 -0.253  -0.246  -0.241  -0.237  -0.226  -0.218  -0.215  -0.213
 -0.211  -0.210  -0.202  -0.201  -0.199  -0.197

          Ground-State Mulliken Net Atomic Charges

     Atom                 Charge (a.u.)
  ----------------------------------------
      1 O                    -0.485176
      2 C                    -0.085877
      3 H                     0.139740
      4 H                     0.134835
      5 H                     0.129961
      6 O                    -0.471989
      7 C                     0.585149
      8 C                    -0.257866
      9 H                     0.137662
     10 H                     0.130826
     11 C                    -0.184804
     12 H                     0.135571
     13 H                     0.107290
     14 C                    -0.183235
     15 H                     0.112050
     16 H                     0.125120
     17 C                    -0.004039
     18 C                     0.085205
     19 C                    -0.108047
     20 H                     0.095055
     21 C                    -0.095567
     22 H                     0.094833
     23 C                    -0.074988
     24 H                     0.090883
     25 C                    -0.092519
     26 H                     0.089663
     27 C                    -0.096806
     28 H                     0.095358
     29 C                    -0.031976
     30 C                     0.020173
     31 C                     0.016441
     32 C                     0.018543
     33 C                    -0.022980
     34 C                    -0.016774
     35 C                    -0.011355
     36 C                     0.010251
     37 C                     0.006465
     38 C                    -0.005085
     39 C                    -0.082637
     40 C                     0.019528
     41 C                     0.003339
     42 C                    -0.016049
     43 C                     0.014443
     44 C                    -0.010656
     45 C                    -0.090802
     46 C                     0.031782
     47 C                     0.025111
     48 C                     0.002011
     49 C                     0.002894
     50 C                    -0.010574
     51 C                     0.002318
     52 C                     0.007778
     53 C                     0.036466
     54 C                    -0.011818
     55 C                     0.012275
     56 C                    -0.004451
     57 C                    -0.008321
     58 C                    -0.016189
     59 C                    -0.006026
     60 C                    -0.003060
     61 C                     0.001516
     62 C                    -0.012489
     63 C                    -0.010660
     64 C                     0.018723
     65 C                    -0.022089
     66 C                     0.003513
     67 C                    -0.010181
     68 C                    -0.012654
     69 C                     0.011123
     70 C                     0.027036
     71 C                     0.005312
     72 C                     0.015218
     73 C                    -0.026701
     74 C                    -0.007048
     75 C                     0.003373
     76 C                    -0.006366
     77 C                     0.002603
     78 C                    -0.009792
     79 C                     0.000593
     80 C                    -0.021260
     81 C                     0.037941
     82 C                    -0.012218
     83 C                    -0.004662
     84 C                     0.024446
     85 C                    -0.013057
     86 C                     0.000329
     87 C                     0.007757
     88 C                     0.008281
     89 O                    -0.484742
     90 C                    -0.074548
     91 H                     0.128224
     92 H                     0.125082
     93 H                     0.122306
     94 O                    -0.455163
     95 C                     0.586530
     96 C                    -0.274703
     97 H                     0.132032
     98 H                     0.136416
     99 C                    -0.162773
    100 H                     0.126977
    101 H                     0.112589
    102 C                    -0.192766
    103 H                     0.105299
    104 H                     0.117172
    105 C                     0.003291
    106 C                     0.064478
    107 C                    -0.082931
    108 H                     0.093430
    109 C                    -0.096357
    110 H                     0.093386
    111 C                    -0.088783
    112 H                     0.086117
    113 C                    -0.088733
    114 H                     0.096968
    115 C                    -0.100260
    116 H                     0.084170
    117 C                     0.005972
    118 C                     0.016462
    119 C                    -0.004051
    120 C                     0.001482
    121 C                    -0.037891
    122 C                    -0.015949
    123 C                     0.001222
    124 C                    -0.011712
    125 C                    -0.002807
    126 C                    -0.010614
    127 C                    -0.071282
    128 C                     0.001830
    129 C                    -0.010789
    130 C                    -0.019511
    131 C                     0.031332
    132 C                     0.024447
    133 C                    -0.080680
    134 C                     0.022810
    135 C                     0.020226
    136 C                    -0.010674
    137 C                    -0.013169
    138 C                    -0.003592
    139 C                    -0.019777
    140 C                     0.003429
    141 C                    -0.005832
    142 C                    -0.010102
    143 C                    -0.002683
    144 C                    -0.029447
    145 C                     0.005357
    146 C                    -0.031259
    147 C                     0.018677
    148 C                     0.025795
    149 C                     0.007067
    150 C                     0.002888
    151 C                    -0.008851
    152 C                     0.010978
    153 C                     0.015860
    154 C                    -0.018502
    155 C                    -0.012559
    156 C                     0.007247
    157 C                    -0.011300
    158 C                     0.049038
    159 C                     0.021423
    160 C                    -0.009727
    161 C                     0.025973
    162 C                     0.021407
    163 C                    -0.013100
    164 C                     0.007507
    165 C                    -0.004593
    166 C                     0.003918
    167 C                    -0.011080
    168 C                    -0.001895
    169 C                    -0.005062
    170 C                     0.014417
    171 C                    -0.011166
    172 C                     0.015580
    173 C                    -0.006793
    174 C                    -0.016995
    175 C                     0.018201
    176 C                    -0.017750
  ----------------------------------------
  Sum of atomic charges =     0.000000

                    Cartesian Multipole Moments
 -----------------------------------------------------------------
    Charge (ESU x 10^10)
                 0.0000
    Dipole Moment (Debye)
         X       7.3840      Y      -0.3872      Z      -0.2122
       Tot       7.3972
    Quadrupole Moments (Debye-Ang)
        XX    -760.8615     XY     -20.9386     YY    -786.7927
        XZ      21.8849     YZ     -12.7589     ZZ    -824.1280

 Total job time:  854.64s(wall), 7266.98s(cpu)
        *  Thank you very much for using Q-Chem.  Have a nice day.  *
