 Q-Chem 4.4, Q-Chem, Inc., Pleasanton, CA (2016)
 Q-Chem 4.4.2 for Intel X86 Linux

User input:
--------------------------------------------------------------
$comment
SP
$end

$rem
MEM_STATIC 5000
MEM_TOTAL 20000
JOBTYPE SP
EXCHANGE B3LYP
BASIS 6-31g(d,p)
$end

$molecule
0 1
O         -23.829000      4.989000     -1.581000
C         -24.545000      5.906000     -2.415000
H         -24.308000      6.930000     -2.102000
H         -25.628000      5.811000     -2.266000
H         -24.228000      5.719000     -3.448000
O         -24.387000      3.037000     -2.683000
C         -23.870000      3.671000     -1.776000
C         -23.106000      3.013000     -0.726000
H         -23.542000      3.388000      0.209000
H         -22.070000      3.351000     -0.851000
C         -23.232000      1.516000     -0.607000
H         -24.261000      1.211000     -0.380000
H         -22.884000      0.999000     -1.510000
C         -22.409000      1.047000      0.683000
H         -21.369000      1.337000      0.492000
H         -22.745000      1.679000      1.514000
C         -22.557000     -0.494000      1.022000
C         -23.819000     -0.809000      1.847000
C         -25.036000     -1.251000      1.309000
H         -25.143000     -1.369000      0.235000
C         -26.115000     -1.597000      2.135000
H         -27.004000     -1.964000      1.630000
C         -26.020000     -1.491000      3.525000
H         -26.831000     -1.901000      4.119000
C         -24.869000     -0.989000      4.093000
H         -24.747000     -0.804000      5.156000
C         -23.755000     -0.621000      3.270000
H         -22.812000     -0.263000      3.673000
C         -20.270000     -4.979000      3.035000
C         -21.723000     -5.811000      1.263000
C         -18.482000     -6.999000     -1.544000
C         -17.096000     -1.412000      1.170000
C         -18.759000     -4.150000     -3.465000
C         -21.477000     -4.886000      2.348000
C         -16.549000     -2.083000     -1.477000
C         -18.596000     -7.260000      0.837000
C         -22.108000     -3.051000     -1.630000
C         -17.778000     -0.772000      0.143000
C         -21.970000     -1.401000      0.018000
C         -21.264000     -2.082000     -2.136000
C         -18.694000     -0.964000     -1.927000
C         -16.828000     -3.062000     -2.456000
C         -22.598000     -3.784000      0.677000
C         -17.052000     -5.439000     -2.373000
C         -21.337000     -1.271000      1.403000
C         -19.899000     -0.845000      1.431000
C         -18.262000     -5.400000     -3.041000
C         -16.161000     -4.780000      1.486000
C         -16.576000     -6.319000     -0.145000
C         -17.317000     -6.736000      0.941000
C         -19.667000     -6.946000      1.789000
C         -19.159000     -1.590000      2.410000
C         -22.541000     -2.731000     -0.327000
C         -20.853000     -6.826000      1.005000
C         -17.472000     -1.047000     -1.215000
C         -22.414000     -5.092000      0.243000
C         -20.230000     -2.508000     -2.971000
C         -17.282000     -3.121000      2.721000
C         -19.225000     -7.425000     -0.424000
C         -21.063000     -1.121000     -1.156000
C         -18.037000     -5.430000      2.794000
C         -18.949000     -1.941000     -2.912000
C         -22.023000     -4.401000     -2.021000
C         -15.812000     -4.091000     -0.807000
C         -15.904000     -2.719000     -0.400000
C         -21.039000     -4.789000     -2.964000
C         -17.771000     -1.850000      2.290000
C         -19.193000     -0.484000      0.237000
C         -16.309000     -3.417000      1.855000
C         -21.311000     -2.459000      2.308000
C         -21.231000     -6.476000     -1.369000
C         -19.745000     -0.632000     -1.044000
C         -20.122000     -3.827000     -3.405000
C         -18.184000     -4.098000      3.268000
C         -19.184000     -6.359000     -2.583000
C         -19.368000     -6.027000      2.774000
C         -17.182000     -6.476000     -1.388000
C         -22.112000     -5.399000     -1.052000
C         -20.550000     -6.108000     -2.596000
C         -21.964000     -3.652000      1.959000
C         -20.027000     -2.551000      2.946000
C         -15.889000     -5.132000      0.189000
C         -20.573000     -7.176000     -0.322000
C         -18.070000     -2.955000     -3.176000
C         -16.145000     -2.363000      0.929000
C         -16.357000     -4.256000     -2.069000
C         -19.546000     -3.851000      3.321000
C         -17.057000     -5.772000      1.922000
O         -13.711000     -2.627000      6.662000
C         -14.829000     -2.056000      7.358000
H         -14.362000     -1.488000      8.173000
H         -15.369000     -2.832000      7.915000
H         -15.465000     -1.432000      6.719000
O         -14.569000     -2.491000      4.556000
C         -13.650000     -2.760000      5.303000
C         -12.328000     -3.180000      4.830000
H         -11.597000     -2.795000      5.552000
H         -12.115000     -2.600000      3.924000
C         -12.010000     -4.662000      4.548000
H         -10.943000     -4.911000      4.594000
H         -12.422000     -5.333000      5.311000
C         -12.394000     -5.079000      3.176000
H         -13.481000     -5.040000      3.037000
H         -12.010000     -4.308000      2.495000
C         -11.877000     -6.460000      2.778000
C         -11.979000     -7.488000      3.908000
C         -13.297000     -8.006000      4.180000
H         -14.198000     -7.689000      3.664000
C         -13.436000     -9.009000      5.158000
H         -14.367000     -9.517000      5.391000
C         -12.268000     -9.398000      5.908000
H         -12.319000    -10.154000      6.686000
C         -11.021000     -8.848000      5.691000
H         -10.185000     -9.155000      6.312000
C         -10.873000     -7.870000      4.668000
H          -9.872000     -7.497000      4.474000
C          -8.036000     -9.075000     -0.113000
C          -9.980000    -10.505000     -0.390000
C         -10.482000     -9.555000     -4.771000
C          -8.995000     -4.354000     -1.486000
C         -13.067000     -7.177000     -4.190000
C          -9.206000     -9.648000      0.443000
C         -10.861000     -4.408000     -3.623000
C          -8.463000     -9.970000     -3.569000
C         -13.244000     -8.353000     -0.323000
C         -10.362000     -4.129000     -1.247000
C         -12.259000     -6.912000      1.345000
C         -13.540000     -7.042000     -0.687000
C         -12.500000     -4.739000     -1.773000
C         -11.608000     -5.259000     -4.415000
C         -11.399000     -9.281000      0.918000
C         -10.953000     -7.408000     -5.442000
C         -10.860000     -6.493000      1.693000
C         -10.210000     -5.412000      0.865000
C         -12.141000     -7.996000     -4.972000
C          -7.365000     -6.611000     -3.649000
C          -8.652000     -7.996000     -4.926000
C          -7.850000     -8.820000     -4.122000
C          -8.271000    -10.247000     -2.201000
C          -8.832000     -5.727000      0.488000
C         -12.435000     -8.358000      0.820000
C          -9.465000    -10.840000     -1.675000
C         -11.285000     -4.147000     -2.285000
C         -11.292000    -10.266000     -0.129000
C         -13.734000     -6.780000     -2.059000
C          -7.280000     -5.903000     -1.340000
C          -9.759000    -10.360000     -3.912000
C         -12.897000     -6.161000      0.186000
C          -6.990000     -8.212000     -1.934000
C         -13.208000     -5.586000     -2.646000
C         -13.234000     -9.364000     -1.292000
C          -9.378000     -5.704000     -4.803000
C          -9.506000     -4.681000     -3.786000
C         -13.350000     -9.019000     -2.633000
C          -8.222000     -5.089000     -0.624000
C         -10.985000     -4.694000     -0.104000
C          -7.540000     -5.591000     -2.658000
C          -9.761000     -7.531000      1.586000
C         -11.726000    -10.598000     -2.493000
C         -12.292000     -5.063000     -0.421000
C         -13.615000     -7.713000     -3.031000
C          -7.041000     -7.233000     -0.939000
C         -11.868000     -9.323000     -4.580000
C          -7.634000     -9.364000     -1.417000
C          -9.931000     -8.357000     -5.261000
C         -12.204000    -10.347000     -1.174000
C         -12.449000     -9.815000     -3.414000
C         -10.057000     -8.878000      1.213000
C          -8.578000     -7.043000      0.934000
C          -8.350000     -6.693000     -4.707000
C         -10.376000    -10.877000     -2.770000
C         -12.821000     -5.814000     -3.958000
C          -8.559000     -4.605000     -2.755000
C         -10.665000     -6.073000     -5.129000
C          -7.704000     -7.770000      0.154000
C          -7.161000     -7.928000     -3.329000
$end

--------------------------------------------------------------

             Standard Nuclear Orientation (Angstroms)
    I     Atom           X                Y                Z
 ----------------------------------------------------------------
    1      O      11.7523175694     3.0627603158    -4.5235300714
    2      C      12.7144755346     4.0424793208    -4.9278860053
    3      H      13.0379220261     3.8209083157    -5.9520943126
    4      H      13.6277666792     3.9705782791    -4.3238623920
    5      H      12.2250107784     5.0217744701    -4.8650189783
    6      O      11.1672632055     3.9944987845    -2.4923612411
    7      C      11.1315836602     3.1209729517    -3.3453404843
    8      C      10.2780692792     1.9505131844    -3.2014754971
    9      H      10.9494220403     1.0975253397    -3.3647029670
   10      H       9.5251906402     2.0278512122    -3.9954261154
   11      C       9.6829967959     1.6853960740    -1.8425613506
   12      H      10.4579070189     1.5098530662    -1.0861925260
   13      H       9.0237647887     2.4987268472    -1.5143720548
   14      C       8.8978406147     0.2921852768    -1.9048786497
   15      H       8.1104992913     0.4295951885    -2.6554738513
   16      H       9.5932102565    -0.4386503285    -2.3352521843
   17      C       8.3272128095    -0.1938975177    -0.5085930683
   18      C       9.3716872570    -0.9448435239     0.3385475483
   19      C      10.1521553680    -0.3615187568     1.3467631719
   20      H      10.0592963548     0.6992448756     1.5589110447
   21      C      11.0228598342    -1.1312040660     2.1314231348
   22      H      11.5583210781    -0.5986990658     2.9122910371
   23      C      11.1583866940    -2.5055330316     1.9187887900
   24      H      11.7375984327    -3.0731767862     2.6405583721
   25      C      10.4676843492    -3.1070721295     0.8889781352
   26      H      10.5783608571    -4.1510867811     0.6117379547
   27      C       9.5774945205    -2.3408236814     0.0678969062
   28      H       8.9785252078    -2.7774359600    -0.7260977290
   29      C       4.4284857186    -2.8413158803     2.1726130193
   30      C       5.0783222694    -1.0569495661     3.7013923735
   31      C       1.3542368028     1.3442847609     3.3014734518
   32      C       3.1592644279    -0.8694955887    -2.3855655701
   33      C       2.7319807835     3.5695843455     1.0578972256
   34      C       5.4392535808    -2.0549215703     2.7179563222
   35      C       2.0434329878     1.6407665299    -1.9277847345
   36      C       1.6143070322    -1.0344075678     3.4578840690
   37      C       6.3902690074     2.1311224410     1.6397748934
   38      C       3.9356535842     0.2697799111    -2.5550477620
   39      C       7.2608943515     0.6596911424     0.0478108725
   40      C       6.0614005902     2.6675910326     0.4103929290
   41      C       4.3903948464     2.3742032410    -1.8301803029
   42      C       1.6979917290     2.5306046009    -0.8868325050
   43      C       6.7414810587    -0.1939747781     2.3948980732
   44      C       0.7611617391     2.2165691575     1.2882365308
   45      C       6.9398903810    -0.7497732675    -0.4483549546
   46      C       5.8983826186    -0.8467095517    -1.5235149137
   47      C       1.7508903608     2.9786980372     1.8810618223
   48      C       0.7675509028    -1.6103226014     0.0737812438
   49      C       0.1929506413    -0.1221535801     1.7035341404
   50      C       0.7671502080    -1.1838043004     2.3710359050
   51      C       2.8101471389    -1.8603567337     3.6571713355
   52      C       5.0154048341    -1.9540167344    -1.2883829613
   53      C       7.0768616074     0.9073193115     1.5034132355
   54      C       3.8039683754    -0.9766339168     4.1738969231
   55      C       3.3744025170     1.5628875921    -2.3928911563
   56      C       5.9013090971     0.0843916340     3.4671383519
   57      C       4.8579972414     3.3687307219     0.3205012379
   58      C       2.6867412568    -2.5716788409    -0.8888451458
   59      C       1.9299413153     0.2481429955     3.9759825654
   60      C       6.4660906726     1.7810501309    -0.5768219244
   61      C       2.2427345721    -2.8266068873     1.4870135948
   62      C       4.0243394184     3.2682982721    -0.8023785229
   63      C       5.6211185190     2.3702948466     2.7946818535
   64      C       0.5194049512     0.7074454020    -0.5748681754
   65      C       1.3071262424     0.4552755334    -1.7463640246
   66      C       4.4664179207     3.1864455306     2.7018724279
   67      C       3.6701230687    -1.9722827083    -1.7338347836
   68      C       5.3147137135     0.3188975777    -2.1194038540
   69      C       1.5950372609    -1.8213317274    -1.0604918608
   70      C       6.4556597708    -1.7736708354     0.5254003979
   71      C       4.0149641014     1.4434287332     4.1800266462
   72      C       5.5692028083     1.6169602366    -1.6526730597
   73      C       4.0785775026     3.6519619571     1.4394587609
   74      C       3.0670936358    -3.1450373733     0.3736658685
   75      C       2.1465602628     2.4970401237     3.1424023722
   76      C       3.1101203916    -2.7640245579     2.6583783083
   77      C       0.4946072036     1.1415713146     2.2024697162
   78      C       5.3357437697     1.3120043251     3.6557674617
   79      C       3.4524097168     2.6444641419     3.5920126060
   80      C       6.4081813104    -1.5012028014     1.9019780260
   81      C       5.3725758019    -2.5174842648    -0.0558350953
   82      C       0.2062021891    -0.3830745345     0.3163648457
   83      C       3.2330211178     0.2799299670     4.4124245625
   84      C       2.7419242673     3.3539539614    -0.3348237315
   85      C       1.8473091455    -0.8057301175    -2.0092807025
   86      C       0.7619335318     1.9843342409    -0.0977635947
   87      C       4.3754842832    -3.0637769492     0.8212959135
   88      C       1.1221375800    -2.0756945992     1.3523246307
   89      O       0.2951758482    -6.7094412413    -3.2735663485
   90      C       1.6244770530    -7.2509151431    -3.2615114496
   91      H       1.5894835065    -8.0362072297    -4.0276901432
   92      H       1.7880201772    -7.8417606811    -2.3514673865
   93      H       2.3998776303    -6.5015934287    -3.4601667112
   94      O       0.8526990703    -4.5394963268    -2.8607674567
   95      C       0.0148673729    -5.3810327618    -3.1152973676
   96      C      -1.3923545769    -5.0609305180    -3.3703933052
   97      H      -1.7557925239    -5.7941479405    -4.1012661191
   98      H      -1.4078679115    -4.1187887562    -3.9314042116
   99      C      -2.4142305147    -4.9621210929    -2.2201853826
  100      H      -3.4553574137    -5.1183669897    -2.5271837540
  101      H      -2.2867074850    -5.7562947874    -1.4750813497
  102      C      -2.4458307220    -3.6153897648    -1.5964505376
  103      H      -1.4993533853    -3.3874095941    -1.0918549640
  104      H      -2.4911433465    -2.8897900718    -2.4193173868
  105      C      -3.6060630024    -3.4067476414    -0.6252741789
  106      C      -3.8751857579    -4.6267594780     0.2597298105
  107      C      -2.9460419415    -4.8463792901     1.3404198246
  108      H      -2.0730190486    -4.2302245267     1.5320714252
  109      C      -3.1892916012    -5.9101563380     2.2298139979
  110      H      -2.5962904427    -6.1207166633     3.1147591801
  111      C      -4.3007364163    -6.7869838264     1.9579519401
  112      H      -4.5258901743    -7.6335413892     2.5998764513
  113      C      -5.1462091193    -6.6129042286     0.8811649593
  114      H      -5.9453253293    -7.3269494703     0.7069849499
  115      C      -4.9281963049    -5.5078548168     0.0115367570
  116      H      -5.6421555731    -5.3556700946    -0.7921223584
  117      C      -8.5468233507    -1.1195469126    -0.0712100972
  118      C      -7.5777339002    -0.8410790809     2.1387868041
  119      C      -7.2122487445     3.6413561109     1.7897017818
  120      C      -5.6116639547     0.8130183949    -3.6408993907
  121      C      -3.7544147295     3.5197428293     0.9510933305
  122      C      -7.7385287325    -1.6381957887     0.9699566299
  123      C      -4.2732820558     3.0735876275    -2.5684248515
  124      C      -9.0212309653     2.2463225944     1.1006046821
  125      C      -3.7002761583    -0.4230982985     1.8561164554
  126      C      -4.2871240647     0.7079806588    -3.1815562144
  127      C      -3.6635441956    -2.0033780875     0.0312064435
  128      C      -2.8573212402     0.0987919610     0.8784198956
  129      C      -2.7856534959     1.3347216486    -1.5776229668
  130      C      -4.1281347473     3.8285516352    -1.4201933392
  131      C      -5.5997274747    -1.8968580124     1.6967207135
  132      C      -5.8527134660     4.5691904780     0.1858070803
  133      C      -4.6360424368    -2.4151816796    -1.0358132247
  134      C      -4.7812920084    -1.5323877380    -2.2508121624
  135      C      -5.0463249395     4.1356460776     1.2534047560
  136      C      -8.3718780500     2.5912346521    -2.3568888413
  137      C      -8.0722950214     3.8137066567    -0.4539607799
  138      C      -9.0681253529     2.8666772971    -0.1710237854
  139      C      -9.1565480543     0.8459190144     1.1752779596
  140      C      -6.1752042694    -1.3008661608    -2.6298166053
  141      C      -4.2681334083    -1.6207737064     1.4043789642
  142      C      -8.3406124449     0.3568112565     2.2471845239
  143      C      -3.6186319549     1.8081827432    -2.6596647769
  144      C      -6.2916134354    -0.9708124668     2.5578922787
  145      C      -2.7279504910     1.5017447670     0.8179994244
  146      C      -7.8280572810     0.3698651408    -3.1377514832
  147      C      -8.1236995928     2.6480556381     2.0917721740
  148      C      -2.8879580956    -0.7250827376    -0.2494235617
  149      C      -9.2602543976     0.6933786067    -1.2370759569
  150      C      -2.6822129505     2.1673132834    -0.4476259654
  151      C      -4.3109858854     0.4305781473     2.7831828797
  152      C      -6.3260770325     3.9898516324    -2.1017364572
  153      C      -5.6013049951     3.0991974628    -2.9841437579
  154      C      -4.2058023549     1.8053342454     2.6107181132
  155      C      -6.5325835901    -0.1798687478    -3.4243811536
  156      C      -3.8796664240    -0.4350556326    -2.4458597364
  157      C      -7.6108364214     1.7297623731    -3.2123344281
  158      C      -6.1022531450    -2.5051065277    -0.6632093054
  159      C      -6.3582557705     1.3721874592     3.1847783499
  160      C      -2.9593663025    -0.0560213748    -1.4689873201
  161      C      -3.3962725620     2.3579491816     1.6240351617
  162      C      -8.6261603926    -0.1861835892    -2.1176224555
  163      C      -5.8736115563     3.5861411935     2.2547854209
  164      C      -9.1917148561     0.1109566829     0.0533565419
  165      C      -7.1746465363     4.2092066479     0.5032194300
  166      C      -5.6637735156     0.1288449232     3.1296445501
  167      C      -5.4648258006     2.4246404025     2.9051630946
  168      C      -6.5367571644    -2.2532866449     0.6743059296
  169      C      -6.9742057384    -1.9012427192    -1.6316018786
  170      C      -7.6826539580     3.7094560112    -1.7479026814
  171      C      -7.6985257733     1.5105736810     2.7827888312
  172      C      -3.2857411494     3.4133382153    -0.3684263296
  173      C      -6.2636402349     2.0101215958    -3.5679003733
  174      C      -5.4242367822     4.3762236867    -1.1341586575
  175      C      -8.1765153855    -1.2735469396    -1.3841053720
  176      C      -9.1430694131     2.1196192310    -1.3266714972
 ----------------------------------------------------------------

    9   -5804.3080572508      8.49E-06 Convergence criterion met
 Total energy in the final basis set = -5804.3080572508

                    Orbital Energies (a.u.)
 --------------------------------------------------------------

 Alpha MOs
 -- Occupied --
-19.197 -19.191 -19.134 -19.131 -10.317 -10.311 -10.251 -10.248
-10.242 -10.241 -10.241 -10.240 -10.237 -10.236 -10.228 -10.227
-10.227 -10.227 -10.226 -10.225 -10.223 -10.222 -10.222 -10.221
-10.219 -10.219 -10.218 -10.218 -10.218 -10.217 -10.217 -10.217
-10.216 -10.216 -10.216 -10.216 -10.215 -10.215 -10.215 -10.215
-10.215 -10.215 -10.215 -10.215 -10.215 -10.214 -10.214 -10.214
-10.214 -10.214 -10.214 -10.213 -10.213 -10.212 -10.212 -10.212
-10.212 -10.212 -10.212 -10.212 -10.211 -10.211 -10.211 -10.211
-10.211 -10.211 -10.211 -10.211 -10.211 -10.210 -10.210 -10.210
-10.210 -10.210 -10.210 -10.210 -10.210 -10.210 -10.210 -10.209
-10.209 -10.209 -10.209 -10.209 -10.209 -10.209 -10.209 -10.209
-10.209 -10.208 -10.208 -10.208 -10.208 -10.208 -10.208 -10.208
-10.208 -10.207 -10.207 -10.207 -10.207 -10.207 -10.207 -10.207
-10.207 -10.207 -10.206 -10.206 -10.206 -10.206 -10.206 -10.206
-10.206 -10.206 -10.206 -10.206 -10.205 -10.205 -10.205 -10.205
-10.205 -10.205 -10.205 -10.204 -10.204 -10.204 -10.204 -10.204
-10.204 -10.203 -10.203 -10.203 -10.203 -10.202 -10.202 -10.202
-10.201 -10.201 -10.201 -10.200 -10.200 -10.198 -10.198 -10.197
-10.197 -10.193 -10.193 -10.191  -1.104  -1.093  -1.013  -1.012
 -0.979  -0.978  -0.962  -0.961  -0.959  -0.957  -0.957  -0.956
 -0.932  -0.932  -0.923  -0.922  -0.920  -0.920  -0.918  -0.917
 -0.916  -0.915  -0.893  -0.891  -0.887  -0.883  -0.880  -0.880
 -0.869  -0.867  -0.852  -0.851  -0.838  -0.838  -0.835  -0.834
 -0.833  -0.832  -0.823  -0.817  -0.811  -0.808  -0.794  -0.793
 -0.792  -0.789  -0.789  -0.788  -0.787  -0.787  -0.781  -0.779
 -0.767  -0.766  -0.766  -0.764  -0.764  -0.764  -0.762  -0.760
 -0.752  -0.750  -0.748  -0.746  -0.735  -0.733  -0.712  -0.712
 -0.711  -0.710  -0.709  -0.708  -0.707  -0.706  -0.705  -0.704
 -0.704  -0.703  -0.703  -0.700  -0.700  -0.698  -0.673  -0.669
 -0.655  -0.655  -0.654  -0.652  -0.646  -0.644  -0.628  -0.626
 -0.625  -0.623  -0.621  -0.619  -0.619  -0.618  -0.615  -0.613
 -0.613  -0.611  -0.611  -0.609  -0.608  -0.608  -0.607  -0.606
 -0.606  -0.603  -0.598  -0.597  -0.566  -0.564  -0.562  -0.561
 -0.557  -0.556  -0.556  -0.553  -0.553  -0.551  -0.550  -0.549
 -0.536  -0.533  -0.530  -0.529  -0.525  -0.524  -0.522  -0.520
 -0.518  -0.517  -0.515  -0.513  -0.512  -0.511  -0.510  -0.510
 -0.507  -0.505  -0.504  -0.504  -0.495  -0.491  -0.486  -0.485
 -0.482  -0.480  -0.479  -0.478  -0.476  -0.476  -0.475  -0.475
 -0.472  -0.472  -0.469  -0.469  -0.467  -0.465  -0.464  -0.463
 -0.461  -0.460  -0.460  -0.459  -0.458  -0.458  -0.458  -0.456
 -0.455  -0.453  -0.453  -0.450  -0.448  -0.446  -0.441  -0.441
 -0.439  -0.438  -0.437  -0.436  -0.434  -0.432  -0.432  -0.430
 -0.429  -0.427  -0.425  -0.424  -0.424  -0.422  -0.421  -0.421
 -0.420  -0.420  -0.419  -0.417  -0.417  -0.416  -0.415  -0.415
 -0.415  -0.414  -0.413  -0.412  -0.411  -0.411  -0.410  -0.409
 -0.409  -0.407  -0.406  -0.404  -0.402  -0.400  -0.396  -0.392
 -0.391  -0.389  -0.388  -0.385  -0.385  -0.383  -0.381  -0.378
 -0.374  -0.374  -0.373  -0.370  -0.369  -0.368  -0.364  -0.362
 -0.361  -0.360  -0.359  -0.357  -0.357  -0.356  -0.355  -0.355
 -0.354  -0.353  -0.352  -0.351  -0.351  -0.350  -0.349  -0.347
 -0.347  -0.346  -0.346  -0.345  -0.344  -0.343  -0.342  -0.340
 -0.339  -0.337  -0.337  -0.335  -0.333  -0.333  -0.332  -0.331
 -0.330  -0.329  -0.327  -0.326  -0.325  -0.325  -0.324  -0.320
 -0.310  -0.309  -0.303  -0.296  -0.284  -0.281  -0.269  -0.268
 -0.266  -0.265  -0.265  -0.263  -0.263  -0.262  -0.261  -0.260
 -0.259  -0.258  -0.257  -0.257  -0.255  -0.255  -0.254  -0.250
 -0.250  -0.246  -0.243  -0.239  -0.221  -0.216  -0.211  -0.207
 -0.205  -0.204  -0.202  -0.201  -0.198  -0.194

          Ground-State Mulliken Net Atomic Charges

     Atom                 Charge (a.u.)
  ----------------------------------------
      1 O                    -0.458690
      2 C                    -0.085068
      3 H                     0.126578
      4 H                     0.128027
      5 H                     0.135107
      6 O                    -0.484158
      7 C                     0.598584
      8 C                    -0.250887
      9 H                     0.126511
     10 H                     0.135062
     11 C                    -0.175303
     12 H                     0.111982
     13 H                     0.118805
     14 C                    -0.194467
     15 H                     0.105910
     16 H                     0.102729
     17 C                     0.016984
     18 C                     0.083438
     19 C                    -0.112702
     20 H                     0.095755
     21 C                    -0.091400
     22 H                     0.093065
     23 C                    -0.078275
     24 H                     0.092931
     25 C                    -0.090434
     26 H                     0.092814
     27 C                    -0.111458
     28 H                     0.093606
     29 C                     0.020314
     30 C                    -0.011171
     31 C                    -0.000962
     32 C                     0.021692
     33 C                    -0.009616
     34 C                    -0.014833
     35 C                    -0.001857
     36 C                     0.001778
     37 C                     0.007363
     38 C                     0.001778
     39 C                    -0.076007
     40 C                     0.014892
     41 C                    -0.021417
     42 C                    -0.011825
     43 C                    -0.004158
     44 C                    -0.015140
     45 C                    -0.087773
     46 C                     0.026472
     47 C                     0.000335
     48 C                    -0.018442
     49 C                    -0.002413
     50 C                     0.004623
     51 C                    -0.025441
     52 C                     0.007553
     53 C                     0.007012
     54 C                     0.012415
     55 C                    -0.009207
     56 C                     0.000197
     57 C                     0.004833
     58 C                     0.029930
     59 C                    -0.009338
     60 C                     0.038938
     61 C                    -0.017276
     62 C                     0.001110
     63 C                    -0.000537
     64 C                    -0.006106
     65 C                    -0.007910
     66 C                    -0.027330
     67 C                    -0.026499
     68 C                    -0.024193
     69 C                     0.049313
     70 C                     0.028345
     71 C                    -0.004296
     72 C                     0.005422
     73 C                     0.007310
     74 C                    -0.021386
     75 C                     0.032651
     76 C                    -0.019113
     77 C                     0.002282
     78 C                     0.020542
     79 C                    -0.029341
     80 C                     0.022101
     81 C                    -0.016809
     82 C                    -0.007736
     83 C                     0.000455
     84 C                    -0.003228
     85 C                    -0.017562
     86 C                     0.039784
     87 C                     0.013564
     88 C                    -0.000711
     89 O                    -0.468529
     90 C                    -0.087134
     91 H                     0.123804
     92 H                     0.124073
     93 H                     0.142162
     94 O                    -0.467734
     95 C                     0.592922
     96 C                    -0.257506
     97 H                     0.122564
     98 H                     0.134220
     99 C                    -0.189111
    100 H                     0.105152
    101 H                     0.123340
    102 C                    -0.171188
    103 H                     0.122900
    104 H                     0.107046
    105 C                     0.002706
    106 C                     0.066311
    107 C                    -0.104386
    108 H                     0.106388
    109 C                    -0.090257
    110 H                     0.099503
    111 C                    -0.082701
    112 H                     0.086986
    113 C                    -0.084045
    114 H                     0.095431
    115 C                    -0.108535
    116 H                     0.096998
    117 C                    -0.003531
    118 C                     0.019368
    119 C                    -0.003435
    120 C                     0.018688
    121 C                    -0.005983
    122 C                    -0.015565
    123 C                     0.005179
    124 C                    -0.003694
    125 C                     0.021815
    126 C                     0.012816
    127 C                    -0.084593
    128 C                     0.016600
    129 C                    -0.011330
    130 C                     0.006071
    131 C                    -0.028233
    132 C                    -0.014131
    133 C                    -0.067885
    134 C                    -0.000824
    135 C                    -0.011364
    136 C                    -0.019324
    137 C                     0.031250
    138 C                    -0.012603
    139 C                    -0.011912
    140 C                     0.001925
    141 C                     0.031259
    142 C                    -0.023082
    143 C                    -0.024815
    144 C                     0.016289
    145 C                     0.009025
    146 C                    -0.024619
    147 C                     0.017716
    148 C                     0.029812
    149 C                    -0.020722
    150 C                    -0.009836
    151 C                    -0.018465
    152 C                    -0.002459
    153 C                    -0.010775
    154 C                    -0.006525
    155 C                    -0.022628
    156 C                    -0.022182
    157 C                     0.013538
    158 C                     0.008189
    159 C                     0.010698
    160 C                     0.025948
    161 C                     0.023193
    162 C                     0.006019
    163 C                    -0.011278
    164 C                     0.022964
    165 C                     0.014285
    166 C                    -0.024654
    167 C                     0.005338
    168 C                     0.015586
    169 C                     0.007345
    170 C                    -0.026472
    171 C                    -0.015800
    172 C                    -0.008805
    173 C                     0.007218
    174 C                     0.006270
    175 C                     0.008124
    176 C                     0.015204
  ----------------------------------------
  Sum of atomic charges =     0.000000

                    Cartesian Multipole Moments
 -----------------------------------------------------------------
    Charge (ESU x 10^10)
                 0.0000
    Dipole Moment (Debye)
         X       4.1667      Y      -5.8692      Z      -2.7567
       Tot       7.7077
    Quadrupole Moments (Debye-Ang)
        XX    -764.1436     XY       2.7329     YY    -776.8050
        XZ     -25.8529     YZ      -1.8917     ZZ    -792.5860

 Total job time:  848.45s(wall), 7161.57s(cpu)
        *  Thank you very much for using Q-Chem.  Have a nice day.  *
