 Q-Chem 4.4, Q-Chem, Inc., Pleasanton, CA (2016)
 Q-Chem 4.4.2 for Intel X86 Linux

User input:
--------------------------------------------------------------
$comment
SP
$end

$rem
MEM_STATIC 5000
MEM_TOTAL 20000
JOBTYPE SP
EXCHANGE B3LYP
BASIS 6-31g(d,p)
$end

$molecule
0 1
O          -6.115000      5.315000    -14.128000
C          -5.401000      6.429000    -14.750000
H          -4.724000      6.833000    -13.988000
H          -6.094000      7.219000    -15.064000
H          -4.836000      6.132000    -15.642000
O          -7.348000      4.904000    -16.018000
C          -7.002000      4.636000    -14.893000
C          -7.561000      3.384000    -14.246000
H          -6.779000      2.640000    -14.049000
H          -8.185000      2.986000    -15.055000
C          -8.365000      3.692000    -12.939000
H          -8.912000      4.610000    -13.189000
H          -9.115000      2.897000    -12.851000
C          -7.466000      3.783000    -11.640000
H          -6.887000      2.852000    -11.607000
H          -6.607000      4.445000    -11.808000
C          -8.154000      4.241000    -10.311000
C          -8.548000      5.697000    -10.427000
C          -9.743000      6.128000    -10.972000
H         -10.449000      5.494000    -11.501000
C         -10.082000      7.514000    -10.941000
H         -10.976000      7.955000    -11.371000
C          -9.125000      8.390000    -10.464000
H          -9.424000      9.434000    -10.437000
C          -7.926000      7.978000     -9.890000
H          -7.269000      8.681000     -9.386000
C          -7.682000      6.589000     -9.851000
H          -6.701000      6.278000     -9.504000
C          -9.081000      3.670000     -4.976000
C         -11.385000      4.204000     -5.847000
C         -12.913000     -0.075000     -5.265000
C          -6.928000     -0.199000     -7.285000
C         -12.410000     -1.065000     -8.597000
C          -9.938000      4.299000     -5.922000
C          -8.989000     -2.009000     -8.085000
C         -11.563000      1.245000     -3.761000
C         -11.693000      2.814000     -9.658000
C          -7.334000     -0.200000     -8.584000
C          -9.292000      3.295000     -9.804000
C         -10.981000      1.700000    -10.199000
C          -9.160000     -0.452000     -9.910000
C         -10.404000     -2.300000     -8.085000
C         -10.673000      4.194000     -8.004000
C         -12.054000     -1.925000     -6.344000
C          -8.030000      3.480000     -9.006000
C          -7.116000      2.277000     -8.694000
C         -12.809000     -1.226000     -7.270000
C          -8.646000     -0.617000     -4.298000
C         -10.915000     -1.032000     -4.271000
C         -10.675000      0.169000     -3.583000
C         -11.086000      2.584000     -3.999000
C          -6.730000      2.251000     -7.355000
C         -10.642000      3.697000     -9.330000
C         -11.922000      3.255000     -4.938000
C          -8.318000     -1.107000     -9.026000
C         -11.774000      4.055000     -7.149000
C         -11.399000      0.357000    -10.029000
C          -7.047000      0.894000     -5.326000
C         -12.660000      1.107000     -4.618000
C          -9.595000      1.926000    -10.324000
C          -8.791000      1.733000     -3.909000
C         -10.581000     -0.720000     -9.912000
C         -12.751000      2.553000     -8.816000
C          -9.650000     -2.236000     -5.905000
C          -8.544000     -1.977000     -6.757000
C         -13.191000      1.243000     -8.633000
C          -6.563000      1.012000     -6.628000
C          -7.497000      1.022000     -9.262000
C          -7.538000     -0.462000     -5.138000
C          -8.218000      4.021000     -7.654000
C         -13.330000      2.297000     -6.632000
C          -8.708000      0.851000    -10.090000
C         -12.572000      0.108000     -9.244000
C          -7.706000      1.999000     -4.711000
C         -13.400000     -0.098000     -6.591000
C          -9.688000      2.812000     -3.992000
C         -12.022000     -1.146000     -5.194000
C         -12.812000      3.188000     -7.532000
C         -13.594000      1.120000     -7.275000
C          -9.501000      4.311000     -7.252000
C          -7.409000      3.285000     -6.710000
C          -9.664000     -1.532000     -4.701000
C         -12.902000      2.303000     -5.300000
C         -11.164000     -1.621000     -9.018000
C          -7.481000     -1.080000     -6.397000
C         -10.809000     -2.463000     -6.724000
C          -7.804000      3.195000     -5.369000
C          -9.291000      0.402000     -3.684000
O         -13.711000     -2.627000      6.662000
C         -14.829000     -2.056000      7.358000
H         -14.362000     -1.488000      8.173000
H         -15.369000     -2.832000      7.915000
H         -15.465000     -1.432000      6.719000
O         -14.569000     -2.491000      4.556000
C         -13.650000     -2.760000      5.303000
C         -12.328000     -3.180000      4.830000
H         -11.597000     -2.795000      5.552000
H         -12.115000     -2.600000      3.924000
C         -12.010000     -4.662000      4.548000
H         -10.943000     -4.911000      4.594000
H         -12.422000     -5.333000      5.311000
C         -12.394000     -5.079000      3.176000
H         -13.481000     -5.040000      3.037000
H         -12.010000     -4.308000      2.495000
C         -11.877000     -6.460000      2.778000
C         -11.979000     -7.488000      3.908000
C         -13.297000     -8.006000      4.180000
H         -14.198000     -7.689000      3.664000
C         -13.436000     -9.009000      5.158000
H         -14.367000     -9.517000      5.391000
C         -12.268000     -9.398000      5.908000
H         -12.319000    -10.154000      6.686000
C         -11.021000     -8.848000      5.691000
H         -10.185000     -9.155000      6.312000
C         -10.873000     -7.870000      4.668000
H          -9.872000     -7.497000      4.474000
C          -8.036000     -9.075000     -0.113000
C          -9.980000    -10.505000     -0.390000
C         -10.482000     -9.555000     -4.771000
C          -8.995000     -4.354000     -1.486000
C         -13.067000     -7.177000     -4.190000
C          -9.206000     -9.648000      0.443000
C         -10.861000     -4.408000     -3.623000
C          -8.463000     -9.970000     -3.569000
C         -13.244000     -8.353000     -0.323000
C         -10.362000     -4.129000     -1.247000
C         -12.259000     -6.912000      1.345000
C         -13.540000     -7.042000     -0.687000
C         -12.500000     -4.739000     -1.773000
C         -11.608000     -5.259000     -4.415000
C         -11.399000     -9.281000      0.918000
C         -10.953000     -7.408000     -5.442000
C         -10.860000     -6.493000      1.693000
C         -10.210000     -5.412000      0.865000
C         -12.141000     -7.996000     -4.972000
C          -7.365000     -6.611000     -3.649000
C          -8.652000     -7.996000     -4.926000
C          -7.850000     -8.820000     -4.122000
C          -8.271000    -10.247000     -2.201000
C          -8.832000     -5.727000      0.488000
C         -12.435000     -8.358000      0.820000
C          -9.465000    -10.840000     -1.675000
C         -11.285000     -4.147000     -2.285000
C         -11.292000    -10.266000     -0.129000
C         -13.734000     -6.780000     -2.059000
C          -7.280000     -5.903000     -1.340000
C          -9.759000    -10.360000     -3.912000
C         -12.897000     -6.161000      0.186000
C          -6.990000     -8.212000     -1.934000
C         -13.208000     -5.586000     -2.646000
C         -13.234000     -9.364000     -1.292000
C          -9.378000     -5.704000     -4.803000
C          -9.506000     -4.681000     -3.786000
C         -13.350000     -9.019000     -2.633000
C          -8.222000     -5.089000     -0.624000
C         -10.985000     -4.694000     -0.104000
C          -7.540000     -5.591000     -2.658000
C          -9.761000     -7.531000      1.586000
C         -11.726000    -10.598000     -2.493000
C         -12.292000     -5.063000     -0.421000
C         -13.615000     -7.713000     -3.031000
C          -7.041000     -7.233000     -0.939000
C         -11.868000     -9.323000     -4.580000
C          -7.634000     -9.364000     -1.417000
C          -9.931000     -8.357000     -5.261000
C         -12.204000    -10.347000     -1.174000
C         -12.449000     -9.815000     -3.414000
C         -10.057000     -8.878000      1.213000
C          -8.578000     -7.043000      0.934000
C          -8.350000     -6.693000     -4.707000
C         -10.376000    -10.877000     -2.770000
C         -12.821000     -5.814000     -3.958000
C          -8.559000     -4.605000     -2.755000
C         -10.665000     -6.073000     -5.129000
C          -7.704000     -7.770000      0.154000
C          -7.161000     -7.928000     -3.329000
$end

--------------------------------------------------------------

             Standard Nuclear Orientation (Angstroms)
    I     Atom           X                Y                Z
 ----------------------------------------------------------------
    1      O     -12.9185648851    -2.2864576993    -1.6039510611
    2      C     -14.2423190280    -2.1542490521    -2.2104754571
    3      H     -14.1031584893    -1.6128770049    -3.1537355755
    4      H     -14.9182445858    -1.5781780812    -1.5668825137
    5      H     -14.7285067290    -3.1201350083    -2.3942792630
    6      O     -13.7485652974    -3.3700211486     0.2394966781
    7      C     -12.8338568030    -2.9495528781    -0.4265962613
    8      C     -11.4175538052    -3.2128738709     0.0459943364
    9      H     -10.8678934903    -3.8619208262    -0.6471727344
   10      H     -11.6010971892    -3.7979463638     0.9549844377
   11      C     -10.6183615672    -1.8934497158     0.3104573125
   12      H     -11.3624128982    -1.2367132843     0.7789846611
   13      H      -9.8836968560    -2.1356001658     1.0875672929
   14      C      -9.9194865479    -1.2982306757    -0.9784069168
   15      H      -9.3203699126    -2.1137647072    -1.4015552368
   16      H     -10.6307629351    -1.2356815945    -1.8117870901
   17      C      -9.2285888224     0.1001572058    -0.8498741745
   18      C     -10.2846613705     1.1633466580    -0.6425894375
   19      C     -10.7914729562     1.5110785857     0.5955686796
   20      H     -10.6025883419     0.9698824596     1.5184242239
   21      C     -11.7046179162     2.6017706209     0.7114788440
   22      H     -12.1832951325     2.9295416592     1.6291123597
   23      C     -12.1378219498     3.1929278505    -0.4605371095
   24      H     -12.8167526088     4.0314158318    -0.3338206329
   25      C     -11.6251069867     2.8755775652    -1.7148230270
   26      H     -11.8730420302     3.4647909210    -2.5930199500
   27      C     -10.6477269794     1.8594410212    -1.7655462493
   28      H     -10.3312394931     1.5391918145    -2.7538615415
   29      C      -5.0125137044     3.4358389456    -1.7133166625
   30      C      -5.6549633266     4.0163654194     0.6536350684
   31      C      -1.9927010571     1.9440155680     2.4637594183
   32      C      -4.1708475209    -1.4369539446    -2.4086859777
   33      C      -3.6586876041    -1.0442278846     3.2576252087
   34      C      -5.9855402745     3.5503093040    -0.6812692648
   35      C      -3.1356896088    -2.5114771680     0.0280472738
   36      C      -2.0910861953     3.3689901027     0.5178190441
   37      C      -7.2484133249     0.7157329238     2.4192588198
   38      C      -5.0056674077    -2.1347624259    -1.5911426578
   39      C      -8.0413716501     0.1519889468     0.1673956306
   40      C      -6.9342256730    -0.6386765164     2.0914140585
   41      C      -5.4733644850    -2.5487049449     0.5919668298
   42      C      -2.7222981299    -2.2396062311     1.3852870017
   43      C      -7.2378392869     2.3886153214     0.7216520710
   44      C      -1.5480659454    -0.3129089097     2.2815136520
   45      C      -7.8074150022     0.3696311840    -1.3028319516
   46      C      -6.8719393323    -0.5669042616    -2.0951296419
   47      C      -2.5719199489    -0.1713462046     3.2022660509
   48      C      -1.5653076632     0.7634529022    -1.7623201691
   49      C      -0.9204760191     1.2523846167     0.3978772592
   50      C      -1.3342898379     2.4429729629    -0.2222860364
   51      C      -3.2754206208     3.9820361712    -0.0286427446
   52      C      -5.9874716390     0.1445800228    -2.9038941395
   53      C      -7.8029681486     1.1847842579     1.2091622148
   54      C      -4.2765133253     4.1229916520     0.9757490861
   55      C      -4.5223970813    -2.7158733511    -0.4015927915
   56      C      -6.3892562222     3.2087060107     1.4765726255
   57      C      -5.8025176473    -1.3178002083     2.6064877965
   58      C      -3.5799460649     0.6138603646    -3.1097474149
   59      C      -2.4231692241     3.0908473134     1.8479541691
   60      C      -7.3833406841    -1.0258999415     0.8123320729
   61      C      -2.9446094339     2.6848075472    -2.0797614285
   62      C      -5.0768036364    -2.2602213894     1.9523291829
   63      C      -6.3284513602     1.4288341905     3.1551973817
   64      C      -1.3761555422    -1.0497579732    -0.0628750254
   65      C      -2.3086010158    -1.7866942161    -0.8398508377
   66      C      -5.2080023407     0.7881957205     3.6818522454
   67      C      -4.6313839105    -0.3011080094    -3.1361165555
   68      C      -6.3165145415    -1.6707411155    -1.3768974358
   69      C      -2.4159401990    -0.0383069307    -2.5310167669
   70      C      -7.2326708449     1.6729998137    -1.6589616592
   71      C      -4.5575554703     2.8456778452     2.9905316430
   72      C      -6.5885306009    -1.9149896246     0.0540798279
   73      C      -4.9135360971    -0.5945179606     3.4671442863
   74      C      -3.8445116497     1.9917814056    -2.8550521928
   75      C      -2.8186639571     1.2407693716     3.3688583494
   76      C      -3.6367764086     3.6768109883    -1.3638193555
   77      C      -1.3136037684     0.9518508337     1.7563705489
   78      C      -5.8858496662     2.7111022737     2.6909837421
   79      C      -4.1262741753     1.7085411350     3.6145432991
   80      C      -6.9741398523     2.5598674126    -0.6399324213
   81      C      -6.1780388660     1.4993682666    -2.6310298023
   82      C      -1.0445222247     0.2131817962    -0.5532121355
   83      C      -3.7067673408     3.5607447076     2.1406593344
   84      C      -3.7360439106    -2.1146772964     2.3157934517
   85      C      -2.8528049789    -1.2914658424    -2.0738560664
   86      C      -1.6098115746    -1.3443031050     1.3242871944
   87      C      -5.1326204077     2.4289391452    -2.7045432621
   88      C      -1.7715492319     2.0766406597    -1.5085794967
   89      O       8.1521369979     8.0942323096    -0.4790167997
   90      C       8.3895812748     9.3085718746     0.2485686841
   91      H       8.4795039564    10.0674069174    -0.5394803557
   92      H       9.4031544250     9.3100458268     0.6689165122
   93      H       7.5992958882     9.5425493833     0.9716845346
   94      O       6.7301729919     7.1247547190     1.0136410871
   95      C       7.3014557114     7.1106880291    -0.0579788001
   96      C       7.0806127182     6.0754564184    -1.0715550846
   97      H       7.1978161315     6.5600103247    -2.0489704885
   98      H       6.0135631198     5.8241137772    -1.0426235923
   99      C       7.8920750791     4.7645414277    -1.0699046310
  100      H       7.9446210668     4.2654074809    -2.0449483338
  101      H       8.9543043366     4.9278452737    -0.8527529365
  102      C       7.2991058941     3.7251848147    -0.1913521985
  103      H       7.3345134946     4.0263005849     0.8624440791
  104      H       6.2264584493     3.6928953748    -0.4238233823
  105      C       7.9298674506     2.3431685583    -0.3495448846
  106      C       9.4530799461     2.3915219527    -0.4964245733
  107      C      10.2008397419     2.6485342221     0.7094908387
  108      H       9.7519796805     2.8378433533     1.6796623174
  109      C      11.6069991275     2.6290753533     0.6450615377
  110      H      12.2642370865     2.7386529962     1.5024675124
  111      C      12.2291584882     2.4508112886    -0.6430318801
  112      H      13.3093140162     2.4443592859    -0.7554747860
  113      C      11.5069436205     2.2748965282    -1.8058120321
  114      H      12.0305357461     2.1815366198    -2.7523431798
  115      C      10.0862188168     2.2452260758    -1.7311280546
  116      H       9.5414658861     2.0439921815    -2.6484694111
  117      C       7.2335982820    -2.6005735198    -2.5909753453
  118      C       8.3421501719    -3.1163732155    -0.4919688228
  119      C       4.7230180762    -5.1010117405     1.3275799669
  120      C       3.0760592377     0.1011942451    -1.8782544747
  121      C       3.8126796349    -2.2217443080     3.2132557010
  122      C       8.1944223049    -2.2489448840    -1.6114144745
  123      C       1.9149444265    -0.6825348724     0.5893804387
  124      C       5.5506496902    -5.2918679541    -0.9022159469
  125      C       7.3374094228    -0.4958415534     2.2306400061
  126      C       3.2807266542     0.8667286259    -0.7170037005
  127      C       7.3194335147     1.2398557614     0.5525572614
  128      C       6.1991198328     0.2754254526     2.4503603159
  129      C       3.6639080189     0.8226265358     1.5348948423
  130      C       2.0827109413    -1.5285561133     1.6689991011
  131      C       8.5815586418    -0.9579483177     0.2197098583
  132      C       2.8052662088    -3.8905281409     1.6999349458
  133      C       7.0572340482     1.2848689083    -0.9249715053
  134      C       5.6243519348     1.2835994484    -1.3977211616
  135      C       3.7201263826    -3.5983822956     2.7273928123
  136      C       2.9502347391    -3.3895512403    -2.3561479269
  137      C       3.2419392486    -4.7349534890    -0.5367732354
  138      C       4.2636290664    -5.0567964614    -1.4429536905
  139      C       6.6616524478    -4.6703580927    -1.5058842041
  140      C       5.3869096146     0.3637383687    -2.5102474483
  141      C       8.0101294715    -0.0368790569     1.0914489937
  142      C       7.6195169567    -4.3437588432    -0.4910987525
  143      C       2.7133289898     0.4972936010     0.4959574088
  144      C       8.5439956579    -2.3454440132     0.6087184920
  145      C       5.0963036071    -0.3583432132     3.0592918807
  146      C       4.0257786437    -1.4485037871    -3.3129708435
  147      C       5.7806517509    -5.3480645825     0.4737586136
  148      C       6.0810517931     1.2288604344     1.4360819155
  149      C       5.2135594674    -3.5214225418    -3.0667970204
  150      C       3.7673354962    -0.0855957808     2.6050522983
  151      C       7.3862145328    -1.8188740026     2.6871322839
  152      C       1.8054794547    -2.8300279589    -0.2153529726
  153      C       1.7984652961    -1.4284949059    -0.5798497528
  154      C       6.2344261023    -2.4014959325     3.2016195024
  155      C       4.0787536112    -0.1122862151    -2.7892034779
  156      C       4.5603088850     1.4174046404    -0.4463965279
  157      C       2.9343080143    -1.9910517894    -2.6676790256
  158      C       7.5598834825     0.1318680389    -1.7703273719
  159      C       7.2146103581    -3.9453529816     1.8577589307
  160      C       4.7949197659     1.3960611805     0.9281583787
  161      C       5.0717340645    -1.6658416087     3.4046587630
  162      C       5.2113766029    -2.1901257121    -3.4895392426
  163      C       4.8924257195    -4.3550648709     2.5218016039
  164      C       6.4817304763    -3.7705953044    -2.4847452815
  165      C       3.4543784364    -4.7716681037     0.8167069560
  166      C       8.0148974239    -2.7665667929     1.8224073579
  167      C       6.1298854996    -3.7532479484     2.7355553977
  168      C       8.3025379121    -0.9389178124    -1.1846345696
  169      C       6.5913755282    -0.3443746656    -2.7179149557
  170      C       2.4235590651    -3.7953019472    -1.0699550572
  171      C       7.0245889180    -4.7668740849     0.7325634235
  172      C       2.9688395066    -1.2135913817     2.7196257635
  173      C       2.3163542351    -1.0314993691    -1.8207089675
  174      C       2.0309676062    -2.8638256680     1.1436241458
  175      C       6.4424804745    -1.6387931267    -3.1685990031
  176      C       4.0759180026    -4.1624249594    -2.4745050333
 ----------------------------------------------------------------

    9   -5804.2725537082      8.34E-06 Convergence criterion met
 Total energy in the final basis set = -5804.2725537082

                    Orbital Energies (a.u.)
 --------------------------------------------------------------

 Alpha MOs
 -- Occupied --
-19.199 -19.189 -19.134 -19.132 -10.315 -10.313 -10.250 -10.247
-10.244 -10.243 -10.242 -10.241 -10.237 -10.230 -10.229 -10.228
-10.228 -10.227 -10.226 -10.226 -10.225 -10.224 -10.224 -10.224
-10.223 -10.223 -10.222 -10.222 -10.221 -10.221 -10.219 -10.219
-10.219 -10.219 -10.219 -10.219 -10.219 -10.218 -10.217 -10.217
-10.217 -10.217 -10.216 -10.216 -10.216 -10.216 -10.216 -10.216
-10.216 -10.216 -10.215 -10.215 -10.215 -10.215 -10.215 -10.215
-10.215 -10.215 -10.214 -10.214 -10.214 -10.214 -10.214 -10.214
-10.214 -10.214 -10.213 -10.213 -10.213 -10.213 -10.212 -10.212
-10.212 -10.212 -10.212 -10.212 -10.212 -10.211 -10.211 -10.211
-10.211 -10.211 -10.211 -10.211 -10.211 -10.211 -10.211 -10.211
-10.210 -10.210 -10.210 -10.210 -10.210 -10.210 -10.210 -10.210
-10.210 -10.210 -10.209 -10.209 -10.209 -10.209 -10.209 -10.209
-10.209 -10.209 -10.209 -10.209 -10.208 -10.208 -10.208 -10.208
-10.207 -10.207 -10.207 -10.207 -10.207 -10.207 -10.207 -10.207
-10.207 -10.207 -10.207 -10.206 -10.206 -10.206 -10.206 -10.206
-10.206 -10.205 -10.204 -10.203 -10.203 -10.203 -10.202 -10.202
-10.202 -10.202 -10.201 -10.201 -10.200 -10.199 -10.198 -10.197
-10.197 -10.194 -10.194 -10.192  -1.097  -1.091  -1.016  -1.010
 -0.979  -0.979  -0.962  -0.961  -0.960  -0.959  -0.957  -0.957
 -0.933  -0.929  -0.925  -0.924  -0.921  -0.921  -0.919  -0.919
 -0.917  -0.917  -0.894  -0.889  -0.888  -0.888  -0.885  -0.881
 -0.872  -0.870  -0.854  -0.852  -0.840  -0.839  -0.838  -0.836
 -0.834  -0.831  -0.824  -0.815  -0.811  -0.798  -0.796  -0.794
 -0.793  -0.792  -0.792  -0.789  -0.788  -0.787  -0.782  -0.782
 -0.770  -0.767  -0.767  -0.766  -0.765  -0.764  -0.764  -0.762
 -0.753  -0.749  -0.749  -0.738  -0.736  -0.728  -0.716  -0.713
 -0.712  -0.711  -0.711  -0.710  -0.709  -0.707  -0.707  -0.707
 -0.705  -0.704  -0.703  -0.703  -0.701  -0.699  -0.673  -0.669
 -0.657  -0.656  -0.654  -0.653  -0.647  -0.644  -0.631  -0.628
 -0.627  -0.625  -0.623  -0.621  -0.620  -0.617  -0.616  -0.615
 -0.614  -0.614  -0.612  -0.612  -0.612  -0.610  -0.608  -0.606
 -0.606  -0.604  -0.599  -0.599  -0.568  -0.566  -0.563  -0.563
 -0.559  -0.558  -0.557  -0.557  -0.556  -0.552  -0.551  -0.550
 -0.537  -0.536  -0.531  -0.530  -0.528  -0.524  -0.522  -0.522
 -0.520  -0.518  -0.518  -0.515  -0.513  -0.513  -0.511  -0.510
 -0.506  -0.504  -0.503  -0.501  -0.491  -0.486  -0.485  -0.482
 -0.481  -0.480  -0.479  -0.479  -0.477  -0.476  -0.474  -0.473
 -0.472  -0.470  -0.469  -0.469  -0.466  -0.466  -0.465  -0.464
 -0.464  -0.462  -0.461  -0.460  -0.459  -0.458  -0.458  -0.457
 -0.455  -0.454  -0.454  -0.450  -0.449  -0.443  -0.442  -0.442
 -0.440  -0.439  -0.438  -0.437  -0.436  -0.434  -0.433  -0.432
 -0.430  -0.428  -0.427  -0.427  -0.424  -0.424  -0.423  -0.423
 -0.421  -0.420  -0.419  -0.419  -0.418  -0.417  -0.417  -0.416
 -0.415  -0.414  -0.414  -0.413  -0.412  -0.411  -0.411  -0.411
 -0.411  -0.410  -0.407  -0.407  -0.404  -0.397  -0.396  -0.395
 -0.392  -0.391  -0.391  -0.389  -0.388  -0.385  -0.383  -0.382
 -0.375  -0.374  -0.373  -0.371  -0.370  -0.368  -0.365  -0.363
 -0.363  -0.362  -0.361  -0.360  -0.358  -0.357  -0.357  -0.357
 -0.356  -0.355  -0.354  -0.352  -0.352  -0.351  -0.351  -0.350
 -0.348  -0.348  -0.346  -0.345  -0.344  -0.344  -0.342  -0.341
 -0.340  -0.339  -0.338  -0.338  -0.337  -0.334  -0.332  -0.331
 -0.331  -0.329  -0.328  -0.328  -0.326  -0.324  -0.323  -0.320
 -0.310  -0.308  -0.305  -0.294  -0.285  -0.282  -0.270  -0.268
 -0.266  -0.266  -0.266  -0.266  -0.264  -0.263  -0.262  -0.261
 -0.260  -0.259  -0.257  -0.256  -0.256  -0.255  -0.255  -0.253
 -0.251  -0.250  -0.244  -0.243  -0.222  -0.217  -0.212  -0.211
 -0.207  -0.206  -0.201  -0.201  -0.199  -0.196

          Ground-State Mulliken Net Atomic Charges

     Atom                 Charge (a.u.)
  ----------------------------------------
      1 O                    -0.460178
      2 C                    -0.092004
      3 H                     0.125216
      4 H                     0.135289
      5 H                     0.133197
      6 O                    -0.464644
      7 C                     0.600120
      8 C                    -0.261026
      9 H                     0.119880
     10 H                     0.135615
     11 C                    -0.194806
     12 H                     0.111910
     13 H                     0.112739
     14 C                    -0.190086
     15 H                     0.103731
     16 H                     0.126377
     17 C                    -0.007671
     18 C                     0.116163
     19 C                    -0.122756
     20 H                     0.096823
     21 C                    -0.087717
     22 H                     0.095333
     23 C                    -0.081942
     24 H                     0.080694
     25 C                    -0.089834
     26 H                     0.092964
     27 C                    -0.106535
     28 H                     0.089047
     29 C                    -0.030360
     30 C                    -0.042520
     31 C                     0.010227
     32 C                     0.021660
     33 C                     0.017686
     34 C                    -0.023721
     35 C                    -0.012886
     36 C                     0.000205
     37 C                    -0.001803
     38 C                    -0.000705
     39 C                    -0.066068
     40 C                     0.003737
     41 C                    -0.009014
     42 C                     0.000086
     43 C                     0.015801
     44 C                    -0.013035
     45 C                    -0.071991
     46 C                    -0.000334
     47 C                     0.011245
     48 C                     0.020254
     49 C                    -0.002382
     50 C                    -0.018317
     51 C                    -0.007539
     52 C                     0.020711
     53 C                    -0.004269
     54 C                     0.012852
     55 C                    -0.015737
     56 C                     0.022237
     57 C                    -0.000163
     58 C                    -0.022820
     59 C                     0.010703
     60 C                     0.026560
     61 C                     0.004865
     62 C                     0.015381
     63 C                    -0.004900
     64 C                     0.024028
     65 C                    -0.009323
     66 C                    -0.000759
     67 C                    -0.023971
     68 C                    -0.006197
     69 C                    -0.031452
     70 C                     0.006948
     71 C                     0.021292
     72 C                    -0.003551
     73 C                    -0.013727
     74 C                     0.033056
     75 C                    -0.024061
     76 C                    -0.022740
     77 C                     0.019543
     78 C                    -0.008006
     79 C                    -0.012178
     80 C                     0.068055
     81 C                     0.001336
     82 C                    -0.021472
     83 C                     0.002697
     84 C                    -0.012617
     85 C                     0.023809
     86 C                    -0.010783
     87 C                    -0.003007
     88 C                     0.024146
     89 O                    -0.469220
     90 C                    -0.086926
     91 H                     0.123706
     92 H                     0.122968
     93 H                     0.142540
     94 O                    -0.466853
     95 C                     0.591010
     96 C                    -0.257902
     97 H                     0.122481
     98 H                     0.134471
     99 C                    -0.188565
    100 H                     0.105099
    101 H                     0.122974
    102 C                    -0.166582
    103 H                     0.121451
    104 H                     0.108149
    105 C                     0.001405
    106 C                     0.067353
    107 C                    -0.101101
    108 H                     0.103779
    109 C                    -0.090596
    110 H                     0.098712
    111 C                    -0.082435
    112 H                     0.087239
    113 C                    -0.084197
    114 H                     0.095934
    115 C                    -0.108831
    116 H                     0.097585
    117 C                    -0.004322
    118 C                     0.020601
    119 C                    -0.003645
    120 C                     0.017473
    121 C                    -0.005764
    122 C                    -0.015178
    123 C                     0.011790
    124 C                    -0.004276
    125 C                     0.029840
    126 C                     0.011650
    127 C                    -0.081322
    128 C                     0.013103
    129 C                    -0.015340
    130 C                     0.006413
    131 C                    -0.028060
    132 C                    -0.015316
    133 C                    -0.066488
    134 C                    -0.001943
    135 C                    -0.010444
    136 C                    -0.019580
    137 C                     0.029815
    138 C                    -0.012427
    139 C                    -0.011735
    140 C                     0.001985
    141 C                     0.030814
    142 C                    -0.024029
    143 C                    -0.022767
    144 C                     0.015135
    145 C                    -0.004087
    146 C                    -0.023984
    147 C                     0.018779
    148 C                     0.021839
    149 C                    -0.020761
    150 C                    -0.011682
    151 C                    -0.018876
    152 C                    -0.002633
    153 C                    -0.004898
    154 C                    -0.005700
    155 C                    -0.022527
    156 C                    -0.019738
    157 C                     0.014264
    158 C                     0.008294
    159 C                     0.011204
    160 C                     0.024195
    161 C                     0.025749
    162 C                     0.006066
    163 C                    -0.011413
    164 C                     0.023590
    165 C                     0.015286
    166 C                    -0.024817
    167 C                     0.004673
    168 C                     0.014777
    169 C                     0.006797
    170 C                    -0.026082
    171 C                    -0.015953
    172 C                    -0.008386
    173 C                     0.004249
    174 C                     0.005361
    175 C                     0.008648
    176 C                     0.015522
  ----------------------------------------
  Sum of atomic charges =     0.000000

                    Cartesian Multipole Moments
 -----------------------------------------------------------------
    Charge (ESU x 10^10)
                 0.0000
    Dipole Moment (Debye)
         X       1.4495      Y       3.9273      Z      -2.9893
       Tot       5.1440
    Quadrupole Moments (Debye-Ang)
        XX    -726.5108     XY      16.1176     YY    -796.3390
        XZ      17.5925     YZ      -3.5477     ZZ    -803.4837

 Total job time:  831.84s(wall), 6976.73s(cpu)
        *  Thank you very much for using Q-Chem.  Have a nice day.  *
