 Q-Chem 4.4, Q-Chem, Inc., Pleasanton, CA (2016)
 Q-Chem 4.4.2 for Intel X86 Linux

User input:
--------------------------------------------------------------
$comment
SP
$end

$rem
MEM_STATIC 5000
MEM_TOTAL 20000
JOBTYPE SP
EXCHANGE B3LYP
BASIS 6-31g(d,p)
$end

$molecule
0 1
O           8.500000    -10.299000     -2.808000
C           8.822000     -9.631000     -4.014000
H           9.237000    -10.314000     -4.766000
H           9.515000     -8.802000     -3.826000
H           7.893000     -9.196000     -4.404000
O           7.883000     -8.318000     -1.800000
C           8.012000     -9.532000     -1.735000
C           7.550000    -10.475000     -0.639000
H           8.313000    -11.201000     -0.331000
H           6.735000    -11.033000     -1.117000
C           6.984000     -9.721000      0.573000
H           7.456000     -8.769000      0.846000
H           5.921000     -9.679000      0.307000
C           6.891000    -10.653000      1.781000
H           6.560000    -11.662000      1.502000
H           7.883000    -10.794000      2.225000
C           5.870000    -10.203000      2.909000
C           6.136000     -8.809000      3.342000
C           5.451000     -7.709000      2.805000
H           4.743000     -7.911000      2.006000
C           5.860000     -6.400000      3.237000
H           5.456000     -5.500000      2.782000
C           6.833000     -6.189000      4.177000
H           7.124000     -5.186000      4.475000
C           7.595000     -7.290000      4.594000
H           8.510000     -7.084000      5.143000
C           7.253000     -8.611000      4.163000
H           7.895000     -9.432000      4.469000
C           4.100000    -11.575000      7.864000
C           2.245000    -10.284000      6.973000
C          -0.421000    -13.880000      6.392000
C           5.495000    -15.363000      4.830000
C           0.149000    -14.281000      3.075000
C           3.612000    -10.524000      7.069000
C           3.181000    -16.322000      3.495000
C           1.004000    -13.264000      8.295000
C           2.128000    -10.661000      2.982000
C           5.212000    -14.931000      3.533000
C           4.519000    -10.850000      3.014000
C           2.498000    -11.754000      2.130000
C           3.531000    -14.323000      2.124000
C           1.765000    -16.084000      3.448000
C           3.248000     -9.824000      4.943000
C           0.058000    -15.568000      5.120000
C           5.618000    -11.215000      3.973000
C           6.020000    -12.661000      4.034000
C          -0.479000    -14.558000      4.288000
C           3.286000    -15.889000      7.612000
C           1.072000    -15.492000      7.341000
C           1.576000    -14.509000      8.209000
C           1.854000    -12.162000      8.486000
C           6.156000    -13.102000      5.377000
C           3.330000    -10.163000      3.546000
C           1.339000    -11.152000      7.616000
C           4.062000    -15.384000      2.867000
C           1.996000     -9.894000      5.627000
C           1.578000    -12.874000      1.923000
C           5.371000    -14.736000      6.984000
C           0.003000    -12.930000      7.347000
C           3.938000    -11.949000      2.189000
C           3.812000    -13.711000      8.533000
C           2.195000    -14.164000      1.933000
C           0.901000    -10.836000      3.671000
C           2.227000    -16.703000      5.543000
C           3.413000    -16.743000      4.802000
C          -0.017000    -11.881000      3.468000
C           5.952000    -14.415000      5.758000
C           5.462000    -13.627000      3.157000
C           4.502000    -15.835000      6.804000
C           5.377000    -10.945000      5.440000
C          -0.135000    -11.207000      5.664000
C           4.445000    -13.281000      2.241000
C           0.359000    -12.950000      2.669000
C           5.015000    -13.643000      7.800000
C          -0.842000    -13.477000      5.127000
C           3.234000    -12.422000      8.516000
C           0.068000    -15.154000      6.434000
C           0.851000    -10.436000      4.990000
C          -0.625000    -12.148000      4.734000
C           4.278000    -10.198000      5.866000
C           5.764000    -12.054000      6.166000
C           2.147000    -16.256000      6.874000
C           0.138000    -11.598000      6.982000
C           1.262000    -15.000000      2.650000
C           4.559000    -16.230000      5.479000
C           1.186000    -16.324000      4.706000
C           5.184000    -12.337000      7.387000
C           2.939000    -14.833000      8.425000
O          -4.319000     -8.641000      7.217000
C          -5.607000     -8.691000      7.886000
H          -5.915000     -9.743000      7.848000
H          -6.364000     -8.081000      7.376000
H          -5.574000     -8.536000      8.971000
O          -4.014000     -6.344000      7.399000
C          -3.641000     -7.494000      7.140000
C          -2.196000     -7.818000      6.705000
H          -2.305000     -8.517000      5.866000
H          -1.672000     -8.434000      7.447000
C          -1.178000     -6.664000      6.357000
H          -1.456000     -6.056000      5.487000
H          -1.133000     -5.878000      7.122000
C           0.240000     -7.128000      6.256000
H           0.404000     -7.935000      6.981000
H           0.328000     -7.728000      5.341000
C           1.364000     -6.050000      6.285000
C           1.504000     -5.316000      5.017000
C           0.753000     -4.093000      4.804000
H           0.133000     -3.716000      5.613000
C           0.942000     -3.308000      3.651000
H           0.473000     -2.330000      3.589000
C           1.712000     -3.792000      2.583000
H           1.771000     -3.346000      1.594000
C           2.324000     -5.045000      2.693000
H           2.765000     -5.366000      1.754000
C           2.216000     -5.839000      3.894000
H           2.727000     -6.795000      3.951000
C           6.587000     -4.810000      7.529000
C           5.314000     -2.718000      7.892000
C           5.489000     -2.866000     12.494000
C           4.423000     -8.649000     10.084000
C           2.343000     -4.206000     12.825000
C           5.534000     -3.896000      7.171000
C           3.396000     -7.663000     12.548000
C           7.219000     -3.407000     10.806000
C           1.586000     -3.565000      8.988000
C           3.033000     -8.426000     10.154000
C           1.664000     -5.430000      7.621000
C           0.994000     -4.622000      9.702000
C           1.478000     -6.998000     11.042000
C           3.148000     -6.466000     13.276000
C           3.302000     -3.521000      7.288000
C           4.569000     -4.611000     13.596000
C           2.706000     -6.329000      7.020000
C           3.032000     -7.484000      7.875000
C           3.604000     -3.741000     13.223000
C           7.255000     -6.915000     11.499000
C           6.723000     -4.991000     12.563000
C           7.465000     -4.651000     11.420000
C           7.152000     -3.382000      9.411000
C           4.414000     -7.683000      7.888000
C           2.060000     -4.016000      7.754000
C           6.136000     -2.458000      9.035000
C           2.525000     -7.876000     11.411000
C           3.953000     -2.550000      8.005000
C           1.050000     -4.675000     11.082000
C           6.408000     -7.791000      9.364000
C           6.205000     -2.553000     11.301000
C           0.981000     -5.794000      8.993000
C           7.712000     -5.765000      9.353000
C           1.259000     -5.842000     11.792000
C           2.229000     -2.512000      9.712000
C           5.365000     -6.870000     13.087000
C           4.725000     -7.905000     12.375000
C           2.256000     -2.516000     11.114000
C           5.153000     -8.272000      8.958000
C           2.322000     -7.845000      9.043000
C           6.487000     -7.863000     10.767000
C           4.062000     -5.811000      6.702000
C           4.174000     -1.659000     10.327000
C           1.360000     -6.977000      9.606000
C           1.708000     -3.610000     11.752000
C           7.079000     -6.782000      8.656000
C           4.148000     -2.605000     12.559000
C           7.337000     -4.547000      8.663000
C           5.747000     -4.099000     13.081000
C           3.411000     -2.002000      9.193000
C           3.501000     -2.017000     11.497000
C           4.281000     -4.400000      6.801000
C           5.080000     -6.660000      7.184000
C           6.612000     -6.377000     12.615000
C           5.545000     -1.929000     10.215000
C           2.098000     -5.559000     12.872000
C           5.242000     -8.370000     11.172000
C           4.369000     -5.986000     13.635000
C           6.361000     -6.230000      7.547000
C           7.810000     -5.816000     10.727000
$end

--------------------------------------------------------------

             Standard Nuclear Orientation (Angstroms)
    I     Atom           X                Y                Z
 ----------------------------------------------------------------
    1      O      -6.7310054719    -8.5215604849    -1.0314487533
    2      C      -6.9249341072    -9.7096975123    -1.7764763291
    3      H      -7.9048089219   -10.1636940805    -1.5816675417
    4      H      -6.1226393001   -10.4298866615    -1.5752683971
    5      H      -6.8627341827    -9.4422462494    -2.8390049129
    6      O      -4.5783549911    -8.2960940324    -1.8291797773
    7      C      -5.4920256578    -7.8652159835    -1.1405492378
    8      C      -5.5891540731    -6.5297645294    -0.4256754835
    9      H      -5.9391596695    -6.6088632471     0.6113146203
   10      H      -6.3601521500    -5.9967458271    -0.9962243669
   11      C      -4.2791567519    -5.7328359991    -0.5070876214
   12      H      -3.3380230988    -6.2954583715    -0.4704746034
   13      H      -4.4580183861    -5.1411893017    -1.4128755112
   14      C      -4.2819681663    -4.6017484836     0.5211001670
   15      H      -5.2652431250    -4.1206457461     0.6059147384
   16      H      -4.0758985079    -5.0010701435     1.5206793323
   17      C      -3.2847388332    -3.4055913174     0.2176752324
   18      C      -1.9061460375    -3.9061551740    -0.0068213801
   19      C      -1.3968561362    -4.1636704938    -1.2881892651
   20      H      -2.0776533764    -4.0334722482    -2.1248687345
   21      C      -0.0793843006    -4.7331143603    -1.3741406775
   22      H       0.3350444291    -5.0647220107    -2.3220468934
   23      C       0.7070215312    -4.9758515023    -0.2798397373
   24      H       1.6952994724    -5.4150519485    -0.3793569666
   25      C       0.1272122115    -4.8417248711     0.9900284447
   26      H       0.6680721923    -5.2647545374     1.8323932009
   27      C      -1.1960099069    -4.3148518947     1.1287875607
   28      H      -1.6279520288    -4.2704738302     2.1244268481
   29      C      -1.4240875236     1.2464545543     2.3304352547
   30      C      -1.0346600053     1.5471409572    -0.0485395025
   31      C      -4.3557002134     4.5620077234    -0.5560858729
   32      C      -6.2063522192     0.0279667518     3.4006487178
   33      C      -6.6726491080     2.4160434840    -1.7868479552
   34      C      -1.1019733081     0.7199020622     1.0679951946
   35      C      -7.8877080110     1.3037117602     1.5027500443
   36      C      -2.6397999865     4.3848784739     1.1919992623
   37      C      -3.7764531162    -0.5025782344    -2.1378266471
   38      C      -6.6705765737    -0.6848258159     2.2936959166
   39      C      -3.7948486494    -2.1196695517    -0.3663009555
   40      C      -5.1435357044    -0.8174779905    -1.8388678862
   41      C      -7.1292854556    -0.5317325500     0.0695433558
   42      C      -7.7943207076     2.1948637220     0.3797914554
   43      C      -1.8646775620    -0.5167135988    -0.6731067347
   44      C      -6.4445280658     4.1668957055    -0.1348333401
   45      C      -3.4461620056    -2.2111159064     1.0934120946
   46      C      -4.5328994391    -1.8850195756     2.0777412742
   47      C      -6.1797045956     3.6706441089    -1.4326375944
   48      C      -5.0252355752     3.4117204144     3.6266036334
   49      C      -4.9802381588     4.6820799090     1.7512348731
   50      C      -3.6495838204     4.4247135904     2.1211681233
   51      C      -1.6126109991     3.4447651897     1.3776192968
   52      C      -4.0545325340    -1.0370972277     3.1115782033
   53      C      -2.9822942726    -1.2393012953    -1.2227010477
   54      C      -1.3699794822     2.9110193218     0.0743655627
   55      C      -7.4890695019    -0.0617126433     1.3381519351
   56      C      -1.5604294788     0.7987838674    -1.1391105120
   57      C      -6.1979871341     0.1707769933    -2.0736726338
   58      C      -4.4005839033     1.0986101427     4.2013637225
   59      C      -3.0016978626     4.4248993455    -0.1790183368
   60      C      -5.1944910675    -1.7361502738    -0.7125682872
   61      C      -2.7167943223     2.6905630586     3.4864892156
   62      C      -7.1825827526     0.2513717386    -1.0397650194
   63      C      -3.5509642016     0.8399240989    -2.5349629392
   64      C      -6.9819777678     3.3111780099     2.1346622081
   65      C      -7.4110573435     2.0543216606     2.5745256358
   66      C      -4.5436078180     1.7990132859    -2.8009790710
   67      C      -4.8688890567    -0.1474109908     3.7868765476
   68      C      -5.8581341539    -1.6009661836     1.6573657026
   69      C      -5.4195666799     2.0574155892     4.0071261957
   70      C      -2.3477150529    -1.3070545175     1.6024870372
   71      C      -2.6747559243     2.8705877887    -1.9949166141
   72      C      -6.1917430347    -1.5359829422     0.2871309442
   73      C      -5.8590624390     1.5005482002    -2.4799872755
   74      C      -3.0548440980     1.3828854167     3.8924738633
   75      C      -4.8297218305     3.9778973736    -1.7282606064
   76      C      -1.7354484997     2.5784524564     2.4763973438
   77      C      -5.3140646890     4.7461139644     0.3986933811
   78      C      -2.4313056786     1.4705464681    -2.0340226043
   79      C      -4.0094468350     3.0656342712    -2.4084840724
   80      C      -1.5483138065    -0.5757843702     0.7230055882
   81      C      -2.7625290422    -0.7244991472     2.7837086907
   82      C      -5.8192424827     3.9513227217     2.5994539945
   83      C      -2.1657657199     3.5861434709    -0.9024684288
   84      C      -7.4486592758     1.6641179334    -0.9100519779
   85      C      -6.5386134960     1.4163479353     3.5054634741
   86      C      -7.2423587430     3.4253437747     0.7755967476
   87      C      -2.2672016792     0.5027322674     3.1785299902
   88      C      -3.7101495367     3.7026497598     3.3395098728
   89      O       0.1069738167     5.7264610946    -5.2519072970
   90      C       0.4161852542     7.0511290759    -5.7604818010
   91      H      -0.4527545023     7.6709297348    -5.5078895547
   92      H       0.5513811583     7.0567504686    -6.8499493165
   93      H       1.2031252466     7.5864959354    -5.2160125419
   94      O       2.0476482077     4.6928306574    -6.0053985229
   95      C       0.9979687129     4.7380236560    -5.3536005857
   96      C       0.5434783431     3.5846588790    -4.4341365053
   97      H      -0.5266131056     3.4622597952    -4.6446733326
   98      H       0.5344300263     3.8809730531    -3.3773905386
   99      C       1.2902738143     2.1949904660    -4.4503299051
  100      H       1.2262580014     1.6525695664    -5.4019230657
  101      H       2.3809247696     2.2860057527    -4.3652257848
  102      C       0.9279527786     1.3081675024    -3.3020749254
  103      H       0.7407998964     1.9288388025    -2.4169133945
  104      H      -0.1011557687     0.9616569335    -3.4628076961
  105      C       1.8499647572     0.0888541023    -3.0029599919
  106      C       1.6618330026    -1.0309472443    -3.9393527444
  107      C       2.4632077876    -1.1050194023    -5.1465854350
  108      H       3.2265312006    -0.3491951361    -5.3111364782
  109      C       2.3879257037    -2.2144792104    -6.0095955985
  110      H       3.1010808637    -2.3058506701    -6.8240585958
  111      C       1.3887895132    -3.1830598763    -5.8325126616
  112      H       1.1397462329    -3.9699088863    -6.5391696364
  113      C       0.4942987695    -3.0564608545    -4.7645650988
  114      H      -0.3125371301    -3.7810149597    -4.8218379510
  115      C       0.5955696624    -1.9738898389    -3.8146781568
  116      H      -0.1012971955    -1.9242437402    -2.9838846523
  117      C       3.8333423824    -3.4332313816     0.7421691168
  118      C       5.6490655227    -3.1519332577    -0.9169821250
  119      C       8.3519729417    -0.5838279156     1.7904261257
  120      C       2.2596793582     1.1146515149     2.4122552960
  121      C       7.3486393207     2.3934274771     0.4005524006
  122      C       4.2878577027    -3.2504796651    -0.6114876468
  123      C       4.4964816763     2.8652302222     2.5866415894
  124      C       6.9737195227    -2.5714694187     2.3239275485
  125      C       5.4756151024     0.4823305792    -2.5227997719
  126      C       2.4139083087     2.0601704067     1.3783614639
  127      C       3.1701798759     0.3906663290    -2.3508576837
  128      C       5.0489444792     1.7378011587    -2.0545532522
  129      C       4.0125101328     3.1095883311     0.1178269630
  130      C       5.8756768394     2.9802147970     2.2566472715
  131      C       4.5516891491    -1.7363483473    -2.2770017778
  132      C       7.6033670992     1.4038730180     2.5614405817
  133      C       2.1410796965    -0.3391307290    -1.5362933370
  134      C       1.7658864995     0.3793297690    -0.3056956864
  135      C       8.0180462307     1.5326778276     1.2813216267
  136      C       4.6265149664    -0.7962473484     4.3553867218
  137      C       6.7722952035    -0.5767377646     3.6739626859
  138      C       6.3772185941    -1.8980736641     3.4082581254
  139      C       6.1380422099    -3.3320004548     1.5027241803
  140      C       1.6809624405    -0.5225642505     0.7568809376
  141      C       4.3873429748    -0.3826496760    -2.6580991964
  142      C       6.5911868352    -3.1900330469     0.1603705742
  143      C       3.5928859083     2.9230150182     1.4566174280
  144      C       5.7874526093    -2.1805376121    -1.8816341420
  145      C       5.8528168364     2.5088273919    -1.2362301003
  146      C       2.5903299458    -1.0614602197     3.0038606604
  147      C       7.9037985094    -1.9043678100     1.4917824157
  148      C       3.6889527389     1.8104628630    -1.9076630101
  149      C       4.2454722742    -2.8119860906     2.9667655388
  150      C       5.3740967925     3.2328251880    -0.1609048886
  151      C       6.7800852602     0.0150466987    -2.1672194260
  152      C       5.5442381117     1.4472158501     3.8857846503
  153      C       4.2614644358     1.9120156307     3.5305074904
  154      C       7.6347712943     0.7998028045    -1.3798068038
  155      C       1.9036703926    -0.2031782497     2.1303203249
  156      C       2.1611328517     1.7004817889     0.0057247069
  157      C       3.3943112647    -0.2861226099     3.8596057332
  158      C       2.4193388914    -1.6989062010    -1.0054765268
  159      C       7.9205741282    -1.3663109514    -0.8710731439
  160      C       3.1462451912     2.3636880583    -0.7594864553
  161      C       7.1344765467     1.9950967107    -0.9052947983
  162      C       2.9864144008    -2.3508157846     2.6162199350
  163      C       8.5354607976     0.3085510820     0.7703188120
  164      C       4.7689806914    -3.4261582904     1.7630295020
  165      C       7.7482278605     0.0611225057     2.8632508229
  166      C       6.9211079547    -1.3320552066    -1.8638812382
  167      C       8.3211373815    -0.0716933939    -0.5341644619
  168      C       3.6051101460    -2.3638158931    -1.4532762957
  169      C       2.0903216784    -1.8116566431     0.3614484936
  170      C       5.7035708641     0.0873053970     4.2680131600
  171      C       7.7026558282    -2.3034577826     0.1484132127
  172      C       6.2966951028     3.1372923919     0.8831716616
  173      C       3.1830724189     1.0396116152     3.4486240860
  174      C       6.5312458966     2.1197626606     3.0812522269
  175      C       2.7116167034    -2.6927409388     1.2532516983
  176      C       5.0492164339    -2.0752511826     3.8101503863
 ----------------------------------------------------------------

    9   -5804.2913296470      8.92E-06 Convergence criterion met
 Total energy in the final basis set = -5804.2913296470

                    Orbital Energies (a.u.)
 --------------------------------------------------------------

 Alpha MOs
 -- Occupied --
-19.203 -19.187 -19.149 -19.134 -10.326 -10.321 -10.253 -10.245
-10.242 -10.240 -10.239 -10.237 -10.237 -10.237 -10.235 -10.235
-10.235 -10.232 -10.229 -10.228 -10.227 -10.226 -10.225 -10.224
-10.224 -10.223 -10.223 -10.223 -10.223 -10.222 -10.222 -10.222
-10.222 -10.222 -10.221 -10.221 -10.221 -10.221 -10.221 -10.221
-10.221 -10.221 -10.220 -10.220 -10.220 -10.220 -10.220 -10.219
-10.219 -10.219 -10.219 -10.219 -10.219 -10.218 -10.218 -10.218
-10.218 -10.218 -10.217 -10.217 -10.217 -10.217 -10.217 -10.217
-10.217 -10.216 -10.216 -10.216 -10.216 -10.216 -10.216 -10.216
-10.215 -10.215 -10.215 -10.215 -10.215 -10.215 -10.215 -10.215
-10.215 -10.214 -10.214 -10.214 -10.214 -10.214 -10.214 -10.214
-10.214 -10.214 -10.213 -10.213 -10.213 -10.213 -10.213 -10.213
-10.212 -10.212 -10.212 -10.212 -10.212 -10.212 -10.212 -10.212
-10.211 -10.211 -10.211 -10.210 -10.210 -10.210 -10.210 -10.210
-10.209 -10.209 -10.209 -10.209 -10.209 -10.209 -10.209 -10.208
-10.208 -10.208 -10.208 -10.208 -10.208 -10.207 -10.207 -10.207
-10.207 -10.206 -10.205 -10.205 -10.204 -10.204 -10.204 -10.204
-10.203 -10.202 -10.201 -10.201 -10.199 -10.198 -10.198 -10.198
-10.195 -10.194 -10.194 -10.189  -1.099  -1.088  -1.014  -1.005
 -0.986  -0.982  -0.971  -0.964  -0.963  -0.963  -0.962  -0.958
 -0.940  -0.932  -0.930  -0.927  -0.926  -0.925  -0.924  -0.923
 -0.921  -0.915  -0.900  -0.895  -0.890  -0.890  -0.886  -0.886
 -0.876  -0.870  -0.855  -0.845  -0.844  -0.841  -0.841  -0.838
 -0.836  -0.834  -0.826  -0.817  -0.815  -0.801  -0.801  -0.798
 -0.797  -0.796  -0.794  -0.793  -0.792  -0.789  -0.787  -0.780
 -0.774  -0.773  -0.771  -0.770  -0.767  -0.766  -0.764  -0.761
 -0.750  -0.747  -0.744  -0.740  -0.738  -0.729  -0.719  -0.718
 -0.716  -0.715  -0.714  -0.713  -0.712  -0.711  -0.710  -0.709
 -0.708  -0.707  -0.705  -0.703  -0.700  -0.700  -0.677  -0.670
 -0.662  -0.660  -0.657  -0.655  -0.650  -0.646  -0.637  -0.630
 -0.629  -0.626  -0.625  -0.624  -0.622  -0.622  -0.619  -0.616
 -0.616  -0.615  -0.614  -0.614  -0.612  -0.611  -0.610  -0.609
 -0.607  -0.604  -0.602  -0.599  -0.568  -0.567  -0.564  -0.563
 -0.560  -0.559  -0.558  -0.557  -0.557  -0.555  -0.553  -0.552
 -0.539  -0.537  -0.533  -0.532  -0.529  -0.529  -0.528  -0.526
 -0.525  -0.523  -0.521  -0.517  -0.516  -0.516  -0.514  -0.512
 -0.510  -0.508  -0.505  -0.498  -0.496  -0.491  -0.490  -0.489
 -0.485  -0.483  -0.483  -0.482  -0.480  -0.479  -0.477  -0.476
 -0.474  -0.474  -0.471  -0.470  -0.470  -0.470  -0.468  -0.467
 -0.467  -0.465  -0.465  -0.463  -0.462  -0.461  -0.460  -0.459
 -0.457  -0.454  -0.454  -0.453  -0.449  -0.449  -0.446  -0.445
 -0.442  -0.442  -0.441  -0.439  -0.439  -0.437  -0.436  -0.434
 -0.432  -0.430  -0.429  -0.427  -0.427  -0.426  -0.425  -0.424
 -0.423  -0.422  -0.421  -0.420  -0.420  -0.419  -0.419  -0.418
 -0.417  -0.417  -0.416  -0.416  -0.415  -0.415  -0.414  -0.413
 -0.412  -0.411  -0.409  -0.407  -0.405  -0.403  -0.402  -0.397
 -0.394  -0.393  -0.392  -0.391  -0.387  -0.385  -0.384  -0.383
 -0.379  -0.376  -0.373  -0.372  -0.370  -0.368  -0.368  -0.366
 -0.366  -0.365  -0.363  -0.362  -0.361  -0.360  -0.358  -0.357
 -0.357  -0.356  -0.355  -0.354  -0.353  -0.353  -0.352  -0.350
 -0.350  -0.349  -0.348  -0.348  -0.347  -0.345  -0.345  -0.344
 -0.342  -0.342  -0.341  -0.341  -0.339  -0.338  -0.336  -0.335
 -0.333  -0.332  -0.331  -0.329  -0.327  -0.327  -0.325  -0.319
 -0.317  -0.305  -0.303  -0.297  -0.291  -0.285  -0.280  -0.274
 -0.273  -0.271  -0.270  -0.268  -0.268  -0.266  -0.265  -0.264
 -0.263  -0.260  -0.260  -0.259  -0.257  -0.255  -0.253  -0.252
 -0.250  -0.245  -0.244  -0.241  -0.224  -0.215  -0.215  -0.212
 -0.210  -0.208  -0.208  -0.206  -0.205  -0.198

          Ground-State Mulliken Net Atomic Charges

     Atom                 Charge (a.u.)
  ----------------------------------------
      1 O                    -0.482359
      2 C                    -0.076479
      3 H                     0.120691
      4 H                     0.124787
      5 H                     0.117933
      6 O                    -0.465196
      7 C                     0.605432
      8 C                    -0.274264
      9 H                     0.136983
     10 H                     0.148764
     11 C                    -0.167080
     12 H                     0.141407
     13 H                     0.109894
     14 C                    -0.183445
     15 H                     0.100321
     16 H                     0.106689
     17 C                    -0.009123
     18 C                     0.090295
     19 C                    -0.111096
     20 H                     0.097956
     21 C                    -0.099502
     22 H                     0.095768
     23 C                    -0.067942
     24 H                     0.100278
     25 C                    -0.100127
     26 H                     0.093626
     27 C                    -0.107708
     28 H                     0.091162
     29 C                    -0.007934
     30 C                     0.009053
     31 C                     0.025525
     32 C                    -0.031101
     33 C                     0.036504
     34 C                    -0.004407
     35 C                    -0.018739
     36 C                    -0.016720
     37 C                    -0.007437
     38 C                     0.002845
     39 C                    -0.076537
     40 C                    -0.014195
     41 C                     0.039395
     42 C                    -0.021148
     43 C                    -0.018081
     44 C                    -0.001215
     45 C                    -0.078753
     46 C                     0.016127
     47 C                    -0.021165
     48 C                    -0.023762
     49 C                    -0.007688
     50 C                     0.040401
     51 C                    -0.019573
     52 C                     0.022605
     53 C                     0.025406
     54 C                    -0.012375
     55 C                     0.003403
     56 C                    -0.015055
     57 C                    -0.028897
     58 C                    -0.013332
     59 C                    -0.002210
     60 C                     0.020580
     61 C                    -0.022311
     62 C                    -0.001899
     63 C                     0.016731
     64 C                     0.033538
     65 C                    -0.015607
     66 C                    -0.007984
     67 C                     0.005913
     68 C                     0.004123
     69 C                     0.010977
     70 C                     0.036971
     71 C                    -0.015814
     72 C                    -0.029237
     73 C                     0.002216
     74 C                     0.003268
     75 C                    -0.003951
     76 C                     0.032067
     77 C                     0.000544
     78 C                     0.015058
     79 C                    -0.011883
     80 C                     0.013807
     81 C                     0.019695
     82 C                    -0.000252
     83 C                    -0.001815
     84 C                    -0.015573
     85 C                     0.011314
     86 C                     0.002715
     87 C                    -0.003868
     88 C                    -0.009148
     89 O                    -0.447643
     90 C                    -0.091986
     91 H                     0.126381
     92 H                     0.139098
     93 H                     0.132394
     94 O                    -0.482035
     95 C                     0.600350
     96 C                    -0.268636
     97 H                     0.130271
     98 H                     0.132768
     99 C                    -0.176757
    100 H                     0.113579
    101 H                     0.112991
    102 C                    -0.190452
    103 H                     0.099354
    104 H                     0.110221
    105 C                     0.013236
    106 C                     0.080038
    107 C                    -0.107466
    108 H                     0.096241
    109 C                    -0.091385
    110 H                     0.092667
    111 C                    -0.078621
    112 H                     0.091452
    113 C                    -0.098062
    114 H                     0.087949
    115 C                    -0.112030
    116 H                     0.100565
    117 C                    -0.018389
    118 C                    -0.019700
    119 C                    -0.011959
    120 C                    -0.000664
    121 C                    -0.005962
    122 C                    -0.013676
    123 C                    -0.019550
    124 C                    -0.007962
    125 C                     0.017619
    126 C                    -0.029356
    127 C                    -0.110576
    128 C                     0.027284
    129 C                    -0.002562
    130 C                     0.001820
    131 C                     0.007558
    132 C                     0.013542
    133 C                    -0.099883
    134 C                     0.065882
    135 C                    -0.004522
    136 C                    -0.038030
    137 C                     0.017884
    138 C                     0.007065
    139 C                    -0.006166
    140 C                    -0.006143
    141 C                     0.036200
    142 C                    -0.012763
    143 C                     0.000509
    144 C                     0.029416
    145 C                    -0.001233
    146 C                     0.008286
    147 C                    -0.006522
    148 C                     0.011471
    149 C                     0.008378
    150 C                    -0.017829
    151 C                    -0.026696
    152 C                    -0.017829
    153 C                     0.013103
    154 C                    -0.005886
    155 C                    -0.001765
    156 C                     0.007455
    157 C                     0.015114
    158 C                     0.028700
    159 C                    -0.019916
    160 C                     0.002332
    161 C                     0.006922
    162 C                    -0.023498
    163 C                     0.001198
    164 C                     0.016974
    165 C                     0.000085
    166 C                     0.007127
    167 C                     0.022590
    168 C                    -0.005081
    169 C                     0.027519
    170 C                    -0.003612
    171 C                    -0.000746
    172 C                     0.009685
    173 C                     0.012661
    174 C                     0.003247
    175 C                    -0.007803
    176 C                    -0.004603
  ----------------------------------------
  Sum of atomic charges =     0.000000

                    Cartesian Multipole Moments
 -----------------------------------------------------------------
    Charge (ESU x 10^10)
                 0.0000
    Dipole Moment (Debye)
         X      -4.1434      Y      -1.0822      Z      -0.2844
       Tot       4.2918
    Quadrupole Moments (Debye-Ang)
        XX    -815.5658     XY      14.0520     YY    -778.2862
        XZ       6.1523     YZ      -6.1944     ZZ    -809.1762

 Total job time:  879.58s(wall), 7487.41s(cpu)
        *  Thank you very much for using Q-Chem.  Have a nice day.  *
