 Q-Chem 4.4, Q-Chem, Inc., Pleasanton, CA (2016)
 Q-Chem 4.4.2 for Intel X86 Linux

User input:
--------------------------------------------------------------
$comment
SP
$end

$rem
MEM_STATIC 5000
MEM_TOTAL 20000
JOBTYPE SP
EXCHANGE B3LYP
BASIS 6-31g(d,p)
$end

$molecule
0 1
O           9.874000     13.023000      9.933000
C          11.151000     13.707000      9.711000
H          11.616000     13.472000      8.745000
H          11.884000     13.514000     10.503000
H          11.018000     14.794000      9.652000
O           9.105000     13.671000      7.911000
C           8.956000     13.063000      8.926000
C           7.675000     12.364000      9.270000
H           7.098000     12.232000      8.346000
H           7.035000     13.013000      9.880000
C           7.798000     10.976000      9.947000
H           8.532000     10.326000      9.457000
H           8.242000     11.275000     10.905000
C           6.455000     10.292000     10.033000
H           5.710000     11.055000     10.291000
H           6.287000      9.951000      9.004000
C           6.492000      9.089000     11.015000
C           6.448000      9.531000     12.454000
C           5.127000      9.842000     12.950000
H           4.290000      9.890000     12.261000
C           5.029000     10.275000     14.261000
H           4.061000     10.560000     14.664000
C           6.214000     10.487000     15.010000
H           6.116000     10.898000     16.011000
C           7.495000     10.164000     14.516000
H           8.368000     10.181000     15.163000
C           7.612000      9.654000     13.255000
H           8.599000      9.351000     12.918000
C           8.385000      4.098000     12.160000
C           6.126000      4.007000     13.088000
C           4.588000      1.235000      9.790000
C           8.618000      5.646000      7.279000
C           3.231000      3.855000      7.898000
C           7.292000      4.736000     12.836000
C           6.297000      4.751000      6.017000
C           6.684000      1.239000     10.910000
C           3.845000      6.439000     10.838000
C           7.539000      6.520000      7.058000
C           5.736000      7.840000     10.551000
C           3.858000      6.860000      9.522000
C           5.262000      6.698000      7.069000
C           5.127000      4.007000      6.286000
C           5.619000      6.149000     12.459000
C           4.659000      1.961000      7.568000
C           7.228000      7.818000     10.610000
C           7.898000      7.423000      9.268000
C           3.603000      2.584000      8.253000
C           8.608000      2.168000      8.216000
C           6.695000      1.039000      8.523000
C           7.336000      1.057000      9.746000
C           7.132000      1.982000     12.000000
C           8.971000      6.506000      9.559000
C           4.965000      6.962000     11.462000
C           6.041000      2.671000     12.644000
C           6.408000      6.091000      6.432000
C           5.100000      4.878000     12.731000
C           3.381000      6.012000      8.516000
C           9.611000      4.300000      8.902000
C           5.276000      1.298000     11.017000
C           4.981000      7.639000      9.280000
C           9.037000      2.576000     10.593000
C           4.020000      5.940000      7.277000
C           3.251000      5.201000     11.194000
C           6.786000      2.614000      6.708000
C           7.354000      3.876000      6.293000
C           2.813000      4.375000     10.230000
C           9.322000      5.611000      8.538000
C           7.139000      7.329000      8.132000
C           9.085000      3.508000      7.928000
C           7.828000      6.796000     11.513000
C           3.825000      3.048000     11.792000
C           5.733000      7.428000      8.126000
C           2.826000      4.780000      8.864000
C           9.541000      3.883000     10.256000
C           3.521000      2.128000      9.601000
C           8.348000      2.712000     11.836000
C           5.264000      1.172000      8.515000
C           3.927000      4.393000     12.145000
C           3.106000      3.032000     10.567000
C           7.012000      6.010000     12.439000
C           8.853000      6.096000     10.906000
C           7.423000      1.736000      7.570000
C           4.859000      2.177000     12.036000
C           3.959000      4.562000      6.862000
C           8.485000      4.283000      6.897000
C           5.420000      2.679000      6.612000
C           9.162000      4.755000     11.264000
C           8.555000      1.740000      9.583000
O          -4.319000     -8.641000      7.217000
C          -5.607000     -8.691000      7.886000
H          -5.915000     -9.743000      7.848000
H          -6.364000     -8.081000      7.376000
H          -5.574000     -8.536000      8.971000
O          -4.014000     -6.344000      7.399000
C          -3.641000     -7.494000      7.140000
C          -2.196000     -7.818000      6.705000
H          -2.305000     -8.517000      5.866000
H          -1.672000     -8.434000      7.447000
C          -1.178000     -6.664000      6.357000
H          -1.456000     -6.056000      5.487000
H          -1.133000     -5.878000      7.122000
C           0.240000     -7.128000      6.256000
H           0.404000     -7.935000      6.981000
H           0.328000     -7.728000      5.341000
C           1.364000     -6.050000      6.285000
C           1.504000     -5.316000      5.017000
C           0.753000     -4.093000      4.804000
H           0.133000     -3.716000      5.613000
C           0.942000     -3.308000      3.651000
H           0.473000     -2.330000      3.589000
C           1.712000     -3.792000      2.583000
H           1.771000     -3.346000      1.594000
C           2.324000     -5.045000      2.693000
H           2.765000     -5.366000      1.754000
C           2.216000     -5.839000      3.894000
H           2.727000     -6.795000      3.951000
C           6.587000     -4.810000      7.529000
C           5.314000     -2.718000      7.892000
C           5.489000     -2.866000     12.494000
C           4.423000     -8.649000     10.084000
C           2.343000     -4.206000     12.825000
C           5.534000     -3.896000      7.171000
C           3.396000     -7.663000     12.548000
C           7.219000     -3.407000     10.806000
C           1.586000     -3.565000      8.988000
C           3.033000     -8.426000     10.154000
C           1.664000     -5.430000      7.621000
C           0.994000     -4.622000      9.702000
C           1.478000     -6.998000     11.042000
C           3.148000     -6.466000     13.276000
C           3.302000     -3.521000      7.288000
C           4.569000     -4.611000     13.596000
C           2.706000     -6.329000      7.020000
C           3.032000     -7.484000      7.875000
C           3.604000     -3.741000     13.223000
C           7.255000     -6.915000     11.499000
C           6.723000     -4.991000     12.563000
C           7.465000     -4.651000     11.420000
C           7.152000     -3.382000      9.411000
C           4.414000     -7.683000      7.888000
C           2.060000     -4.016000      7.754000
C           6.136000     -2.458000      9.035000
C           2.525000     -7.876000     11.411000
C           3.953000     -2.550000      8.005000
C           1.050000     -4.675000     11.082000
C           6.408000     -7.791000      9.364000
C           6.205000     -2.553000     11.301000
C           0.981000     -5.794000      8.993000
C           7.712000     -5.765000      9.353000
C           1.259000     -5.842000     11.792000
C           2.229000     -2.512000      9.712000
C           5.365000     -6.870000     13.087000
C           4.725000     -7.905000     12.375000
C           2.256000     -2.516000     11.114000
C           5.153000     -8.272000      8.958000
C           2.322000     -7.845000      9.043000
C           6.487000     -7.863000     10.767000
C           4.062000     -5.811000      6.702000
C           4.174000     -1.659000     10.327000
C           1.360000     -6.977000      9.606000
C           1.708000     -3.610000     11.752000
C           7.079000     -6.782000      8.656000
C           4.148000     -2.605000     12.559000
C           7.337000     -4.547000      8.663000
C           5.747000     -4.099000     13.081000
C           3.411000     -2.002000      9.193000
C           3.501000     -2.017000     11.497000
C           4.281000     -4.400000      6.801000
C           5.080000     -6.660000      7.184000
C           6.612000     -6.377000     12.615000
C           5.545000     -1.929000     10.215000
C           2.098000     -5.559000     12.872000
C           5.242000     -8.370000     11.172000
C           4.369000     -5.986000     13.635000
C           6.361000     -6.230000      7.547000
C           7.810000     -5.816000     10.727000
$end

--------------------------------------------------------------

             Standard Nuclear Orientation (Angstroms)
    I     Atom           X                Y                Z
 ----------------------------------------------------------------
    1      O     -13.7127448184    -0.1934862474    -1.0750293953
    2      C     -14.7457863003     0.2485915637    -2.0159127599
    3      H     -14.5850130921    -0.0996459803    -3.0442554014
    4      H     -14.8698563480     1.3376361521    -2.0356740258
    5      H     -15.7232125874    -0.1833508581    -1.7693309321
    6      O     -13.8946743021    -2.3299816655    -1.7835757885
    7      C     -13.3657319296    -1.5116329970    -1.0961054812
    8      C     -12.3283395084    -1.8630202257    -0.0722685900
    9      H     -11.9355858326    -2.8595401074    -0.3106415655
   10      H     -12.7913700884    -2.0000627460     0.9124765698
   11      C     -11.1199124968    -0.9019404686     0.0543483839
   12      H     -10.6968679175    -0.6184818087    -0.9162393102
   13      H     -11.6307735703    -0.0105888670     0.4401129313
   14      C     -10.0534359733    -1.4843560833     0.9500720448
   15      H     -10.5584880395    -1.9756586117     1.7910846702
   16      H      -9.5847030076    -2.2435125047     0.3118581819
   17      C      -9.0197139925    -0.4065810380     1.3775317715
   18      C      -9.5531935932     0.4908926290     2.4628711344
   19      C      -9.4694704716    -0.0588945423     3.7964762128
   20      H      -9.1847536401    -1.0968837014     3.9347109102
   21      C      -9.9655866153     0.7140929140     4.8319341619
   22      H      -9.9616893105     0.3239812403     5.8460622076
   23      C     -10.6121820268     1.9397056195     4.5320043868
   24      H     -11.0594048170     2.4928311908     5.3533264176
   25      C     -10.6719870886     2.4693800863     3.2261734966
   26      H     -11.0257032028     3.4809005399     3.0452362628
   27      C     -10.1138531581     1.7663773492     2.1974929498
   28      H     -10.1128351256     2.2215339853     1.2114004591
   29      C      -5.0209134067     3.0139113258    -0.0765593069
   30      C      -4.2975198354     2.3072450725     2.1482711468
   31      C      -0.8920868048    -0.2767129042     0.5196462519
   32      C      -6.1123572977    -0.8357487209    -3.2802480804
   33      C      -2.7579656082    -3.2402296351     0.6665403516
   34      C      -5.3348154505     2.6455472348     1.2741599102
   35      C      -4.4119915942    -2.9517436690    -2.6383510059
   36      C      -1.6672600275     1.8461924265    -0.2152084492
   37      C      -5.6583323784    -1.4407284953     2.6783356310
   38      C      -6.5719006403    -1.9159082498    -2.5062756594
   39      C      -7.5579494246    -0.8649028535     1.3818284354
   40      C      -5.9401118926    -2.5107586799     1.8507477447
   41      C      -6.0132341582    -3.3782018623    -0.8431090554
   42      C      -3.3608128921    -3.2759220466    -1.7525018564
   43      C      -6.0987941190     0.9294256715     2.4611267902
   44      C      -1.3978317939    -2.0570795189    -0.9100102534
   45      C      -8.0192858506     0.1149042478     0.3536379149
   46      C      -7.7389660017    -0.3346164503    -1.1041826928
   47      C      -1.7102250110    -2.3915809346     0.4177733438
   48      C      -2.9137088000     0.8202547964    -3.2510395441
   49      C      -1.2654334720     0.1687300028    -1.8772990714
   50      C      -1.5982536773     1.4552893385    -1.5018929091
   51      C      -2.6101717893     2.7113190109     0.3355423133
   52      C      -7.2433018503     0.8049487497    -1.8339821199
   53      C      -6.5661520452    -0.4343475965     2.3948467615
   54      C      -2.9699120257     2.3065124470     1.6721262456
   55      C      -5.7490472386    -2.9570672275    -2.1997169173
   56      C      -4.7588219371     1.1618149388     2.7916654115
   57      C      -4.8965216138    -3.3031647581     1.3591371902
   58      C      -5.3074122308     1.3459765012    -3.1252239071
   59      C      -1.2827326711     1.0294117221     0.8721746448
   60      C      -7.0117367215    -2.2060582301     1.0229120957
   61      C      -3.6514080598     2.7063152925    -1.8729214043
   62      C      -4.9203068737    -3.7878291357     0.0502595403
   63      C      -4.3331477834    -1.2031535523     3.1251688611
   64      C      -2.6153104655    -1.5413477503    -2.8954332378
   65      C      -3.9494685153    -1.8449181033    -3.3595025632
   66      C      -3.3265826552    -1.9468002715     2.6381039785
   67      C      -6.4185851173     0.5312747196    -2.9347145286
   68      C      -7.3046552705    -1.6099416065    -1.3498103269
   69      C      -4.3038905437     0.5305800978    -3.5502991109
   70      C      -7.3290072308     1.4352795451     0.3578214015
   71      C      -2.5400920012     0.1969459396     2.7415526793
   72      C      -6.9482373245    -2.5191343642    -0.3334404252
   73      C      -3.5887315445    -3.0487872214     1.7737818615
   74      C      -5.0146424060     2.4070385872    -2.2304959712
   75      C      -1.3762906456    -1.3314011830     1.3101133764
   76      C      -3.6723757142     3.1446960041    -0.5143748614
   77      C      -0.9329152921    -0.7670843701    -0.8384549447
   78      C      -3.8733595114     0.1393906436     3.1454377299
   79      C      -2.1840537306    -1.1402849829     2.4207845234
   80      C      -6.4109691331     1.8228096980     1.4293410848
   81      C      -6.9411618901     1.8289974544    -0.9085261809
   82      C      -2.0689557512    -0.2683248269    -2.9200536076
   83      C      -2.0710876918     1.2649653810     2.0158100041
   84      C      -3.5633851433    -3.7406234544    -0.4307446606
   85      C      -4.7495738831    -0.8136092227    -3.6848629684
   86      C      -2.2314336492    -2.4816501802    -1.9746363382
   87      C      -5.8075382311     2.6602426830    -1.1226634493
   88      C      -2.6171756575     1.9044960692    -2.3615616311
   89      O      11.5027367764    -4.9285888510     3.3864829351
   90      C      11.9007123547    -5.2300275201     4.7502113420
   91      H      12.9948423218    -5.1537307499     4.7586028886
   92      H      11.6135279740    -6.2457803181     5.0519071901
   93      H      11.6454702008    -4.4618832579     5.4899037344
   94      O       9.2221848407    -5.2521883945     3.6974880865
   95      C      10.2112167606    -4.8847080225     3.0529075736
   96      C      10.0945966820    -4.2094386260     1.6699263737
   97      H      10.8649015005    -4.6924777038     1.0553478710
   98      H      10.4408281624    -3.1681477486     1.6907367216
   99      C       8.7124376995    -4.1530783272     0.9112406259
  100      H       8.3067689995    -5.1320206613     0.6267185489
  101      H       7.8872402976    -3.7884071446     1.5366286466
  102      C       8.7061741697    -3.2116874270    -0.2506392909
  103      H       9.3491327632    -2.3535706561    -0.0182390875
  104      H       9.3270533512    -3.6551394061    -1.0398340604
  105      C       7.3276052606    -2.7929092939    -0.8426474313
  106      C       6.7056609317    -3.8368269357    -1.6730697389
  107      C       5.8114036816    -4.8048074843    -1.0660964048
  108      H       5.5804725328    -4.7077018306    -0.0086223878
  109      C       5.1152584849    -5.7486592061    -1.8444798529
  110      H       4.3482757884    -6.3616785541    -1.3794703667
  111      C       5.4226979887    -5.9109535903    -3.2034947477
  112      H       5.0729540199    -6.7208786332    -3.8377017968
  113      C       6.3990163526    -5.0963343335    -3.7864620870
  114      H       6.6461238836    -5.4156456427    -4.7945400383
  115      C       7.0734114552    -4.0644259818    -3.0348921306
  116      H       7.8066771974    -3.4350488695    -3.5293734770
  117      C       4.3762018821     1.0228883926    -3.5060608638
  118      C       2.7767884986    -0.0952533838    -1.9827756651
  119      C       2.4426876688     3.4113695452     0.9875619030
  120      C       8.4567231923     2.6168680741    -0.9065577168
  121      C       4.6817776183     2.0676894458     3.2199321654
  122      C       3.8830593091    -0.1522148734    -2.8365000250
  123      C       7.6311733731     3.4955391209     1.6711594297
  124      C       2.5534318649     3.4117825132    -1.4868391462
  125      C       4.6673863532    -1.3828627801     1.2705781113
  126      C       8.6841701025     1.7381716135     0.1718157961
  127      C       6.5256666769    -1.8060867775    -0.0411664090
  128      C       5.7887091416    -0.9339312151     1.9907202183
  129      C       7.7534995282     1.0138745720     2.1352309528
  130      C       6.5152926177     3.5347928400     2.5529566202
  131      C       4.2319100633    -1.5645958000    -1.0987942761
  132      C       4.2825258535     4.1323086710     2.0834958569
  133      C       7.0952360184    -1.3413766639    -1.3506706188
  134      C       8.0028701540    -0.1894665255    -1.2070415516
  135      C       3.8041284724     3.0135396584     2.6723471473
  136      C       5.7878296903     4.9269948095    -1.6612278045
  137      C       4.0464707755     4.8294925986    -0.2207214877
  138      C       3.5924530451     4.3631073153    -1.4652959805
  139      C       2.6779009424     2.3457117266    -2.3807851886
  140      C       7.7478072465     0.7380089777    -2.2191809215
  141      C       5.0533488538    -1.8601156771     0.0159484367
  142      C       2.1651378403     1.1777456331    -1.7480631283
  143      C       8.2136047538     2.1831236643     1.4837605072
  144      C       3.0429426015    -0.9090248406    -0.9056257175
  145      C       5.6955267101     0.1222218545     2.8774009545
  146      C       7.0785475878     3.0884179964    -2.6595727406
  147      C       2.0269836207     2.8999069917    -0.2771397221
  148      C       6.9626805407    -1.1291580075     1.3124049128
  149      C       4.7519237127     3.3234584030    -3.2399091525
  150      C       6.6650273264     1.0987992726     3.0040307349
  151      C       3.4029956408    -0.7502581581     1.4886641458
  152      C       6.2051244226     4.8934778094     0.7720027060
  153      C       7.4504892268     4.2664282745     0.5630903199
  154      C       3.2708644782     0.2900572570     2.4195960407
  155      C       7.9700973504     2.1449800621    -2.1245158417
  156      C       8.4642011328     0.3210190063     0.0279577398
  157      C       6.9938492547     4.1810364606    -1.7770507386
  158      C       6.2022415637    -0.8733038409    -2.4422990979
  159      C       1.9211226764     0.6712424549     0.6687571237
  160      C       7.9017593270    -0.1127775815     1.2491525381
  161      C       4.4199267419     0.7214273669     3.0502780068
  162      C       5.9767121622     2.7066464611    -3.4404665809
  163      C       2.6190894438     2.5488932797     2.0342921000
  164      C       3.7855443972     2.2435722183    -3.2255617850
  165      C       3.4699502635     4.3473941564     0.9841723629
  166      C       2.5913915191    -0.5350316682     0.3834214992
  167      C       2.3676200132     1.2054196425     1.8792478756
  168      C       4.7923958982    -1.0616799468    -2.2825097290
  169      C       6.6340012472     0.3520950063    -2.9913257283
  170      C       5.3845191403     5.1883039966    -0.3507290029
  171      C       1.7478908993     1.5206908695    -0.4328386018
  172      C       6.0319699930     2.3299875182     3.1879435311
  173      C       7.8331029739     3.8425414687    -0.7036573647
  174      C       5.6398166904     4.4230329870     2.0100999708
  175      C       5.7861516581     1.2947490251    -3.5830895960
  176      C       4.6439794929     4.4008695474    -2.3869060626
 ----------------------------------------------------------------

    9   -5804.2752734540      8.46E-06 Convergence criterion met
 Total energy in the final basis set = -5804.2752734540

                    Orbital Energies (a.u.)
 --------------------------------------------------------------

 Alpha MOs
 -- Occupied --
-19.206 -19.194 -19.136 -19.133 -10.323 -10.313 -10.255 -10.246
-10.241 -10.239 -10.239 -10.238 -10.238 -10.231 -10.229 -10.227
-10.225 -10.225 -10.223 -10.223 -10.223 -10.222 -10.222 -10.222
-10.221 -10.221 -10.220 -10.220 -10.220 -10.220 -10.219 -10.219
-10.219 -10.218 -10.218 -10.217 -10.217 -10.217 -10.216 -10.216
-10.216 -10.216 -10.216 -10.216 -10.216 -10.215 -10.215 -10.215
-10.215 -10.215 -10.215 -10.215 -10.215 -10.215 -10.215 -10.215
-10.215 -10.214 -10.214 -10.214 -10.214 -10.214 -10.214 -10.214
-10.214 -10.213 -10.213 -10.213 -10.213 -10.213 -10.213 -10.212
-10.212 -10.212 -10.212 -10.212 -10.212 -10.212 -10.212 -10.212
-10.211 -10.211 -10.211 -10.211 -10.211 -10.211 -10.211 -10.211
-10.211 -10.211 -10.210 -10.210 -10.210 -10.210 -10.210 -10.210
-10.210 -10.210 -10.210 -10.210 -10.210 -10.209 -10.209 -10.209
-10.209 -10.209 -10.209 -10.208 -10.208 -10.208 -10.208 -10.208
-10.208 -10.208 -10.208 -10.208 -10.207 -10.207 -10.207 -10.207
-10.207 -10.207 -10.207 -10.207 -10.207 -10.206 -10.206 -10.206
-10.206 -10.204 -10.204 -10.204 -10.204 -10.204 -10.203 -10.203
-10.202 -10.201 -10.201 -10.200 -10.199 -10.199 -10.199 -10.199
-10.198 -10.195 -10.192 -10.190  -1.102  -1.097  -1.016  -1.008
 -0.981  -0.981  -0.964  -0.963  -0.963  -0.962  -0.958  -0.957
 -0.933  -0.932  -0.926  -0.925  -0.925  -0.924  -0.921  -0.920
 -0.919  -0.914  -0.896  -0.895  -0.888  -0.886  -0.886  -0.882
 -0.873  -0.870  -0.853  -0.845  -0.844  -0.841  -0.838  -0.838
 -0.833  -0.833  -0.819  -0.818  -0.806  -0.803  -0.801  -0.796
 -0.795  -0.794  -0.792  -0.791  -0.789  -0.788  -0.783  -0.780
 -0.771  -0.770  -0.767  -0.767  -0.764  -0.764  -0.762  -0.761
 -0.759  -0.751  -0.741  -0.739  -0.729  -0.728  -0.718  -0.715
 -0.714  -0.713  -0.712  -0.711  -0.710  -0.709  -0.709  -0.708
 -0.705  -0.704  -0.703  -0.702  -0.701  -0.699  -0.671  -0.670
 -0.657  -0.656  -0.655  -0.654  -0.646  -0.646  -0.631  -0.630
 -0.626  -0.625  -0.623  -0.622  -0.621  -0.619  -0.617  -0.614
 -0.614  -0.613  -0.612  -0.611  -0.610  -0.610  -0.607  -0.605
 -0.603  -0.603  -0.602  -0.599  -0.571  -0.571  -0.563  -0.563
 -0.560  -0.558  -0.558  -0.555  -0.555  -0.553  -0.552  -0.551
 -0.538  -0.532  -0.530  -0.529  -0.528  -0.526  -0.525  -0.524
 -0.521  -0.519  -0.518  -0.516  -0.516  -0.514  -0.513  -0.512
 -0.507  -0.506  -0.498  -0.497  -0.492  -0.492  -0.487  -0.484
 -0.484  -0.482  -0.481  -0.479  -0.479  -0.478  -0.476  -0.475
 -0.471  -0.471  -0.470  -0.468  -0.467  -0.466  -0.465  -0.464
 -0.463  -0.463  -0.463  -0.461  -0.460  -0.459  -0.458  -0.456
 -0.455  -0.455  -0.452  -0.449  -0.447  -0.446  -0.445  -0.442
 -0.441  -0.441  -0.440  -0.439  -0.437  -0.436  -0.434  -0.430
 -0.429  -0.428  -0.427  -0.426  -0.425  -0.423  -0.421  -0.421
 -0.421  -0.420  -0.420  -0.419  -0.418  -0.417  -0.417  -0.416
 -0.416  -0.416  -0.415  -0.415  -0.414  -0.413  -0.413  -0.412
 -0.410  -0.409  -0.408  -0.404  -0.403  -0.401  -0.394  -0.393
 -0.393  -0.392  -0.387  -0.387  -0.386  -0.386  -0.384  -0.383
 -0.378  -0.374  -0.372  -0.371  -0.369  -0.367  -0.366  -0.364
 -0.363  -0.361  -0.361  -0.360  -0.358  -0.358  -0.357  -0.357
 -0.356  -0.356  -0.355  -0.355  -0.354  -0.352  -0.351  -0.350
 -0.348  -0.348  -0.346  -0.346  -0.344  -0.344  -0.342  -0.341
 -0.340  -0.339  -0.339  -0.338  -0.336  -0.336  -0.334  -0.333
 -0.331  -0.331  -0.329  -0.327  -0.326  -0.325  -0.322  -0.322
 -0.309  -0.307  -0.304  -0.302  -0.285  -0.284  -0.273  -0.269
 -0.269  -0.268  -0.268  -0.267  -0.267  -0.265  -0.264  -0.263
 -0.262  -0.260  -0.259  -0.256  -0.256  -0.255  -0.253  -0.250
 -0.245  -0.244  -0.242  -0.242  -0.221  -0.214  -0.211  -0.210
 -0.208  -0.208  -0.206  -0.205  -0.199  -0.192

          Ground-State Mulliken Net Atomic Charges

     Atom                 Charge (a.u.)
  ----------------------------------------
      1 O                    -0.470939
      2 C                    -0.093823
      3 H                     0.133754
      4 H                     0.124473
      5 H                     0.128008
      6 O                    -0.458430
      7 C                     0.605993
      8 C                    -0.276123
      9 H                     0.127070
     10 H                     0.133807
     11 C                    -0.181953
     12 H                     0.106943
     13 H                     0.121940
     14 C                    -0.179873
     15 H                     0.106479
     16 H                     0.111055
     17 C                     0.011818
     18 C                     0.062484
     19 C                    -0.091825
     20 H                     0.099069
     21 C                    -0.089210
     22 H                     0.092603
     23 C                    -0.088240
     24 H                     0.087179
     25 C                    -0.088025
     26 H                     0.094762
     27 C                    -0.087888
     28 H                     0.097818
     29 C                     0.009632
     30 C                    -0.016519
     31 C                    -0.011137
     32 C                    -0.012033
     33 C                    -0.005986
     34 C                    -0.004953
     35 C                     0.009486
     36 C                     0.056799
     37 C                     0.023326
     38 C                     0.003678
     39 C                    -0.093402
     40 C                    -0.002250
     41 C                    -0.035496
     42 C                     0.006920
     43 C                    -0.025658
     44 C                     0.003416
     45 C                    -0.091314
     46 C                    -0.001134
     47 C                     0.006981
     48 C                    -0.029597
     49 C                    -0.013551
     50 C                     0.042748
     51 C                    -0.027826
     52 C                    -0.002840
     53 C                     0.036117
     54 C                     0.004886
     55 C                    -0.006870
     56 C                     0.014691
     57 C                     0.013762
     58 C                     0.017651
     59 C                    -0.006932
     60 C                     0.010187
     61 C                     0.003374
     62 C                    -0.023453
     63 C                    -0.017185
     64 C                     0.023654
     65 C                     0.000718
     66 C                     0.023809
     67 C                    -0.023090
     68 C                     0.023437
     69 C                     0.011079
     70 C                     0.046527
     71 C                     0.005229
     72 C                     0.037538
     73 C                    -0.006297
     74 C                    -0.010530
     75 C                    -0.005245
     76 C                    -0.039995
     77 C                     0.000260
     78 C                    -0.008393
     79 C                    -0.010136
     80 C                     0.012587
     81 C                    -0.005645
     82 C                    -0.005657
     83 C                    -0.000926
     84 C                    -0.026345
     85 C                    -0.002395
     86 C                    -0.004349
     87 C                     0.016284
     88 C                    -0.021036
     89 O                    -0.447998
     90 C                    -0.092341
     91 H                     0.126471
     92 H                     0.139794
     93 H                     0.132982
     94 O                    -0.480833
     95 C                     0.601337
     96 C                    -0.267924
     97 H                     0.128719
     98 H                     0.132398
     99 C                    -0.173332
    100 H                     0.114885
    101 H                     0.115980
    102 C                    -0.188534
    103 H                     0.098844
    104 H                     0.103465
    105 C                     0.011559
    106 C                     0.083971
    107 C                    -0.108341
    108 H                     0.096774
    109 C                    -0.091165
    110 H                     0.093811
    111 C                    -0.076130
    112 H                     0.092236
    113 C                    -0.090867
    114 H                     0.089607
    115 C                    -0.110499
    116 H                     0.092736
    117 C                    -0.009884
    118 C                    -0.019177
    119 C                    -0.012451
    120 C                    -0.005867
    121 C                    -0.006618
    122 C                    -0.009500
    123 C                    -0.019850
    124 C                    -0.007664
    125 C                     0.016396
    126 C                    -0.028338
    127 C                    -0.106700
    128 C                     0.028321
    129 C                    -0.003070
    130 C                     0.002005
    131 C                     0.006966
    132 C                     0.013956
    133 C                    -0.095195
    134 C                     0.063680
    135 C                    -0.004546
    136 C                    -0.036733
    137 C                     0.017645
    138 C                     0.006017
    139 C                    -0.007087
    140 C                    -0.007114
    141 C                     0.035747
    142 C                    -0.010652
    143 C                    -0.000084
    144 C                     0.030123
    145 C                    -0.003299
    146 C                     0.014899
    147 C                    -0.006985
    148 C                     0.008502
    149 C                     0.008670
    150 C                    -0.017813
    151 C                    -0.029050
    152 C                    -0.017335
    153 C                     0.012395
    154 C                    -0.005346
    155 C                    -0.011383
    156 C                    -0.011861
    157 C                     0.013128
    158 C                     0.021180
    159 C                    -0.013514
    160 C                     0.009141
    161 C                     0.008360
    162 C                    -0.015033
    163 C                     0.000601
    164 C                     0.020433
    165 C                     0.000363
    166 C                     0.009034
    167 C                     0.015627
    168 C                    -0.002885
    169 C                     0.018323
    170 C                    -0.003136
    171 C                     0.005006
    172 C                     0.009976
    173 C                     0.016026
    174 C                     0.002649
    175 C                    -0.017894
    176 C                    -0.002228
  ----------------------------------------
  Sum of atomic charges =     0.000000

                    Cartesian Multipole Moments
 -----------------------------------------------------------------
    Charge (ESU x 10^10)
                 0.0000
    Dipole Moment (Debye)
         X       0.9322      Y      -0.4442      Z       1.6982
       Tot       1.9875
    Quadrupole Moments (Debye-Ang)
        XX    -721.2666     XY     -50.5431     YY    -808.0675
        XZ     -12.3816     YZ      -0.4885     ZZ    -795.8103

 Total job time:  838.72s(wall), 7050.34s(cpu)
        *  Thank you very much for using Q-Chem.  Have a nice day.  *
