 Q-Chem 4.4, Q-Chem, Inc., Pleasanton, CA (2016)
 Q-Chem 4.4.2 for Intel X86 Linux

User input:
--------------------------------------------------------------
$comment
SP
$end

$rem
MEM_STATIC 5000
MEM_TOTAL 20000
JOBTYPE SP
EXCHANGE B3LYP
BASIS 6-31g(d,p)
$end

$molecule
0 1
O         -19.652000     -1.537000     -7.233000
C         -19.651000     -2.928000     -7.341000
H         -20.587000     -3.256000     -7.810000
H         -19.681000     -3.418000     -6.360000
H         -18.811000     -3.356000     -7.902000
O         -17.574000     -1.650000     -6.427000
C         -18.553000     -0.976000     -6.680000
C         -18.794000      0.440000     -6.291000
H         -17.907000      0.824000     -5.773000
H         -19.733000      0.398000     -5.725000
C         -19.087000      1.417000     -7.407000
H         -19.692000      0.970000     -8.205000
H         -19.660000      2.280000     -7.044000
C         -17.717000      2.018000     -7.959000
H         -17.201000      2.574000     -7.166000
H         -17.131000      1.187000     -8.369000
C         -17.899000      2.844000     -9.258000
C         -18.241000      1.955000    -10.423000
C         -19.493000      1.634000    -10.794000
H         -20.308000      2.113000    -10.260000
C         -19.653000      0.656000    -11.779000
H         -20.636000      0.304000    -12.077000
C         -18.608000      0.231000    -12.643000
H         -18.864000     -0.360000    -13.517000
C         -17.312000      0.509000    -12.184000
H         -16.460000      0.015000    -12.641000
C         -17.172000      1.310000    -11.014000
H         -16.196000      1.448000    -10.558000
C         -15.166000      6.432000    -12.437000
C         -17.451000      6.958000    -12.878000
C         -17.377000     10.921000    -10.541000
C         -14.083000      6.390000     -7.504000
C         -18.847000      9.646000     -7.600000
C         -16.510000      6.020000    -12.646000
C         -15.690000      8.397000     -6.280000
C         -15.795000      9.962000    -12.003000
C         -19.740000      6.104000     -9.567000
C         -15.271000      6.037000     -6.849000
C         -18.278000      4.295000     -9.164000
C         -19.401000      6.103000     -8.195000
C         -17.335000      6.627000     -6.338000
C         -16.672000      9.379000     -6.445000
C         -18.397000      5.395000    -11.499000
C         -16.933000     10.988000     -8.293000
C         -16.861000      3.945000     -9.532000
C         -15.795000      4.440000     -8.614000
C         -18.300000     10.586000     -8.441000
C         -13.521000      9.299000     -9.468000
C         -15.041000     10.872000     -9.854000
C         -14.746000     10.234000    -11.119000
C         -15.788000      8.714000    -12.737000
C         -14.628000      4.814000     -9.312000
C         -18.951000      5.099000    -10.164000
C         -17.124000      8.289000    -12.906000
C         -16.030000      7.011000     -6.179000
C         -18.618000      6.617000    -12.156000
C         -19.359000      7.362000     -7.499000
C         -13.234000      6.871000     -9.598000
C         -17.082000     10.337000    -11.756000
C         -18.499000      5.114000     -7.920000
C         -13.866000      8.009000    -11.533000
C         -18.355000      7.597000     -6.577000
C         -19.940000      7.330000    -10.234000
C         -14.835000     10.059000     -7.586000
C         -14.572000      8.772000     -6.959000
C         -19.872000      8.569000     -9.490000
C         -13.790000      5.868000     -8.749000
C         -16.118000      5.109000     -7.385000
C         -13.221000      8.071000     -8.846000
C         -16.286000      4.374000    -10.857000
C         -19.107000      8.902000    -11.589000
C         -17.436000      5.481000     -7.104000
C         -19.621000      8.561000     -8.146000
C         -13.503000      6.782000    -10.949000
C         -18.559000     10.568000     -9.848000
C         -14.825000      7.748000    -12.498000
C         -16.386000     11.120000     -9.600000
C         -19.449000      7.570000    -11.538000
C         -19.398000      9.546000    -10.376000
C         -17.073000      5.055000    -11.823000
C         -14.886000      4.778000    -10.688000
C         -14.277000     10.277000     -8.852000
C         -17.926000      9.309000    -12.308000
C         -18.007000      8.966000     -6.650000
C         -13.731000      7.800000     -7.548000
C         -16.176000     10.326000     -7.330000
C         -14.366000      5.806000    -11.466000
C         -13.904000      9.235000    -10.806000
O          -9.974000     11.456000     -6.512000
C         -10.506000     10.709000     -7.635000
H          -9.862000     10.764000     -8.521000
H         -11.525000     11.021000     -7.897000
H         -10.486000      9.627000     -7.456000
O         -11.914000     11.121000     -5.393000
C         -10.823000     11.660000     -5.457000
C         -10.285000     12.541000     -4.371000
H          -9.192000     12.466000     -4.420000
H         -10.567000     12.078000     -3.418000
C         -10.801000     13.998000     -4.322000
H         -11.853000     14.050000     -4.018000
H         -10.258000     14.604000     -3.586000
C         -10.472000     14.703000     -5.636000
H          -9.376000     14.740000     -5.685000
H         -10.787000     14.043000     -6.454000
C         -11.189000     16.095000     -5.854000
C         -10.551000     17.132000     -5.089000
C          -9.672000     18.046000     -5.741000
H          -9.441000     18.021000     -6.802000
C          -9.178000     19.181000     -5.114000
H          -8.595000     19.930000     -5.641000
C          -9.403000     19.340000     -3.750000
H          -9.117000     20.211000     -3.168000
C         -10.238000     18.458000     -3.109000
H         -10.467000     18.562000     -2.052000
C         -10.772000     17.355000     -3.733000
H         -11.425000     16.679000     -3.189000
C         -15.778000     19.222000     -6.026000
C         -14.315000     20.292000     -7.551000
C         -16.544000     19.175000    -11.297000
C         -16.381000     14.287000     -7.180000
C         -14.426000     16.458000    -12.062000
C         -14.475000     19.602000     -6.335000
C         -16.192000     14.070000     -9.987000
C         -17.398000     19.854000     -9.167000
C         -11.765000     17.698000     -9.263000
C         -15.190000     13.955000     -7.812000
C         -11.816000     16.481000     -7.205000
C         -11.953000     16.330000     -9.592000
C         -13.768000     14.140000     -9.588000
C         -15.984000     14.763000    -11.149000
C         -12.497000     18.966000     -7.301000
C         -16.821000     16.959000    -11.821000
C         -12.758000     16.265000     -6.058000
C         -13.855000     15.217000     -6.234000
C         -15.539000     17.392000    -12.154000
C         -18.623000     16.625000     -8.261000
C         -18.264000     17.819000    -10.145000
C         -18.235000     18.728000     -9.114000
C         -16.746000     20.329000     -7.967000
C         -15.049000     15.686000     -5.703000
C         -11.799000     17.880000     -7.843000
C         -15.404000     20.596000     -8.336000
C         -15.077000     13.788000     -9.230000
C         -13.096000     19.950000     -8.139000
C         -12.710000     15.979000    -10.696000
C         -17.338000     16.042000     -6.323000
C         -16.503000     20.090000    -10.226000
C         -12.024000     15.575000     -8.435000
C         -17.718000     18.379000     -6.849000
C         -13.612000     14.913000    -10.710000
C         -12.364000     18.732000    -10.058000
C         -17.974000     15.434000    -10.212000
C         -17.385000     14.473000     -9.391000
C         -13.096000     18.344000    -11.237000
C         -16.307000     15.170000     -6.128000
C         -13.941000     14.417000     -7.390000
C         -18.127000     15.636000     -7.386000
C         -13.580000     17.472000     -5.600000
C         -14.046000     20.181000    -10.274000
C         -13.017000     14.519000     -8.455000
C         -13.224000     16.989000    -11.546000
C         -17.195000     17.395000     -6.057000
C         -15.345000     18.766000    -11.872000
C         -16.893000     19.503000     -6.836000
C         -17.431000     18.047000    -11.282000
C         -12.934000     19.858000     -9.482000
C         -14.135000     19.289000    -11.363000
C         -13.406000     18.738000     -6.191000
C         -14.927000     17.058000     -5.370000
C         -18.503000     16.536000     -9.623000
C         -15.290000     20.513000     -9.693000
C         -14.729000     15.257000    -11.490000
C         -17.482000     14.525000     -7.949000
C         -17.058000     15.647000    -11.278000
C         -15.974000     17.924000     -5.591000
C         -18.364000     18.020000     -7.975000
$end

--------------------------------------------------------------

             Standard Nuclear Orientation (Angstroms)
    I     Atom           X                Y                Z
 ----------------------------------------------------------------
    1      O     -13.3105502137    -1.3056681814     2.5430462533
    2      C     -14.6609073603    -1.5849610389     2.3307326259
    3      H     -15.2564765885    -0.6932082499     2.5624981493
    4      H     -15.0445566628    -2.3295155036     3.0391201340
    5      H     -14.9183042080    -1.9232258450     1.3193826451
    6      O     -12.8217053023    -3.3425601939     1.7732472003
    7      C     -12.4415999472    -2.3100667702     2.2891960824
    8      C     -11.0996231109    -2.0376659395     2.8717370323
    9      H     -10.4575515320    -2.9125576920     2.7140743889
   10      H     -11.3192443668    -1.7501938645     3.9075783860
   11      C     -10.3406679255    -0.8522332799     2.3198580274
   12      H     -11.0003813189    -0.0105686917     2.0769239634
   13      H      -9.6168840766    -0.4651711591     3.0486836956
   14      C      -9.4735241952    -1.3155218317     1.0643778528
   15      H      -8.7315171487    -2.0631321345     1.3721852244
   16      H     -10.1678281226    -1.6730083656     0.2948309507
   17      C      -8.8502077235    -0.1271656904     0.2884350342
   18      C      -9.9059297810     0.6566320464    -0.4434270055
   19      C     -10.5640872647     1.7110351593     0.0696507686
   20      H     -10.2539547664     2.0619926408     1.0491754899
   21      C     -11.6425050603     2.2248705615    -0.6551231530
   22      H     -12.2562165202     3.0320193275    -0.2667082800
   23      C     -11.8754379310     1.9398803120    -2.0275913076
   24      H     -12.5941536642     2.5465611087    -2.5698819175
   25      C     -11.2391156012     0.7856653531    -2.5076566378
   26      H     -11.5469321599     0.3541234216    -3.4551847522
   27      C     -10.3181249084     0.1203907965    -1.6478386871
   28      H      -9.8968782286    -0.8390573455    -1.9334371775
   29      C      -5.0218985591     0.9102674249    -3.5478203630
   30      C      -5.1288837634     2.9591600602    -2.3300456979
   31      C      -1.0641179402     2.3703004173    -0.2555970665
   32      C      -4.3097048349    -3.1044440134    -0.5672140210
   33      C      -2.3720174800     1.1700100933     2.7914848050
   34      C      -5.7748613251     1.9011942574    -2.8616191640
   35      C      -2.6578703739    -2.2576827387     1.5922100358
   36      C      -1.7358469935     1.9605214899    -2.4783679296
   37      C      -6.1995564900     2.2055809902     1.5708947654
   38      C      -4.8824149953    -2.7760201502     0.6693614269
   39      C      -7.5378109617     0.4456512331     0.7438178530
   40      C      -5.9817496088     1.0647444862     2.3761017162
   41      C      -4.7794967985    -1.4923470033     2.4612621207
   42      C      -1.9731936304    -1.2033644085     2.2049935338
   43      C      -6.7360690003     2.3368462728    -0.8236569154
   44      C      -0.6689508099     0.5976890788     1.1432671090
   45      C      -7.5571103544    -0.4105433770    -0.4940720141
   46      C      -6.7243040327    -1.6471982606    -0.4590958899
   47      C      -1.4120605737     1.5675382183     1.8911825625
   48      C      -1.5588987686    -1.4871657864    -2.1333871025
   49      C      -0.4608219418     0.2436696808    -1.2777231099
   50      C      -1.1254413000     0.7022505347    -2.4786721967
   51      C      -3.0081361976     2.1230944210    -3.1500518011
   52      C      -6.1408105095    -1.9272094715    -1.7121314162
   53      C      -7.0290734435     1.7823234897     0.5117867859
   54      C      -3.7677149691     3.0788447323    -2.4403593097
   55      C      -4.0681350917    -2.4297576282     1.7605568743
   56      C      -5.6782399903     3.2317318452    -1.0559317477
   57      C      -4.6903416005     0.8949293556     2.9882203137
   58      C      -3.8390027374    -2.2162290233    -2.6472408637
   59      C      -1.6718276603     2.8096779571    -1.4140193875
   60      C      -6.6823948754    -0.0064256282     1.8975196475
   61      C      -3.0896583709    -0.2121627531    -3.5750848188
   62      C      -4.1231034892    -0.3654789134     3.0424136771
   63      C      -5.1336073906     3.0930642652     1.3177328523
   64      C      -0.9709000143    -1.5935157519     0.2094887264
   65      C      -2.0837924777    -2.5149869876     0.3856367505
   66      C      -3.8502820157     2.8682491651     1.9468712735
   67      C      -4.8611175124    -2.6284108554    -1.7409663337
   68      C      -6.0403313758    -2.0544554362     0.7361672601
   69      C      -2.6062014351    -2.4169005674    -1.9797044374
   70      C      -7.1297558723     0.1558696401    -1.8232956374
   71      C      -3.5436241293     3.7824101484    -0.0957215976
   72      C      -5.9836199221    -1.2062491778     1.8460316456
   73      C      -3.6639311369     1.8066929600     2.7881635969
   74      C      -4.1239798681    -1.1616246181    -3.4910895371
   75      C      -1.6316152204     2.6695481394     1.0055054820
   76      C      -3.6749100596     1.0378367348    -3.6934433464
   77      C      -0.5329502808     1.0976606781    -0.1820306899
   78      C      -4.9072538080     3.6580878868     0.0415630507
   79      C      -2.8773087452     3.3565628970     1.0642197488
   80      C      -6.7646575660     1.5205810303    -1.9666554927
   81      C      -6.3744258231    -0.8507473559    -2.5769372897
   82      C      -0.7452948051    -1.1066489625    -1.0842295656
   83      C      -2.9268960519     3.5144751893    -1.3705660337
   84      C      -2.7244812818    -0.2217214169     2.8881940183
   85      C      -2.8677507218    -2.9722428050    -0.6984815958
   86      C      -1.0235299125    -0.7389129958     1.3058418735
   87      C      -5.3302763178    -0.4531680662    -3.4040712081
   88      C      -1.8469889191    -0.3535900218    -2.8903805312
   89      O       1.6938039067    -5.4093498639    -2.0428809243
   90      C       0.7315393678    -4.4820588266    -2.6053222896
   91      H       0.8587365517    -4.3464133653    -3.6861452100
   92      H       0.7520356927    -3.5060897753    -2.1039109698
   93      H      -0.2883366131    -4.8853550777    -2.5860838548
   94      O       0.9960017505    -4.8447584198     0.0361319790
   95      C       1.7814473541    -5.4446559572    -0.6766766548
   96      C       2.8706851791    -6.3183202194    -0.1332866314
   97      H       3.0665864226    -7.0836802829    -0.8938927555
   98      H       2.4473804281    -6.8582244791     0.7219434419
   99      C       4.1502517118    -5.6169109724     0.3788076534
  100      H       3.9673580991    -5.0536396095     1.3013580847
  101      H       4.9415979297    -6.3338451644     0.6309138366
  102      C       4.7831408697    -4.8131420481    -0.7548893212
  103      H       5.0876888762    -5.5525100964    -1.5069341343
  104      H       3.9886931166    -4.2184577284    -1.2230264031
  105      C       5.9237948686    -3.8099006765    -0.3170626373
  106      C       7.1569123775    -4.5052681847    -0.0650244699
  107      C       8.1932037076    -4.4746348907    -1.0439539263
  108      H       8.1230902978    -3.9501882400    -1.9925037776
  109      C       9.4712822236    -4.9523733069    -0.7916221751
  110      H      10.2869191002    -4.8342291088    -1.4983027493
  111      C       9.7016044601    -5.6459991854     0.3925386282
  112      H      10.6690123358    -6.0123775080     0.7227657117
  113      C       8.7060534279    -5.6927319674     1.3373794557
  114      H       8.8523816162    -6.1961410301     2.2890481884
  115      C       7.4491072543    -5.1804272913     1.1165373502
  116      H       6.6879778729    -5.2415108429     1.8887237683
  117      C       7.7734791801     0.3572914565     2.8578092773
  118      C       9.0205557834     0.5831605729     0.8566403469
  119      C       7.0216665904     4.3453204492    -0.5922354447
  120      C       2.7558545675     0.3036465632     1.9250094747
  121      C       4.8583132820     2.6554249228    -2.8097551341
  122      C       8.4347402170    -0.2730131068     1.8075045603
  123      C       2.3196113229     1.9539662057    -0.3218095899
  124      C       7.6707458389     3.7284138965     1.6270841435
  125      C       6.9910054366    -0.7630120077    -2.3419569664
  126      C       2.6716527272    -0.2140265821     0.6392981678
  127      C       6.0070194290    -2.3809656243    -0.8814599169
  128      C       5.5940056571    -0.7570641853    -2.5936814973
  129      C       3.0313714242    -0.0167371474    -1.6061782489
  130      C       2.9255821483     2.7413121592    -1.2634266608
  131      C       8.2215540419    -1.2088075683    -0.2731146698
  132      C       4.7664411788     4.3294781503    -1.0113635449
  133      C       5.6758160538    -2.5157932051     0.5751645535
  134      C       4.3750556778    -1.8821835438     1.0642966843
  135      C       5.4711707452     3.7431722190    -2.0608889582
  136      C       4.3426753820     3.1963959524     2.8055602534
  137      C       5.3984263746     4.4751350493     1.2712235356
  138      C       6.3821547965     4.0071478130     2.1098827862
  139      C       8.4084666110     2.5968642981     2.1429257554
  140      C       4.5806173369    -1.2617787697     2.2892049749
  141      C       7.2966558205    -1.6236238395    -1.2389587261
  142      C       8.9647406569     1.9497152164     1.0114792247
  143      C       2.4003762962     0.5927637233    -0.5126048234
  144      C       8.9380134578     0.0141954730    -0.4154188025
  145      C       4.9589065009     0.4175186247    -2.9570962526
  146      C       4.2913625707     0.8645681527     3.3595495204
  147      C       8.0180819444     3.8440790738     0.2690778119
  148      C       4.9620286798    -1.6543014547    -1.7514906743
  149      C       6.3964507364     2.0669125221     3.4344950471
  150      C       3.7053365911     0.8015324731    -2.4762097322
  151      C       7.7598367436     0.4443702890    -2.4473534121
  152      C       3.1666548885     3.7134496128     0.8066319628
  153      C       2.4681940393     2.5144872189     0.9449237562
  154      C       7.0880044736     1.6409992550    -2.8868184491
  155      C       3.7278255137    -0.2166894076     2.7474399928
  156      C       3.4698817573    -1.2643008427     0.1796424346
  157      C       3.5992947605     2.0212659856     3.0426611023
  158      C       6.6781058111    -1.9272057994     1.5707935547
  159      C       8.7146186446     2.1480656855    -1.3697660525
  160      C       3.6947814574    -1.1990174145    -1.2144749201
  161      C       5.7204667533     1.5943628964    -3.1616922991
  162      C       5.6565160294     0.9281948767     3.5921901751
  163      C       6.8708547485     3.7652566755    -1.8477388525
  164      C       7.6865700011     1.7529743096     3.0088131453
  165      C       5.7149482461     4.6840730213    -0.1052941100
  166      C       8.7585575340     0.7557671555    -1.5362327974
  167      C       7.7266147468     2.7010735473    -2.2109180024
  168      C       7.8834141596    -1.3459110680     1.1330250993
  169      C       5.9653800904    -1.2223259949     2.5875882774
  170      C       4.1537640534     3.9810920745     1.6983432441
  171      C       8.7805999951     2.7369159928    -0.0874935476
  172      C       3.6815529215     2.1948033913    -2.2955014433
  173      C       2.6350243106     1.6516886925     2.0934982480
  174      C       3.4963933088     3.8129654200    -0.5725526435
  175      C       6.5165998577    -0.1141391312     3.1901533305
  176      C       5.7792129906     3.1748285305     2.9810496993
 ----------------------------------------------------------------

    9   -5804.2347938095      8.85E-06 Convergence criterion met
 Total energy in the final basis set = -5804.2347938095

                    Orbital Energies (a.u.)
 --------------------------------------------------------------

 Alpha MOs
 -- Occupied --
-19.195 -19.194 -19.135 -19.133 -10.316 -10.315 -10.243 -10.242
-10.241 -10.240 -10.240 -10.239 -10.239 -10.237 -10.231 -10.230
-10.230 -10.228 -10.228 -10.227 -10.222 -10.222 -10.222 -10.221
-10.220 -10.220 -10.219 -10.219 -10.219 -10.219 -10.218 -10.217
-10.217 -10.217 -10.217 -10.217 -10.217 -10.217 -10.216 -10.216
-10.215 -10.215 -10.215 -10.215 -10.215 -10.214 -10.214 -10.214
-10.214 -10.214 -10.214 -10.214 -10.214 -10.214 -10.213 -10.213
-10.213 -10.213 -10.213 -10.213 -10.213 -10.213 -10.213 -10.213
-10.212 -10.212 -10.212 -10.212 -10.212 -10.212 -10.212 -10.212
-10.211 -10.211 -10.211 -10.211 -10.211 -10.211 -10.211 -10.211
-10.210 -10.210 -10.210 -10.210 -10.210 -10.210 -10.210 -10.210
-10.210 -10.210 -10.209 -10.209 -10.209 -10.209 -10.208 -10.208
-10.208 -10.208 -10.208 -10.208 -10.208 -10.208 -10.208 -10.208
-10.208 -10.208 -10.208 -10.207 -10.207 -10.207 -10.207 -10.207
-10.207 -10.206 -10.206 -10.206 -10.206 -10.205 -10.205 -10.205
-10.205 -10.205 -10.205 -10.205 -10.205 -10.205 -10.204 -10.204
-10.204 -10.203 -10.203 -10.203 -10.203 -10.203 -10.202 -10.202
-10.202 -10.201 -10.200 -10.200 -10.198 -10.197 -10.197 -10.196
-10.195 -10.193 -10.192 -10.190  -1.110  -1.093  -1.013  -1.006
 -0.984  -0.981  -0.966  -0.965  -0.964  -0.963  -0.959  -0.957
 -0.937  -0.931  -0.928  -0.926  -0.926  -0.923  -0.921  -0.920
 -0.919  -0.918  -0.897  -0.894  -0.891  -0.886  -0.884  -0.882
 -0.876  -0.873  -0.858  -0.853  -0.845  -0.841  -0.840  -0.838
 -0.837  -0.835  -0.822  -0.820  -0.813  -0.809  -0.799  -0.797
 -0.796  -0.794  -0.792  -0.791  -0.790  -0.788  -0.786  -0.785
 -0.773  -0.771  -0.769  -0.767  -0.766  -0.766  -0.765  -0.761
 -0.753  -0.751  -0.744  -0.741  -0.734  -0.730  -0.717  -0.717
 -0.716  -0.715  -0.714  -0.711  -0.710  -0.707  -0.706  -0.706
 -0.705  -0.704  -0.704  -0.702  -0.700  -0.699  -0.671  -0.671
 -0.662  -0.658  -0.656  -0.656  -0.650  -0.648  -0.634  -0.630
 -0.628  -0.627  -0.626  -0.624  -0.620  -0.619  -0.617  -0.616
 -0.616  -0.615  -0.613  -0.612  -0.611  -0.610  -0.609  -0.608
 -0.605  -0.604  -0.602  -0.602  -0.570  -0.566  -0.565  -0.562
 -0.560  -0.559  -0.558  -0.557  -0.555  -0.553  -0.552  -0.550
 -0.539  -0.535  -0.532  -0.530  -0.528  -0.527  -0.526  -0.523
 -0.522  -0.520  -0.519  -0.517  -0.515  -0.513  -0.513  -0.511
 -0.507  -0.505  -0.503  -0.501  -0.494  -0.491  -0.489  -0.487
 -0.485  -0.482  -0.481  -0.481  -0.481  -0.480  -0.478  -0.476
 -0.473  -0.471  -0.470  -0.469  -0.469  -0.467  -0.465  -0.464
 -0.463  -0.463  -0.462  -0.461  -0.460  -0.459  -0.458  -0.458
 -0.456  -0.453  -0.451  -0.451  -0.449  -0.447  -0.444  -0.444
 -0.442  -0.441  -0.441  -0.439  -0.437  -0.436  -0.435  -0.431
 -0.430  -0.430  -0.428  -0.425  -0.425  -0.423  -0.423  -0.421
 -0.421  -0.420  -0.419  -0.419  -0.419  -0.418  -0.417  -0.416
 -0.416  -0.416  -0.414  -0.414  -0.413  -0.413  -0.412  -0.411
 -0.411  -0.410  -0.408  -0.408  -0.405  -0.400  -0.398  -0.395
 -0.395  -0.394  -0.392  -0.389  -0.388  -0.386  -0.385  -0.382
 -0.381  -0.377  -0.375  -0.374  -0.369  -0.368  -0.366  -0.366
 -0.363  -0.361  -0.361  -0.359  -0.359  -0.358  -0.357  -0.357
 -0.356  -0.355  -0.355  -0.354  -0.353  -0.353  -0.352  -0.351
 -0.350  -0.349  -0.349  -0.346  -0.346  -0.345  -0.345  -0.343
 -0.342  -0.341  -0.339  -0.338  -0.336  -0.335  -0.334  -0.332
 -0.332  -0.330  -0.329  -0.328  -0.328  -0.327  -0.327  -0.323
 -0.309  -0.301  -0.300  -0.298  -0.288  -0.286  -0.273  -0.270
 -0.270  -0.269  -0.267  -0.266  -0.265  -0.264  -0.262  -0.262
 -0.260  -0.259  -0.259  -0.259  -0.257  -0.257  -0.255  -0.254
 -0.247  -0.246  -0.241  -0.240  -0.223  -0.219  -0.212  -0.209
 -0.207  -0.207  -0.204  -0.202  -0.196  -0.195

          Ground-State Mulliken Net Atomic Charges

     Atom                 Charge (a.u.)
  ----------------------------------------
      1 O                    -0.444701
      2 C                    -0.082543
      3 H                     0.112008
      4 H                     0.116406
      5 H                     0.129208
      6 O                    -0.475212
      7 C                     0.596625
      8 C                    -0.242592
      9 H                     0.132031
     10 H                     0.135090
     11 C                    -0.199400
     12 H                     0.123414
     13 H                     0.107026
     14 C                    -0.177725
     15 H                     0.112482
     16 H                     0.119544
     17 C                    -0.008367
     18 C                     0.125203
     19 C                    -0.105895
     20 H                     0.094478
     21 C                    -0.106828
     22 H                     0.083957
     23 C                    -0.079897
     24 H                     0.099264
     25 C                    -0.098351
     26 H                     0.096097
     27 C                    -0.106371
     28 H                     0.093763
     29 C                     0.014300
     30 C                     0.018106
     31 C                     0.025866
     32 C                    -0.017887
     33 C                    -0.010912
     34 C                     0.004128
     35 C                     0.017551
     36 C                     0.009811
     37 C                    -0.014286
     38 C                    -0.012130
     39 C                    -0.084601
     40 C                    -0.015717
     41 C                    -0.015223
     42 C                    -0.009408
     43 C                    -0.006216
     44 C                    -0.001647
     45 C                    -0.086340
     46 C                     0.036192
     47 C                     0.004930
     48 C                    -0.003815
     49 C                    -0.030264
     50 C                    -0.046043
     51 C                    -0.019319
     52 C                     0.000856
     53 C                     0.037009
     54 C                     0.007143
     55 C                    -0.000680
     56 C                    -0.015407
     57 C                     0.018892
     58 C                     0.017196
     59 C                     0.002158
     60 C                     0.035597
     61 C                     0.000144
     62 C                    -0.007882
     63 C                    -0.014148
     64 C                     0.008893
     65 C                     0.023688
     66 C                     0.014057
     67 C                     0.000383
     68 C                    -0.010497
     69 C                    -0.014672
     70 C                     0.023460
     71 C                    -0.008348
     72 C                     0.024365
     73 C                    -0.005161
     74 C                    -0.032844
     75 C                    -0.015385
     76 C                    -0.005316
     77 C                     0.015148
     78 C                     0.007485
     79 C                    -0.003921
     80 C                    -0.008683
     81 C                    -0.024986
     82 C                    -0.003547
     83 C                    -0.020451
     84 C                    -0.012903
     85 C                    -0.020876
     86 C                     0.022672
     87 C                     0.018028
     88 C                     0.054242
     89 O                    -0.468665
     90 C                    -0.093166
     91 H                     0.119799
     92 H                     0.135458
     93 H                     0.125249
     94 O                    -0.468123
     95 C                     0.597549
     96 C                    -0.255421
     97 H                     0.121362
     98 H                     0.136166
     99 C                    -0.184388
    100 H                     0.120993
    101 H                     0.112795
    102 C                    -0.189913
    103 H                     0.119721
    104 H                     0.111794
    105 C                     0.009886
    106 C                     0.094818
    107 C                    -0.118903
    108 H                     0.090502
    109 C                    -0.086075
    110 H                     0.092372
    111 C                    -0.081122
    112 H                     0.087407
    113 C                    -0.084187
    114 H                     0.084482
    115 C                    -0.099313
    116 H                     0.087100
    117 C                     0.005714
    118 C                     0.013284
    119 C                    -0.021237
    120 C                     0.013888
    121 C                    -0.047924
    122 C                    -0.013856
    123 C                     0.020592
    124 C                    -0.013087
    125 C                    -0.018773
    126 C                     0.015138
    127 C                    -0.090752
    128 C                     0.016251
    129 C                    -0.035552
    130 C                    -0.010354
    131 C                    -0.002230
    132 C                     0.026761
    133 C                    -0.092099
    134 C                     0.021644
    135 C                    -0.020737
    136 C                     0.001321
    137 C                    -0.012954
    138 C                     0.026939
    139 C                    -0.066142
    140 C                     0.003124
    141 C                     0.017993
    142 C                     0.026146
    143 C                    -0.007665
    144 C                     0.001180
    145 C                     0.016586
    146 C                     0.037101
    147 C                     0.005958
    148 C                     0.021525
    149 C                     0.013564
    150 C                    -0.010422
    151 C                    -0.010279
    152 C                    -0.028704
    153 C                     0.020836
    154 C                     0.009237
    155 C                    -0.018767
    156 C                     0.004753
    157 C                    -0.035112
    158 C                     0.016913
    159 C                    -0.019841
    160 C                    -0.005040
    161 C                    -0.000147
    162 C                     0.000467
    163 C                     0.015556
    164 C                     0.003618
    165 C                    -0.012624
    166 C                     0.005433
    167 C                    -0.007344
    168 C                     0.021257
    169 C                     0.001972
    170 C                     0.038176
    171 C                     0.026192
    172 C                     0.049695
    173 C                    -0.008272
    174 C                    -0.020911
    175 C                    -0.009926
    176 C                    -0.007737
  ----------------------------------------
  Sum of atomic charges =     0.000000

                    Cartesian Multipole Moments
 -----------------------------------------------------------------
    Charge (ESU x 10^10)
                 0.0000
    Dipole Moment (Debye)
         X      -1.5470      Y      -1.1854      Z       0.0651
       Tot       1.9500
    Quadrupole Moments (Debye-Ang)
        XX    -746.6153     XY     -47.2871     YY    -805.5554
        XZ      -7.1498     YZ       2.5084     ZZ    -798.9474

 Total job time:  864.91s(wall), 7296.04s(cpu)
        *  Thank you very much for using Q-Chem.  Have a nice day.  *
