 Q-Chem 4.4, Q-Chem, Inc., Pleasanton, CA (2016)
 Q-Chem 4.4.2 for Intel X86 Linux

User input:
--------------------------------------------------------------
$comment
SP
$end

$rem
MEM_STATIC 5000
MEM_TOTAL 20000
JOBTYPE SP
EXCHANGE B3LYP
BASIS 6-31g(d,p)
$end

$molecule
0 1
O         -19.568000    -21.475000      6.158000
C         -20.074000    -22.814000      6.379000
H         -20.851000    -23.137000      5.676000
H         -20.684000    -22.895000      7.287000
H         -19.329000    -23.618000      6.431000
O         -21.736000    -20.720000      6.516000
C         -20.563000    -20.499000      6.334000
C         -20.009000    -19.117000      6.302000
H         -19.460000    -19.059000      5.354000
H         -19.267000    -19.094000      7.109000
C         -20.975000    -17.987000      6.410000
H         -21.678000    -18.013000      5.568000
H         -21.681000    -18.242000      7.211000
C         -20.284000    -16.583000      6.436000
H         -19.718000    -16.417000      7.361000
H         -19.542000    -16.624000      5.629000
C         -21.355000    -15.389000      6.281000
C         -21.883000    -15.065000      7.599000
C         -21.045000    -14.468000      8.562000
H         -20.079000    -14.145000      8.187000
C         -21.453000    -14.497000      9.917000
H         -20.672000    -14.103000     10.561000
C         -22.634000    -15.068000     10.297000
H         -22.825000    -15.025000     11.365000
C         -23.555000    -15.539000      9.354000
H         -24.490000    -16.002000      9.654000
C         -23.081000    -15.625000      8.045000
H         -23.665000    -16.201000      7.333000
C         -25.733000    -13.862000      3.388000
C         -24.907000    -11.699000      4.194000
C         -23.236000    -10.330000      0.209000
C         -22.134000    -16.462000      0.838000
C         -19.983000    -11.226000      0.807000
C         -25.142000    -13.105000      4.383000
C         -20.390000    -14.649000     -0.406000
C         -25.319000    -11.406000      0.783000
C         -20.831000    -11.972000      4.718000
C         -20.917000    -16.115000      1.445000
C         -21.138000    -14.255000      5.226000
C         -19.900000    -12.733000      3.992000
C         -19.478000    -14.451000      1.919000
C         -20.120000    -13.294000     -0.560000
C         -23.062000    -12.708000      5.313000
C         -21.706000    -11.425000     -0.876000
C         -22.132000    -15.342000      4.965000
C         -21.942000    -16.217000      3.736000
C         -21.075000    -10.725000      0.127000
C         -24.333000    -14.343000     -0.818000
C         -23.969000    -12.171000     -1.169000
C         -25.070000    -12.263000     -0.325000
C         -25.848000    -11.821000      2.016000
C         -23.171000    -16.414000      3.040000
C         -21.648000    -12.909000      5.340000
C         -25.303000    -11.030000      3.010000
C         -20.089000    -15.160000      0.918000
C         -23.600000    -11.500000      4.767000
C         -19.394000    -12.217000      2.758000
C         -24.349000    -15.977000      0.987000
C         -24.368000    -10.506000      1.047000
C         -20.069000    -14.088000      4.198000
C         -25.860000    -14.110000      1.162000
C         -19.241000    -13.078000      1.698000
C         -21.348000    -10.725000      4.141000
C         -22.089000    -13.773000     -1.575000
C         -21.645000    -14.958000     -1.016000
C         -20.850000    -10.341000      2.897000
C         -23.295000    -16.538000      1.652000
C         -20.842000    -16.038000      2.877000
C         -23.877000    -15.519000     -0.244000
C         -23.617000    -14.990000      4.765000
C         -23.091000     -9.951000      3.011000
C         -19.962000    -14.945000      3.130000
C         -19.894000    -11.025000      2.194000
C         -25.391000    -15.318000      1.707000
C         -22.045000     -9.994000      0.794000
C         -26.124000    -13.187000      2.209000
C         -23.050000    -11.171000     -0.846000
C         -22.707000    -10.511000      4.153000
C         -21.972000     -9.786000      2.211000
C         -24.035000    -13.688000      5.018000
C         -24.147000    -15.667000      3.714000
C         -23.472000    -13.435000     -1.565000
C         -24.323000    -10.215000      2.400000
C         -19.494000    -12.485000      0.480000
C         -22.524000    -15.884000     -0.381000
C         -21.202000    -12.727000     -1.205000
C         -25.275000    -15.122000      3.064000
C         -25.281000    -13.614000     -0.051000
O         -20.461000    -24.924000     -8.664000
C         -21.828000    -25.267000     -8.554000
H         -22.105000    -25.525000     -7.524000
H         -22.038000    -26.194000     -9.101000
H         -22.387000    -24.449000     -9.025000
O         -20.497000    -23.315000     -7.024000
C         -19.939000    -23.859000     -7.925000
C         -18.534000    -23.613000     -8.336000
H         -18.517000    -23.405000     -9.413000
H         -18.063000    -24.603000     -8.376000
C         -17.741000    -22.572000     -7.610000
H         -16.800000    -22.304000     -8.107000
H         -18.277000    -21.621000     -7.501000
C         -17.268000    -23.106000     -6.227000
H         -18.061000    -23.766000     -5.852000
H         -16.358000    -23.715000     -6.279000
C         -16.973000    -22.050000     -5.198000
C         -15.895000    -21.102000     -5.651000
C         -16.197000    -19.802000     -6.092000
H         -17.244000    -19.516000     -6.080000
C         -15.236000    -18.906000     -6.692000
H         -15.559000    -17.905000     -6.963000
C         -13.895000    -19.279000     -6.733000
H         -13.112000    -18.644000     -7.139000
C         -13.529000    -20.572000     -6.230000
H         -12.483000    -20.824000     -6.084000
C         -14.519000    -21.398000     -5.691000
H         -14.259000    -22.330000     -5.198000
C         -15.878000    -20.885000      0.078000
C         -17.171000    -19.018000     -0.663000
C         -20.901000    -20.044000      1.575000
C         -18.390000    -25.276000     -0.992000
C         -22.582000    -21.315000     -1.142000
C         -16.226000    -19.992000     -0.894000
C         -21.075000    -24.614000     -0.840000
C         -18.560000    -20.168000      2.315000
C         -19.752000    -19.962000     -3.570000
C         -19.142000    -24.979000     -2.181000
C         -18.131000    -21.469000     -4.343000
C         -20.402000    -21.172000     -3.902000
C         -20.807000    -23.767000     -3.044000
C         -22.124000    -23.728000     -0.502000
C         -17.426000    -19.605000     -2.786000
C         -22.047000    -21.943000      1.150000
C         -17.009000    -22.296000     -3.741000
C         -17.323000    -23.665000     -3.101000
C         -22.385000    -20.989000      0.195000
C         -18.576000    -23.658000      2.156000
C         -20.103000    -22.039000      2.583000
C         -18.827000    -21.496000      2.699000
C         -17.393000    -19.928000      1.617000
C         -16.632000    -23.835000     -1.947000
C         -18.346000    -20.127000     -3.738000
C         -17.756000    -19.003000      0.609000
C         -20.499000    -24.733000     -2.114000
C         -17.925000    -18.766000     -1.780000
C         -21.548000    -21.477000     -3.130000
C         -16.903000    -24.247000      0.433000
C         -19.601000    -19.438000      1.759000
C         -19.480000    -22.101000     -4.159000
C         -16.703000    -22.202000      1.707000
C         -21.833000    -22.754000     -2.699000
C         -20.205000    -19.040000     -2.597000
C         -20.858000    -24.070000      1.335000
C         -20.357000    -24.914000      0.355000
C         -21.349000    -19.401000     -1.892000
C         -17.155000    -24.585000     -0.911000
C         -18.604000    -24.149000     -3.178000
C         -18.072000    -24.568000      1.141000
C         -16.176000    -21.694000     -2.637000
C         -19.878000    -18.407000     -0.428000
C         -19.653000    -23.386000     -3.672000
C         -21.976000    -20.602000     -2.174000
C         -16.289000    -23.007000      0.684000
C         -21.697000    -19.824000      0.456000
C         -16.462000    -20.921000      1.376000
C         -21.109000    -21.364000      1.980000
C         -19.272000    -18.502000     -1.694000
C         -21.167000    -18.986000     -0.582000
C         -16.371000    -20.385000     -2.236000
C         -15.919000    -22.662000     -1.685000
C         -19.951000    -23.432000      2.243000
C         -19.094000    -18.664000      0.732000
C         -22.470000    -22.721000     -1.494000
C         -19.003000    -25.164000      0.241000
C         -21.930000    -23.333000      0.850000
C         -15.737000    -22.236000     -0.347000
C         -17.884000    -22.522000      2.424000
$end

--------------------------------------------------------------

             Standard Nuclear Orientation (Angstroms)
    I     Atom           X                Y                Z
 ----------------------------------------------------------------
    1      O      -0.2774001385     6.6420662409    -0.5519394521
    2      C       0.4284804779     7.5489131803     0.3296268721
    3      H       0.7998003921     7.0972964362     1.2572209847
    4      H      -0.2330440830     8.2843846020     0.8035383018
    5      H       1.2591070460     8.1147256411    -0.1108964118
    6      O      -1.7926759557     6.3202631565     1.1797634591
    7      C      -1.4518263253     6.1424599892     0.0351667776
    8      C      -2.2800568703     5.3688494257    -0.9309723740
    9      H      -1.5997193421     4.6089419595    -1.3348912898
   10      H      -2.4969675956     6.0745251421    -1.7417211146
   11      C      -3.5217027572     4.7278389801    -0.4121842668
   12      H      -3.2693640873     3.9986139058     0.3678189297
   13      H      -4.0253594723     5.4680987398     0.2229593403
   14      C      -4.3519720069     4.0002061434    -1.5214977608
   15      H      -4.8033803106     4.7052829950    -2.2304647394
   16      H      -3.6104017731     3.4280034452    -2.0925946532
   17      C      -5.5294545904     3.0995184371    -0.8898345425
   18      C      -6.6979413633     3.9432022939    -0.6807407567
   19      C      -7.4005350668     4.4543292773    -1.7903052184
   20      H      -7.0986585750     4.0435823910    -2.7485680107
   21      C      -8.2836565455     5.5407925703    -1.5828830236
   22      H      -8.6735979006     5.9039181791    -2.5294655778
   23      C      -8.4763004096     6.0801683682    -0.3430588062
   24      H      -9.1768134703     6.9095312071    -0.3232413081
   25      C      -7.9081322482     5.5060980305     0.8001643513
   26      H      -8.0519627177     5.9387136960     1.7854310573
   27      C      -6.9419259560     4.5286094501     0.5624366161
   28      H      -6.3091916093     4.2309439105     1.3935915192
   29      C      -6.5514029943    -0.4969154426     3.0963098112
   30      C      -8.3447493569    -1.0138271799     1.5065953464
   31      C      -6.5486060486    -4.9070626720     0.0358086117
   32      C      -1.9221753704    -0.7824271923     0.9274309195
   33      C      -5.0930764223    -3.6355948137    -2.7938966720
   34      C      -7.4771946871    -0.0720879487     2.1610096765
   35      C      -1.9802720842    -2.6919574936    -1.1283803072
   36      C      -6.7824011790    -3.9945559542     2.2581524931
   37      C      -7.0315224830    -0.0920568392    -2.2866427975
   38      C      -2.1057980033    -0.3862742449    -0.4064703403
   39      C      -5.7105823736     1.6070930312    -1.3210295493
   40      C      -5.7302307720    -0.1691923848    -2.8097565429
   41      C      -3.1262537032    -0.8362245070    -2.3610823034
   42      C      -2.8172424648    -3.5730014079    -1.8035715418
   43      C      -7.5832892558     0.6300532361    -0.0400470467
   44      C      -4.5878371581    -5.0351298328    -0.8894665692
   45      C      -5.0900043109     1.9361582871    -0.0003006121
   46      C      -3.6746533477     1.4532925960     0.2749962738
   47      C      -5.4615891097    -4.5677389461    -1.8445965531
   48      C      -3.3356314799    -3.5304142188     2.5145059425
   49      C      -4.6422032975    -5.0332218124     1.5106531533
   50      C      -5.4284917694    -4.3843050122     2.4559882395
   51      C      -7.3487119847    -2.7958705173     2.7216180198
   52      C      -3.5575247424     0.8975253182     1.5830748733
   53      C      -6.9606415307     0.8847845025    -1.3001850520
   54      C      -8.3152987249    -2.3951965625     1.8183392945
   55      C      -2.2399871866    -1.2951592156    -1.4219797559
   56      C      -8.3671284027    -0.5529213005     0.1415884055
   57      C      -5.2470720578    -1.4285928822    -3.2846418385
   58      C      -3.1331259194    -1.1233353319     2.8197922509
   59      C      -7.2791510167    -4.2173742085     1.0384440753
   60      C      -4.8878048278     0.7625869384    -2.2360599146
   61      C      -5.1533583843    -2.1781656705     3.5978852687
   62      C      -3.9503039904    -1.7849143315    -3.0022279507
   63      C      -7.8199083354    -1.3209317791    -2.1332116082
   64      C      -2.5634308378    -4.2880831796     0.3320465696
   65      C      -1.8365625131    -3.1155259087     0.2290228594
   66      C      -7.2348066425    -2.5133496093    -2.5560493162
   67      C      -2.7242144068    -0.1721112979     1.9277013295
   68      C      -2.9455357820     0.7421215357    -0.6958514477
   69      C      -2.6198452362    -2.3498111227     2.3952818565
   70      C      -5.7528343929     1.4479236809     1.3002424482
   71      C      -8.3636778615    -2.8303761431    -0.6035327483
   72      C      -3.6053700492     0.3936357200    -1.9108553062
   73      C      -5.9956616893    -2.6138886861    -3.1308646594
   74      C      -4.3927216258    -1.0017310577     3.4809095301
   75      C      -6.7205192330    -4.5246704684    -1.2671971671
   76      C      -6.5275532552    -1.8772424434     3.4007364211
   77      C      -5.2583006058    -5.2680568905     0.2801383859
   78      C      -8.4553672225    -1.5467975871    -0.9340462153
   79      C      -7.6507915399    -3.4838757997    -1.5955596084
   80      C      -7.0165952487     0.8717303761     1.2306236668
   81      C      -4.8344771723     0.9366106697     2.1598987866
   82      C      -3.2990821868    -4.5887676556     1.5133335537
   83      C      -8.2452516471    -3.2786886562     0.7177666585
   84      C      -3.7953857402    -3.1384738897    -2.7947216660
   85      C      -1.8026250137    -2.1395564225     1.2680963930
   86      C      -3.2515829100    -4.5137035870    -0.8899710888
   87      C      -5.2653318647     0.0006509174     3.1243948083
   88      C      -4.6418927425    -3.4029204734     3.0584368744
   89      O      10.3643171215    -3.5244179119     3.4206148559
   90      C      10.0888139653    -3.3513074587     4.7963215041
   91      H       9.6059958148    -2.3872043050     5.0002448784
   92      H      11.0206965010    -3.2820079606     5.3702818853
   93      H       9.5481042468    -4.2510061489     5.1151024117
   94      O       8.2193462457    -3.1154558134     2.7053338315
   95      C       9.3280335945    -3.4906785789     2.4837007141
   96      C       9.8592111140    -3.8501093124     1.1449991078
   97      H      10.3165087602    -4.8453596909     1.2069470449
   98      H      10.7869386550    -3.2751705509     1.0340575462
   99      C       8.9416150473    -3.7906916142    -0.0357180453
  100      H       9.3449743407    -4.2713038094    -0.9360664214
  101      H       7.9818430739    -4.2924294200     0.1394245633
  102      C       8.7251222226    -2.3183588481    -0.4906258192
  103      H       8.7357310675    -1.6997586350     0.4161791371
  104      H       9.5249128090    -1.9355295637    -1.1351890487
  105      C       7.4538161051    -2.0620785634    -1.2516141051
  106      C       7.3692472274    -2.8859259948    -2.5086425514
  107      C       6.5384260288    -4.0166184486    -2.5920434563
  108      H       5.9564016043    -4.2579363337    -1.7082096214
  109      C       6.5355024301    -4.9400504596    -3.7027197249
  110      H       5.8259317475    -5.7623385075    -3.6916376428
  111      C       7.3004394961    -4.6480046907    -4.8290729350
  112      H       7.3226341474    -5.2783301383    -5.7141419875
  113      C       8.1130778866    -3.4655210864    -4.8162132394
  114      H       8.5801156730    -3.1151150246    -5.7316515486
  115      C       8.0878920947    -2.6343732995    -3.6930676423
  116      H       8.5987532617    -1.6761090032    -3.6979056670
  117      C       3.9805446479     1.6572394510    -3.3718699603
  118      C       2.5521136373    -0.1255968910    -2.6735158769
  119      C       0.7748431060     1.9768894156     0.8471489451
  120      C       7.0140549984     3.0984910598     0.5596098823
  121      C       2.6822928424     0.3541516373     3.2033426141
  122      C       3.7388422134     0.3239138759    -3.2070675213
  123      C       5.5066973456     2.6193976170     2.8331347622
  124      C       1.2568034508     2.8450771381    -1.4016777055
  125      C       4.0113516815    -2.1655281425     0.4429967284
  126      C       7.2028669873     1.8971038897     1.3267167199
  127      C       6.1366460114    -1.7953542429    -0.4747800938
  128      C       4.8827722566    -1.7951253074     1.4919256683
  129      C       6.2066590125     0.3601166207     2.6038924344
  130      C       4.2898267679     2.2989380129     3.4782492011
  131      C       4.1023654446    -1.5389265372    -1.9552250969
  132      C       2.0449319299     2.6259951777     2.5980567351
  133      C       6.8041336505    -0.7370705618    -1.3348457320
  134      C       7.3623034002     0.5442147584    -0.6797797363
  135      C       1.7513076688     1.2723211956     2.7312353499
  136      C       3.9600051804     4.7181263719    -0.2226849248
  137      C       1.9782172295     4.0096223581     0.6174088677
  138      C       1.9448030056     3.8982054098    -0.7692961309
  139      C       1.8724023608     2.2355773973    -2.4769642013
  140      C       7.0769185056     1.6391116089    -1.4266755448
  141      C       4.7142271551    -2.0909613978    -0.7950222009
  142      C       1.6218268531     0.8533109307    -2.3037321888
  143      C       6.5130576827     1.6978285877     2.5060837015
  144      C       2.7333913520    -1.2426669410    -1.8995637509
  145      C       4.2814417580    -1.0862873688     2.5588255737
  146      C       5.9502027656     3.7917303146    -1.3608777543
  147      C       0.6640594062     1.8866776023    -0.5918370870
  148      C       6.0424755850    -1.3945384326     0.9686739640
  149      C       3.7657897187     3.6718207554    -2.3899852988
  150      C       4.8984565549    -0.0256536439     3.1849755893
  151      C       2.6145509434    -1.9399874289     0.4329426466
  152      C       3.9462924330     4.0966185717     2.1574094042
  153      C       5.3050410587     3.8245731927     2.0979915288
  154      C       2.0937282593    -1.2534019632     1.5253830935
  155      C       6.8751975511     2.8701855725    -0.8324613134
  156      C       7.3277199012     0.6531063152     0.6870021082
  157      C       5.3890593075     4.4557177400    -0.2585598698
  158      C       6.0165278374    -0.1143828602    -2.4604771590
  159      C       1.0286304190    -0.5096280231    -0.3739694058
  160      C       6.6724819037    -0.2744050639     1.4851197739
  161      C       2.9381122075    -0.8455325605     2.5430826063
  162      C       5.0895610899     3.3351392922    -2.3749869912
  163      C       0.9667964080     0.8730790324     1.6711231970
  164      C       3.0742080068     2.6866907456    -2.9898491165
  165      C       1.4653151974     3.0474246933     1.4188932151
  166      C       2.0228007703    -1.4359719258    -0.7380151260
  167      C       1.1060182898    -0.4095708705     1.0418263718
  168      C       4.7408380541    -0.5555434605    -2.7609765792
  169      C       6.2944507057     1.2381649519    -2.5129204160
  170      C       3.2677226950     4.5451313476     0.9773516088
  171      C       0.8371819540     0.6478263397    -1.1801653394
  172      C       3.9745454696     0.8840317053     3.6065724011
  173      C       6.0233313552     3.9876141138     0.9291079982
  174      C       3.2975667315     3.1894580036     2.9843269744
  175      C       5.2826912165     2.0984864727    -3.0038721621
  176      C       3.1946856471     4.3415689059    -1.2779926935
 ----------------------------------------------------------------

    9   -5804.1971295461      8.02E-06 Convergence criterion met
 Total energy in the final basis set = -5804.1971295461

                    Orbital Energies (a.u.)
 --------------------------------------------------------------

 Alpha MOs
 -- Occupied --
-19.195 -19.187 -19.149 -19.143 -10.323 -10.318 -10.245 -10.242
-10.241 -10.238 -10.237 -10.233 -10.233 -10.233 -10.231 -10.223
-10.223 -10.222 -10.221 -10.220 -10.219 -10.219 -10.218 -10.218
-10.218 -10.218 -10.217 -10.217 -10.216 -10.216 -10.216 -10.215
-10.215 -10.215 -10.215 -10.215 -10.215 -10.215 -10.215 -10.214
-10.214 -10.214 -10.213 -10.213 -10.213 -10.212 -10.212 -10.212
-10.212 -10.212 -10.212 -10.212 -10.211 -10.211 -10.211 -10.211
-10.211 -10.211 -10.210 -10.210 -10.210 -10.210 -10.210 -10.210
-10.210 -10.210 -10.210 -10.210 -10.210 -10.210 -10.210 -10.209
-10.209 -10.209 -10.209 -10.209 -10.208 -10.208 -10.208 -10.208
-10.208 -10.208 -10.208 -10.208 -10.208 -10.208 -10.207 -10.207
-10.207 -10.207 -10.207 -10.207 -10.207 -10.207 -10.207 -10.206
-10.206 -10.206 -10.206 -10.206 -10.206 -10.206 -10.206 -10.205
-10.205 -10.205 -10.205 -10.205 -10.205 -10.205 -10.204 -10.204
-10.204 -10.204 -10.204 -10.204 -10.204 -10.203 -10.203 -10.203
-10.203 -10.203 -10.203 -10.203 -10.202 -10.202 -10.202 -10.202
-10.201 -10.201 -10.201 -10.201 -10.201 -10.201 -10.200 -10.200
-10.200 -10.200 -10.199 -10.199 -10.199 -10.198 -10.198 -10.198
-10.196 -10.195 -10.194 -10.191  -1.099  -1.089  -1.028  -1.016
 -0.983  -0.982  -0.966  -0.965  -0.963  -0.961  -0.960  -0.959
 -0.933  -0.933  -0.928  -0.927  -0.926  -0.925  -0.922  -0.920
 -0.920  -0.917  -0.898  -0.895  -0.891  -0.889  -0.886  -0.886
 -0.876  -0.874  -0.854  -0.848  -0.840  -0.837  -0.836  -0.836
 -0.835  -0.834  -0.824  -0.819  -0.813  -0.808  -0.797  -0.794
 -0.794  -0.794  -0.792  -0.791  -0.790  -0.789  -0.784  -0.784
 -0.769  -0.769  -0.767  -0.765  -0.765  -0.764  -0.762  -0.761
 -0.750  -0.748  -0.741  -0.739  -0.734  -0.730  -0.714  -0.713
 -0.712  -0.711  -0.710  -0.710  -0.708  -0.707  -0.707  -0.706
 -0.706  -0.705  -0.705  -0.703  -0.701  -0.697  -0.670  -0.668
 -0.657  -0.656  -0.654  -0.654  -0.648  -0.646  -0.629  -0.629
 -0.626  -0.626  -0.624  -0.624  -0.623  -0.623  -0.618  -0.615
 -0.612  -0.611  -0.609  -0.609  -0.608  -0.607  -0.606  -0.606
 -0.604  -0.604  -0.603  -0.600  -0.565  -0.565  -0.560  -0.559
 -0.558  -0.557  -0.557  -0.556  -0.554  -0.554  -0.553  -0.551
 -0.535  -0.534  -0.532  -0.527  -0.525  -0.523  -0.523  -0.520
 -0.519  -0.518  -0.518  -0.516  -0.515  -0.515  -0.514  -0.513
 -0.512  -0.506  -0.504  -0.499  -0.495  -0.492  -0.490  -0.486
 -0.484  -0.482  -0.482  -0.478  -0.476  -0.475  -0.475  -0.473
 -0.472  -0.471  -0.470  -0.469  -0.469  -0.466  -0.466  -0.464
 -0.464  -0.463  -0.462  -0.461  -0.460  -0.459  -0.457  -0.456
 -0.455  -0.451  -0.450  -0.449  -0.449  -0.447  -0.442  -0.441
 -0.440  -0.439  -0.437  -0.436  -0.436  -0.436  -0.435  -0.430
 -0.429  -0.427  -0.427  -0.426  -0.425  -0.424  -0.423  -0.422
 -0.421  -0.420  -0.419  -0.418  -0.417  -0.417  -0.416  -0.416
 -0.415  -0.414  -0.413  -0.412  -0.412  -0.411  -0.411  -0.410
 -0.409  -0.407  -0.406  -0.404  -0.404  -0.402  -0.398  -0.394
 -0.393  -0.390  -0.388  -0.386  -0.386  -0.384  -0.384  -0.381
 -0.379  -0.373  -0.371  -0.371  -0.369  -0.367  -0.366  -0.364
 -0.363  -0.362  -0.362  -0.361  -0.358  -0.358  -0.357  -0.357
 -0.356  -0.355  -0.354  -0.353  -0.352  -0.351  -0.351  -0.349
 -0.348  -0.348  -0.345  -0.344  -0.344  -0.343  -0.343  -0.342
 -0.341  -0.338  -0.337  -0.336  -0.336  -0.333  -0.332  -0.331
 -0.330  -0.328  -0.328  -0.326  -0.325  -0.325  -0.322  -0.320
 -0.307  -0.306  -0.302  -0.298  -0.288  -0.285  -0.281  -0.275
 -0.268  -0.268  -0.266  -0.265  -0.264  -0.262  -0.261  -0.260
 -0.260  -0.256  -0.256  -0.255  -0.254  -0.252  -0.252  -0.250
 -0.250  -0.249  -0.242  -0.238  -0.220  -0.219  -0.208  -0.206
 -0.205  -0.204  -0.202  -0.201  -0.196  -0.193

          Ground-State Mulliken Net Atomic Charges

     Atom                 Charge (a.u.)
  ----------------------------------------
      1 O                    -0.481812
      2 C                    -0.096669
      3 H                     0.127006
      4 H                     0.123432
      5 H                     0.122410
      6 O                    -0.461789
      7 C                     0.616727
      8 C                    -0.269998
      9 H                     0.136557
     10 H                     0.134623
     11 C                    -0.180210
     12 H                     0.116335
     13 H                     0.123311
     14 C                    -0.187518
     15 H                     0.111569
     16 H                     0.108063
     17 C                    -0.010823
     18 C                     0.124358
     19 C                    -0.113111
     20 H                     0.090671
     21 C                    -0.081733
     22 H                     0.090740
     23 C                    -0.088538
     24 H                     0.089173
     25 C                    -0.087201
     26 H                     0.099403
     27 C                    -0.117041
     28 H                     0.091244
     29 C                     0.002433
     30 C                     0.006741
     31 C                     0.016085
     32 C                    -0.016620
     33 C                     0.006804
     34 C                    -0.013594
     35 C                    -0.021946
     36 C                    -0.013487
     37 C                    -0.004830
     38 C                     0.012339
     39 C                    -0.106688
     40 C                     0.007774
     41 C                     0.002773
     42 C                    -0.011310
     43 C                     0.015883
     44 C                     0.011559
     45 C                    -0.071362
     46 C                     0.013389
     47 C                     0.008130
     48 C                    -0.016946
     49 C                     0.009356
     50 C                    -0.013408
     51 C                     0.024546
     52 C                     0.013038
     53 C                     0.048086
     54 C                    -0.038124
     55 C                     0.022276
     56 C                    -0.033259
     57 C                    -0.023892
     58 C                     0.036289
     59 C                     0.026248
     60 C                     0.033942
     61 C                    -0.002405
     62 C                     0.006878
     63 C                    -0.027129
     64 C                    -0.003751
     65 C                     0.016027
     66 C                     0.011401
     67 C                    -0.004028
     68 C                    -0.028678
     69 C                    -0.002828
     70 C                     0.014849
     71 C                     0.032810
     72 C                    -0.001878
     73 C                     0.003379
     74 C                    -0.036063
     75 C                    -0.018479
     76 C                    -0.015040
     77 C                    -0.002709
     78 C                     0.013172
     79 C                    -0.035104
     80 C                     0.003189
     81 C                     0.009903
     82 C                    -0.024450
     83 C                    -0.008012
     84 C                    -0.009490
     85 C                    -0.016491
     86 C                     0.003543
     87 C                     0.026744
     88 C                     0.018909
     89 O                    -0.487376
     90 C                    -0.076333
     91 H                     0.126534
     92 H                     0.121123
     93 H                     0.120576
     94 O                    -0.450723
     95 C                     0.617107
     96 C                    -0.284286
     97 H                     0.136272
     98 H                     0.142400
     99 C                    -0.171115
    100 H                     0.116238
    101 H                     0.120717
    102 C                    -0.184133
    103 H                     0.114042
    104 H                     0.107502
    105 C                     0.013661
    106 C                     0.117475
    107 C                    -0.131223
    108 H                     0.088383
    109 C                    -0.087277
    110 H                     0.095437
    111 C                    -0.091160
    112 H                     0.093106
    113 C                    -0.088560
    114 H                     0.095395
    115 C                    -0.123290
    116 H                     0.079046
    117 C                    -0.022152
    118 C                    -0.008202
    119 C                    -0.003564
    120 C                    -0.023575
    121 C                    -0.038691
    122 C                     0.010733
    123 C                     0.021339
    124 C                    -0.025140
    125 C                    -0.003669
    126 C                    -0.033752
    127 C                    -0.100437
    128 C                     0.002596
    129 C                    -0.042442
    130 C                    -0.021872
    131 C                    -0.005782
    132 C                     0.027147
    133 C                    -0.101784
    134 C                     0.012570
    135 C                     0.008755
    136 C                     0.000839
    137 C                    -0.010359
    138 C                     0.014068
    139 C                     0.013633
    140 C                     0.044410
    141 C                     0.007763
    142 C                    -0.006350
    143 C                    -0.003944
    144 C                     0.009031
    145 C                    -0.007556
    146 C                    -0.023369
    147 C                    -0.004505
    148 C                     0.099541
    149 C                     0.025370
    150 C                     0.006803
    151 C                    -0.029976
    152 C                     0.011091
    153 C                     0.003370
    154 C                    -0.015783
    155 C                    -0.000552
    156 C                     0.006445
    157 C                    -0.013287
    158 C                     0.041460
    159 C                     0.006420
    160 C                     0.044502
    161 C                     0.052747
    162 C                     0.014074
    163 C                    -0.005639
    164 C                    -0.010833
    165 C                     0.019971
    166 C                     0.006241
    167 C                     0.004238
    168 C                     0.012325
    169 C                    -0.012359
    170 C                    -0.029077
    171 C                     0.000330
    172 C                    -0.021350
    173 C                     0.017832
    174 C                    -0.020668
    175 C                    -0.016457
    176 C                     0.002270
  ----------------------------------------
  Sum of atomic charges =     0.000000

                    Cartesian Multipole Moments
 -----------------------------------------------------------------
    Charge (ESU x 10^10)
                 0.0000
    Dipole Moment (Debye)
         X       4.4878      Y       0.3611      Z      -1.6291
       Tot       4.7880
    Quadrupole Moments (Debye-Ang)
        XX    -758.2123     XY     -41.3869     YY    -782.8105
        XZ       9.2106     YZ      -6.0416     ZZ    -796.0742

 Total job time:  858.25s(wall), 7230.65s(cpu)
        *  Thank you very much for using Q-Chem.  Have a nice day.  *
