 Q-Chem 4.4, Q-Chem, Inc., Pleasanton, CA (2016)
 Q-Chem 4.4.2 for Intel X86 Linux

User input:
--------------------------------------------------------------
$comment
SP
$end

$rem
MEM_STATIC 5000
MEM_TOTAL 20000
JOBTYPE SP
EXCHANGE B3LYP
BASIS 6-31g(d,p)
$end

$molecule
0 1
O         -17.798000     19.306000     10.525000
C         -16.763000     18.857000     11.510000
H         -16.338000     17.890000     11.215000
H         -17.190000     18.849000     12.521000
H         -15.931000     19.566000     11.602000
O         -16.609000     18.911000      8.529000
C         -17.543000     19.430000      9.150000
C         -18.625000     20.239000      8.448000
H         -18.604000     21.194000      8.986000
H         -19.617000     19.813000      8.642000
C         -18.368000     20.440000      6.958000
H         -17.484000     21.055000      6.746000
H         -18.085000     19.493000      6.482000
C         -19.689000     21.062000      6.307000
H         -20.583000     20.569000      6.709000
H         -19.812000     22.119000      6.573000
C         -19.661000     21.107000      4.687000
C         -18.327000     21.749000      4.279000
C         -17.092000     21.044000      4.060000
H         -17.003000     19.963000      4.110000
C         -15.933000     21.733000      3.766000
H         -14.992000     21.195000      3.700000
C         -15.988000     23.141000      3.700000
H         -15.070000     23.712000      3.595000
C         -17.167000     23.842000      3.772000
H         -17.082000     24.924000      3.809000
C         -18.294000     23.162000      4.206000
H         -19.175000     23.784000      4.335000
C         -22.378000     22.805000      0.195000
C         -21.069000     20.982000     -0.666000
C         -24.545000     18.109000     -1.269000
C         -25.071000     21.389000      4.303000
C         -23.943000     16.284000      1.741000
C         -21.147000     22.086000      0.208000
C         -25.802000     18.651000      3.866000
C         -24.394000     20.458000     -1.710000
C         -20.434000     18.204000      2.241000
C         -24.344000     20.342000      4.930000
C         -20.270000     19.995000      3.818000
C         -21.099000     17.808000      3.399000
C         -23.528000     18.303000      4.601000
C         -25.627000     17.597000      2.985000
C         -20.017000     20.463000      1.341000
C         -25.750000     17.448000      0.576000
C         -20.924000     21.361000      3.902000
C         -22.246000     21.550000      4.517000
C         -24.572000     16.657000      0.501000
C         -26.470000     21.407000      1.046000
C         -26.264000     19.638000     -0.402000
C         -25.582000     20.668000     -0.981000
C         -23.311000     21.344000     -1.497000
C         -23.004000     22.526000      3.823000
C         -19.997000     19.538000      2.382000
C         -22.134000     20.589000     -1.512000
C         -24.700000     19.024000      4.654000
C         -20.379000     20.017000      0.030000
C         -22.200000     16.862000      3.150000
C         -25.013000     22.711000      2.542000
C         -23.858000     19.166000     -1.852000
C         -21.131000     18.823000      4.347000
C         -24.636000     22.637000      0.056000
C         -23.373000     17.123000      3.784000
C         -20.731000     17.762000      0.989000
C         -26.783000     19.207000      1.907000
C         -26.473000     19.658000      3.202000
C         -21.807000     16.867000      0.751000
C         -24.426000     22.433000      3.761000
C         -22.920000     20.435000      5.045000
C         -26.193000     21.908000      2.352000
C         -20.996000     22.214000      2.701000
C         -21.737000     18.256000     -1.015000
C         -22.431000     19.125000      4.910000
C         -22.527000     16.448000      1.844000
C         -24.311000     23.084000      1.344000
C         -23.857000     17.047000     -0.622000
C         -23.443000     22.451000     -0.639000
C         -25.745000     18.299000     -0.522000
C         -20.761000     18.674000     -0.099000
C         -22.422000     17.141000     -0.499000
C         -20.509000     21.762000      1.449000
C         -22.256000     22.884000      2.657000
C         -26.747000     20.065000      0.808000
C         -22.446000     19.228000     -1.717000
C         -24.488000     16.758000      2.939000
C         -26.156000     21.010000      3.462000
C         -26.237000     17.929000      1.785000
C         -22.970000     23.155000      1.438000
C         -25.707000     21.795000     -0.065000
O         -22.126000     28.565000      0.304000
C         -21.224000     27.577000      0.739000
H         -20.810000     26.899000     -0.017000
H         -21.771000     26.917000      1.424000
H         -20.428000     28.091000      1.292000
O         -23.574000     26.891000     -0.361000
C         -23.220000     28.056000     -0.342000
C         -24.204000     29.119000     -0.739000
H         -24.223000     29.957000     -0.031000
H         -25.197000     28.656000     -0.690000
C         -24.061000     29.679000     -2.204000
H         -24.581000     30.642000     -2.284000
H         -22.989000     29.905000     -2.269000
C         -24.535000     28.628000     -3.306000
H         -24.579000     27.607000     -2.908000
H         -25.567000     28.971000     -3.453000
C         -23.688000     28.773000     -4.533000
C         -24.118000     29.986000     -5.400000
C         -23.554000     31.262000     -5.271000
H         -22.795000     31.345000     -4.498000
C         -23.979000     32.355000     -6.103000
H         -23.468000     33.310000     -6.172000
C         -25.114000     32.185000     -6.866000
H         -25.582000     32.970000     -7.452000
C         -25.817000     30.950000     -6.871000
H         -26.667000     30.857000     -7.541000
C         -25.364000     29.903000     -6.100000
H         -25.891000     28.953000     -6.097000
C         -21.628000     25.685000     -8.694000
C         -20.003000     27.462000     -8.400000
C         -16.821000     24.758000     -6.513000
C         -22.574000     23.418000     -4.171000
C         -17.582000     25.779000     -3.181000
C         -21.334000     27.054000     -8.436000
C         -20.286000     23.319000     -2.636000
C         -18.328000     24.323000     -8.356000
C         -19.923000     28.752000     -4.549000
C         -22.404000     24.377000     -3.138000
C         -22.219000     28.383000     -4.484000
C         -20.189000     28.135000     -3.369000
C         -20.896000     25.688000     -2.149000
C         -18.914000     23.754000     -2.679000
C         -21.035000     28.581000     -6.718000
C         -17.294000     23.731000     -4.455000
C         -23.237000     27.489000     -5.165000
C         -23.367000     26.104000     -4.623000
C         -16.941000     25.064000     -4.224000
C         -20.322000     22.186000     -6.404000
C         -18.149000     22.765000     -6.497000
C         -18.661000     23.102000     -7.731000
C         -19.273000     25.138000     -8.919000
C         -23.448000     25.167000     -5.662000
C         -21.103000     28.831000     -5.355000
C         -18.960000     26.469000     -8.630000
C         -21.224000     24.360000     -2.448000
C         -19.836000     28.377000     -7.411000
C         -19.185000     27.241000     -2.813000
C         -22.565000     23.112000     -6.479000
C         -17.364000     25.161000     -7.704000
C         -21.527000     27.838000     -3.280000
C         -20.991000     23.601000     -8.333000
C         -19.528000     26.038000     -2.132000
C         -18.716000     28.529000     -5.224000
C         -19.229000     22.240000     -4.321000
C         -20.468000     22.418000     -3.697000
C         -17.690000     27.744000     -4.670000
C         -23.139000     23.785000     -5.386000
C         -22.755000     25.715000     -3.390000
C         -21.609000     22.288000     -5.819000
C         -23.016000     27.147000     -6.644000
C         -17.664000     27.459000     -6.874000
C         -21.828000     26.582000     -2.748000
C         -17.968000     27.065000     -3.443000
C         -22.213000     23.720000     -7.699000
C         -16.629000     25.689000     -5.486000
C         -20.633000     24.772000     -8.992000
C         -17.207000     23.563000     -5.867000
C         -18.608000     28.410000     -6.626000
C         -17.026000     27.051000     -5.698000
C         -21.969000     27.747000     -7.366000
C         -23.239000     25.806000     -6.871000
C         -19.132000     22.111000     -5.733000
C         -17.800000     26.526000     -7.886000
C         -18.539000     25.101000     -2.420000
C         -21.652000     22.432000     -4.477000
C         -18.321000     23.091000     -3.722000
C         -22.570000     25.033000     -7.872000
C         -20.043000     22.741000     -7.656000
$end

--------------------------------------------------------------

             Standard Nuclear Orientation (Angstroms)
    I     Atom           X                Y                Z
 ----------------------------------------------------------------
    1      O      11.5636164305     5.2818667501     1.9121159016
    2      C      12.5857090744     6.3575147581     1.7087468036
    3      H      12.9053025644     6.3980810324     0.6604370314
    4      H      13.4197908467     6.2153971983     2.4077633959
    5      H      12.2105856668     7.3532503791     1.9755088740
    6      O      10.1477006035     5.7641381648     0.0910286841
    7      C      10.3738814177     5.2066421881     1.1705649157
    8      C       9.3683065074     4.2623104674     1.8148208440
    9      H       9.2356245892     4.6916769652     2.8147958033
   10      H       9.8119553236     3.2721013406     1.9755616698
   11      C       8.0403224620     4.1820777786     1.0687839209
   12      H       7.4741703012     5.1222515884     1.0818199567
   13      H       8.2073768205     4.0515578012    -0.0075670334
   14      C       7.1949934758     2.9760116995     1.6905149865
   15      H       7.8423056080     2.1095288189     1.8751319446
   16      H       6.7880336717     3.2330719443     2.6761304026
   17      C       5.8627957761     2.6065809745     0.8443594285
   18      C       5.1068099160     3.9209627187     0.6013162023
   19      C       5.3037183656     4.8044725676    -0.5170971423
   20      H       5.9805634815     4.5887285263    -1.3382653332
   21      C       4.6179495992     5.9993695215    -0.5969749781
   22      H       4.8496998863     6.6977332755    -1.3956369037
   23      C       3.7334871197     6.3364529624     0.4489436977
   24      H       3.2783304435     7.3223676800     0.4733274980
   25      C       3.4185749673     5.4664995439     1.4641468231
   26      H       2.8050046355     5.8652467505     2.2665495357
   27      C       4.2106189442     4.3390389259     1.6137593006
   28      H       3.9777539884     3.7361310335     2.4866636399
   29      C       1.3372503872    -0.5482860899     0.7463301531
   30      C       1.6761743759    -0.0793940107    -1.5867797346
   31      C       3.0145900747    -4.2689521076    -2.7514944505
   32      C       5.5792452147    -2.4085046819     2.9092068655
   33      C       6.4971405612    -3.4784893420    -2.7396739050
   34      C       1.7294138208     0.3859681856    -0.2565994506
   35      C       6.8737347646    -3.9808090545     0.8907595006
   36      C       1.2639162788    -3.5656403360    -1.2765107854
   37      C       5.6386020669     0.4417964279    -2.3605273164
   38      C       6.6779110165    -1.8795067502     2.1805357159
   39      C       5.8427713857     1.5053284963    -0.2277543728
   40      C       6.8291561743     0.0053098486    -1.7842761701
   41      C       7.5906291296    -1.7941903733     0.1578432623
   42      C       6.7818149340    -4.3439324490    -0.4424299628
   43      C       3.5620949123     1.2493920298    -1.3008682293
   44      C       4.9344299970    -5.1074657368    -1.8006629372
   45      C       5.1252801823     1.3146126004     1.0949556559
   46      C       5.5557382279     0.3022425074     2.0703748816
   47      C       5.3002249432    -4.2650508022    -2.8848774617
   48      C       2.9955617996    -4.5168917915     1.7071844837
   49      C       2.8690846692    -5.1996810245    -0.4805777060
   50      C       1.7689795162    -4.4194207548    -0.2750842415
   51      C       0.8725477669    -2.2566109804    -0.9070154077
   52      C       4.4462401118    -0.2926854793     2.7214129918
   53      C       4.9471156685     1.2644354652    -1.4464608115
   54      C       1.2653904702    -1.3896569809    -1.9315369415
   55      C       7.2483310650    -2.6567167667     1.1752489118
   56      C       2.7831936353     0.4563601315    -2.2025855957
   57      C       7.2276836839    -1.3466639894    -2.2114302000
   58      C       3.3766900363    -2.4188421655     2.9377169026
   59      C       1.8951068647    -3.4773218401    -2.5297155921
   60      C       6.9930209279     0.5062569770    -0.4989150080
   61      C       1.4051141426    -2.7181841349     1.4043924487
   62      C       7.6255280518    -2.1958696014    -1.2282843881
   63      C       4.9025319335    -0.2751523769    -3.2523020469
   64      C       5.0020438193    -5.2212579938     0.6314576793
   65      C       5.7669523663    -4.4788742881     1.5481404752
   66      C       5.2788453384    -1.5865988386    -3.6446557131
   67      C       4.5019674523    -1.6490895521     3.1591794305
   68      C       6.6647928450    -0.5078986710     1.7704513457
   69      C       3.7409125929    -3.7878654063     2.6799839105
   70      C       3.6558744769     1.1905101604     1.1202431516
   71      C       3.0321851699    -1.5678570488    -3.5729351944
   72      C       7.3139460617    -0.4664202398     0.5253306122
   73      C       6.4326250336    -2.0968985592    -3.0996817596
   74      C       2.1662189758    -1.9648522761     2.3085984780
   75      C       4.1396270753    -3.7752635956    -3.4658895796
   76      C       0.9130492965    -1.8443197935     0.4373850547
   77      C       3.5464119120    -5.1350320120    -1.7509045582
   78      C       3.4877120655    -0.3150156835    -3.1379182282
   79      C       4.1319678598    -2.3911872073    -3.8751130977
   80      C       2.8978155878     1.1951769402    -0.0773803041
   81      C       3.2687781101     0.2075668362     2.0806674454
   82      C       3.6079743009    -5.2184181804     0.6741556100
   83      C       1.9168678032    -2.1206697245    -2.9478477469
   84      C       7.2007584788    -3.5440403781    -1.5323918801
   85      C       5.1649143020    -3.7319671066     2.5852869603
   86      C       5.6406988802    -5.1146362198    -0.6042751035
   87      C       2.1521640060    -0.6815567693     1.9022573653
   88      C       1.8441024489    -3.9802988031     1.1128417135
   89      O      -1.9927794277     1.3669905982     5.0469814573
   90      C      -1.0898753824     2.0262730341     4.1931173260
   91      H      -1.3121625729     2.0235380456     3.1192472572
   92      H      -0.1281852923     1.5037836919     4.2718006011
   93      H      -0.9770754362     3.0488852206     4.5741179667
   94      O      -1.4860618022    -0.6196397625     3.9803315344
   95      C      -2.1728229256     0.0469996552     4.7332279722
   96      C      -3.0865930167    -0.6569338496     5.6951717551
   97      H      -3.0117098590    -0.2553075593     6.7134830217
   98      H      -2.7377785884    -1.6952372550     5.7506112076
   99      C      -4.6028473888    -0.7330669108     5.2763037137
  100      H      -5.2186757372    -0.9570699938     6.1565008872
  101      H      -4.8270990869     0.3061140886     5.0037252364
  102      C      -4.8514102215    -1.7507558263     4.0737203322
  103      H      -3.9250987618    -1.9844704498     3.5351058555
  104      H      -5.1360447338    -2.6429138392     4.6458385668
  105      C      -5.9554629293    -1.2355883353     3.2021510151
  106      C      -7.3562109193    -1.5029155153     3.8140327418
  107      C      -8.0275563361    -0.5826049573     4.6296532468
  108      H      -7.4812046847     0.3374220425     4.8181981825
  109      C      -9.3292797365    -0.8709696599     5.1680397131
  110      H      -9.9682143657    -0.1417596474     5.6558125059
  111      C      -9.8027069485    -2.1609320335     5.0624094640
  112      H     -10.7225203950    -2.5155347525     5.5172117677
  113      C      -9.0508221068    -3.1666639690     4.3971039261
  114      H      -9.5050715984    -4.1477009157     4.2909299715
  115      C      -7.8264414046    -2.8545799461     3.8499709818
  116      H      -7.2430454342    -3.6137706421     3.3366322741
  117      C      -7.5520855274    -1.2677456160    -2.1404164566
  118      C      -8.4248226982     0.8185519248    -1.2626451867
  119      C      -5.4182464373     3.4576314767    -3.4972071808
  120      C      -2.5344488762    -1.6535010715    -1.0604862898
  121      C      -3.3121725267     3.8873988019    -0.6505356631
  122      C      -8.1649762763    -0.5377121970    -1.0827883853
  123      C      -1.3211821546     0.8191937807    -1.1818701022
  124      C      -6.5913149727     1.4756116139    -4.2404638490
  125      C      -6.0899365860     2.2335554121     1.7451402068
  126      C      -2.2761833159    -0.9605571606     0.1514533278
  127      C      -5.7374868956     0.0221987225     2.3757611761
  128      C      -4.7650782865     2.1078290373     2.0149333963
  129      C      -2.3092950665     1.0588701202     1.0957642244
  130      C      -1.6620848074     2.2011954939    -1.3993894024
  131      C      -7.6958281551     0.6102526100     0.8754584945
  132      C      -3.1363325515     3.2440715450    -2.9862441945
  133      C      -5.7205732274    -1.3469975448     1.7243500082
  134      C      -4.4598193033    -1.7284795013     1.0215982314
  135      C      -3.7517610329     4.0114791688    -1.9926686698
  136      C      -3.6837098774    -0.4891253606    -4.0436130646
  137      C      -4.1786099271     1.6618482811    -4.4843004069
  138      C      -5.3535532530     0.9745742956    -4.6979160661
  139      C      -7.4933820545     0.6946320277    -3.5692225616
  140      C      -4.7391044632    -2.3343701919    -0.2108575571
  141      C      -6.7437506163     0.9627145853     1.8210862838
  142      C      -8.0594962830     1.4391171131    -2.5308066344
  143      C      -1.7524752391     0.2988656236     0.0599486786
  144      C      -8.1758433811     1.4849938211    -0.1063150010
  145      C      -3.8239952308     2.9188681914     1.2579881057
  146      C      -4.2122836861    -2.3147109981    -2.5329851128
  147      C      -6.5965184237     2.7715092972    -3.6262439220
  148      C      -4.4700125868     0.8084878717     2.3481341886
  149      C      -6.0507143166    -1.1868933801    -3.7585924061
  150      C      -2.5514339403     2.4278734361     0.8479504096
  151      C      -6.5444969340     3.1147663088     0.7556730544
  152      C      -2.0771549292     1.0613320479    -3.3009711435
  153      C      -1.6358937716     0.1247691540    -2.3605884892
  154      C      -5.6703150521     3.9769489078     0.0713747251
  155      C      -3.7099594899    -2.3763445716    -1.2211445338
  156      C      -3.2584666006    -0.9639886438     1.1574636525
  157      C      -3.2271687365    -1.5017085593    -3.1631339608
  158      C      -6.7170638046    -1.6137379647     0.5889636960
  159      C      -7.2774328945     3.3636898339    -1.3359640929
  160      C      -3.2875684603     0.3035297918     1.8022365560
  161      C      -4.2704886500     3.8341636955     0.3242628963
  162      C      -5.5670884844    -2.1221783490    -2.8637465639
  163      C      -5.1490249848     4.1613486132    -2.3179463948
  164      C      -7.2871551842    -0.6856874057    -3.3665559891
  165      C      -4.1770741784     2.9203793748    -3.9036411887
  166      C      -7.6069319497     2.8270785161    -0.1274444753
  167      C      -6.1116627687     4.1323843005    -1.2548910973
  168      C      -7.6908386574    -0.6557650411     0.2549825384
  169      C      -6.0983070845    -2.2623040651    -0.4579561360
  170      C      -3.1413331739     0.7580861127    -4.1928010412
  171      C      -7.5353847243     2.7149272113    -2.5299896006
  172      C      -2.2640336413     3.0000114822    -0.3886146410
  173      C      -2.2301601137    -1.1618916438    -2.3181207834
  174      C      -2.1307389463     2.2958598170    -2.6840951913
  175      C      -6.4707450045    -2.1184295453    -1.8318852165
  176      C      -5.0303194491    -0.3873431015    -4.4036867142
 ----------------------------------------------------------------

    9   -5804.2445997057      9.65E-06 Convergence criterion met
 Total energy in the final basis set = -5804.2445997057

                    Orbital Energies (a.u.)
 --------------------------------------------------------------

 Alpha MOs
 -- Occupied --
-19.200 -19.191 -19.141 -19.140 -10.324 -10.318 -10.253 -10.242
-10.242 -10.242 -10.238 -10.237 -10.234 -10.233 -10.228 -10.228
-10.227 -10.222 -10.222 -10.222 -10.222 -10.222 -10.221 -10.221
-10.220 -10.220 -10.220 -10.217 -10.217 -10.217 -10.217 -10.216
-10.216 -10.216 -10.215 -10.215 -10.215 -10.215 -10.215 -10.215
-10.215 -10.215 -10.215 -10.215 -10.214 -10.214 -10.214 -10.214
-10.214 -10.214 -10.214 -10.214 -10.214 -10.214 -10.213 -10.213
-10.213 -10.213 -10.213 -10.213 -10.213 -10.213 -10.213 -10.213
-10.213 -10.213 -10.212 -10.212 -10.212 -10.212 -10.212 -10.212
-10.212 -10.212 -10.212 -10.212 -10.212 -10.211 -10.211 -10.211
-10.211 -10.211 -10.211 -10.211 -10.211 -10.211 -10.211 -10.211
-10.210 -10.210 -10.210 -10.210 -10.210 -10.210 -10.210 -10.210
-10.210 -10.210 -10.209 -10.209 -10.209 -10.209 -10.209 -10.209
-10.209 -10.209 -10.208 -10.208 -10.208 -10.208 -10.208 -10.208
-10.207 -10.207 -10.207 -10.207 -10.207 -10.207 -10.207 -10.207
-10.207 -10.207 -10.206 -10.206 -10.206 -10.206 -10.206 -10.206
-10.206 -10.205 -10.205 -10.204 -10.204 -10.204 -10.204 -10.204
-10.203 -10.203 -10.200 -10.199 -10.199 -10.198 -10.197 -10.196
-10.196 -10.194 -10.192 -10.190  -1.103  -1.069  -1.020  -1.001
 -0.982  -0.978  -0.964  -0.962  -0.960  -0.959  -0.959  -0.956
 -0.935  -0.928  -0.927  -0.924  -0.922  -0.922  -0.921  -0.919
 -0.918  -0.916  -0.897  -0.892  -0.892  -0.887  -0.886  -0.881
 -0.875  -0.867  -0.853  -0.852  -0.839  -0.837  -0.836  -0.835
 -0.834  -0.831  -0.816  -0.815  -0.801  -0.800  -0.796  -0.795
 -0.794  -0.793  -0.791  -0.791  -0.788  -0.787  -0.784  -0.780
 -0.770  -0.767  -0.764  -0.764  -0.763  -0.763  -0.762  -0.757
 -0.753  -0.749  -0.742  -0.735  -0.730  -0.729  -0.715  -0.713
 -0.712  -0.712  -0.711  -0.711  -0.709  -0.707  -0.706  -0.705
 -0.704  -0.702  -0.702  -0.701  -0.700  -0.699  -0.669  -0.668
 -0.658  -0.655  -0.654  -0.653  -0.643  -0.641  -0.630  -0.629
 -0.627  -0.626  -0.625  -0.621  -0.620  -0.616  -0.615  -0.614
 -0.613  -0.611  -0.610  -0.609  -0.607  -0.606  -0.606  -0.606
 -0.604  -0.602  -0.602  -0.600  -0.569  -0.563  -0.562  -0.560
 -0.558  -0.557  -0.556  -0.556  -0.556  -0.553  -0.552  -0.550
 -0.533  -0.533  -0.530  -0.530  -0.526  -0.525  -0.523  -0.523
 -0.521  -0.519  -0.519  -0.517  -0.516  -0.513  -0.511  -0.507
 -0.506  -0.502  -0.502  -0.494  -0.490  -0.487  -0.484  -0.483
 -0.481  -0.480  -0.479  -0.478  -0.478  -0.477  -0.476  -0.473
 -0.471  -0.470  -0.468  -0.466  -0.466  -0.465  -0.464  -0.463
 -0.462  -0.462  -0.461  -0.460  -0.459  -0.458  -0.456  -0.455
 -0.454  -0.452  -0.452  -0.449  -0.448  -0.444  -0.442  -0.441
 -0.441  -0.439  -0.437  -0.435  -0.435  -0.432  -0.431  -0.430
 -0.428  -0.428  -0.427  -0.425  -0.425  -0.424  -0.424  -0.422
 -0.422  -0.420  -0.419  -0.418  -0.417  -0.417  -0.415  -0.415
 -0.415  -0.413  -0.413  -0.412  -0.411  -0.411  -0.410  -0.409
 -0.408  -0.407  -0.406  -0.404  -0.402  -0.398  -0.396  -0.395
 -0.392  -0.391  -0.390  -0.385  -0.385  -0.384  -0.383  -0.382
 -0.377  -0.374  -0.371  -0.371  -0.369  -0.366  -0.365  -0.365
 -0.363  -0.361  -0.361  -0.360  -0.359  -0.358  -0.357  -0.357
 -0.356  -0.355  -0.355  -0.352  -0.352  -0.351  -0.351  -0.350
 -0.349  -0.347  -0.346  -0.346  -0.345  -0.343  -0.342  -0.342
 -0.341  -0.339  -0.339  -0.337  -0.336  -0.335  -0.335  -0.331
 -0.329  -0.328  -0.327  -0.326  -0.326  -0.324  -0.323  -0.319
 -0.308  -0.306  -0.300  -0.298  -0.283  -0.282  -0.272  -0.271
 -0.270  -0.268  -0.267  -0.266  -0.264  -0.263  -0.262  -0.261
 -0.260  -0.258  -0.258  -0.254  -0.254  -0.253  -0.252  -0.251
 -0.249  -0.247  -0.243  -0.239  -0.221  -0.219  -0.210  -0.210
 -0.207  -0.204  -0.200  -0.199  -0.195  -0.193

          Ground-State Mulliken Net Atomic Charges

     Atom                 Charge (a.u.)
  ----------------------------------------
      1 O                    -0.498796
      2 C                    -0.087478
      3 H                     0.140483
      4 H                     0.131734
      5 H                     0.126478
      6 O                    -0.468128
      7 C                     0.601435
      8 C                    -0.263576
      9 H                     0.134438
     10 H                     0.138506
     11 C                    -0.176121
     12 H                     0.128968
     13 H                     0.126543
     14 C                    -0.187957
     15 H                     0.104719
     16 H                     0.113430
     17 C                    -0.008360
     18 C                     0.079931
     19 C                    -0.110137
     20 H                     0.098442
     21 C                    -0.079823
     22 H                     0.095689
     23 C                    -0.087614
     24 H                     0.083341
     25 C                    -0.079380
     26 H                     0.087675
     27 C                    -0.112754
     28 H                     0.087887
     29 C                    -0.017146
     30 C                     0.016726
     31 C                     0.005482
     32 C                     0.003578
     33 C                    -0.016059
     34 C                    -0.009549
     35 C                    -0.025338
     36 C                    -0.006771
     37 C                     0.034601
     38 C                    -0.032133
     39 C                    -0.089185
     40 C                     0.013743
     41 C                     0.015732
     42 C                     0.019696
     43 C                    -0.002265
     44 C                     0.006657
     45 C                    -0.078298
     46 C                     0.046166
     47 C                     0.000383
     48 C                     0.025524
     49 C                     0.008458
     50 C                    -0.002482
     51 C                    -0.003669
     52 C                    -0.027069
     53 C                     0.034686
     54 C                     0.023484
     55 C                     0.026285
     56 C                    -0.034016
     57 C                    -0.014261
     58 C                    -0.008993
     59 C                     0.001004
     60 C                     0.002901
     61 C                    -0.002893
     62 C                    -0.009214
     63 C                    -0.014008
     64 C                    -0.004890
     65 C                     0.010319
     66 C                    -0.006922
     67 C                     0.029294
     68 C                    -0.017444
     69 C                    -0.039606
     70 C                     0.028041
     71 C                     0.002748
     72 C                    -0.005400
     73 C                     0.012744
     74 C                     0.024528
     75 C                    -0.006613
     76 C                     0.027402
     77 C                    -0.017024
     78 C                     0.013651
     79 C                    -0.016762
     80 C                     0.002521
     81 C                    -0.002088
     82 C                     0.004287
     83 C                    -0.012865
     84 C                    -0.011622
     85 C                    -0.008928
     86 C                     0.008278
     87 C                     0.002338
     88 C                    -0.019658
     89 O                    -0.453815
     90 C                    -0.101134
     91 H                     0.132542
     92 H                     0.122901
     93 H                     0.112512
     94 O                    -0.480166
     95 C                     0.632324
     96 C                    -0.260138
     97 H                     0.118979
     98 H                     0.130183
     99 C                    -0.206364
    100 H                     0.113692
    101 H                     0.112705
    102 C                    -0.207404
    103 H                     0.137010
    104 H                     0.121331
    105 C                     0.027965
    106 C                     0.094004
    107 C                    -0.125300
    108 H                     0.092853
    109 C                    -0.088316
    110 H                     0.097368
    111 C                    -0.080679
    112 H                     0.089634
    113 C                    -0.086037
    114 H                     0.092705
    115 C                    -0.104272
    116 H                     0.090307
    117 C                    -0.006532
    118 C                     0.014208
    119 C                     0.016009
    120 C                     0.016252
    121 C                    -0.010755
    122 C                    -0.016021
    123 C                    -0.009205
    124 C                     0.007007
    125 C                     0.000215
    126 C                     0.002876
    127 C                    -0.090167
    128 C                     0.010770
    129 C                    -0.022834
    130 C                    -0.016553
    131 C                     0.028411
    132 C                     0.011900
    133 C                    -0.105655
    134 C                     0.022573
    135 C                    -0.012636
    136 C                     0.047610
    137 C                     0.022040
    138 C                    -0.020202
    139 C                     0.017472
    140 C                    -0.007627
    141 C                     0.040314
    142 C                    -0.002326
    143 C                     0.021893
    144 C                    -0.022514
    145 C                     0.001126
    146 C                    -0.022793
    147 C                    -0.015544
    148 C                     0.025955
    149 C                    -0.006274
    150 C                    -0.042261
    151 C                     0.004801
    152 C                    -0.029475
    153 C                     0.014259
    154 C                    -0.017904
    155 C                    -0.009997
    156 C                    -0.018556
    157 C                    -0.012936
    158 C                     0.023206
    159 C                     0.032227
    160 C                     0.041480
    161 C                     0.018231
    162 C                     0.027811
    163 C                    -0.004109
    164 C                    -0.006622
    165 C                    -0.020771
    166 C                    -0.021124
    167 C                    -0.017615
    168 C                    -0.014544
    169 C                     0.026324
    170 C                    -0.015623
    171 C                    -0.007303
    172 C                     0.007556
    173 C                     0.011915
    174 C                     0.027224
    175 C                    -0.012508
    176 C                    -0.035724
  ----------------------------------------
  Sum of atomic charges =     0.000000

                    Cartesian Multipole Moments
 -----------------------------------------------------------------
    Charge (ESU x 10^10)
                 0.0000
    Dipole Moment (Debye)
         X       0.0590      Y       2.2414      Z       5.3497
       Tot       5.8006
    Quadrupole Moments (Debye-Ang)
        XX    -764.6709     XY      36.0943     YY    -791.5318
        XZ      -2.5656     YZ       9.3866     ZZ    -790.6736

 Total job time:  860.58s(wall), 7264.21s(cpu)
        *  Thank you very much for using Q-Chem.  Have a nice day.  *
