 Q-Chem 4.4, Q-Chem, Inc., Pleasanton, CA (2016)
 Q-Chem 4.4.2 for Intel X86 Linux

User input:
--------------------------------------------------------------
$comment
SP
$end

$rem
MEM_STATIC 5000
MEM_TOTAL 20000
JOBTYPE SP
EXCHANGE B3LYP
BASIS 6-31g(d,p)
$end

$molecule
0 1
O          -8.316000     32.225000    -13.060000
C          -8.637000     33.632000    -12.636000
H          -7.814000     34.253000    -13.012000
H          -8.740000     33.663000    -11.544000
H          -9.586000     34.031000    -13.015000
O          -6.364000     32.137000    -11.856000
C          -7.172000     31.600000    -12.613000
C          -6.954000     30.199000    -13.205000
H          -6.068000     29.829000    -12.674000
H          -6.621000     30.329000    -14.242000
C          -8.176000     29.251000    -13.034000
H          -8.948000     29.560000    -13.750000
H          -7.876000     28.246000    -13.356000
C          -8.699000     29.359000    -11.562000
H          -7.882000     29.259000    -10.837000
H          -9.082000     30.373000    -11.393000
C          -9.797000     28.285000    -11.181000
C         -10.812000     28.247000    -12.282000
C         -10.770000     27.253000    -13.238000
H         -10.109000     26.394000    -13.180000
C         -11.723000     27.246000    -14.292000
H         -11.752000     26.437000    -15.015000
C         -12.654000     28.284000    -14.371000
H         -13.470000     28.314000    -15.087000
C         -12.678000     29.289000    -13.415000
H         -13.367000     30.125000    -13.487000
C         -11.700000     29.338000    -12.377000
H         -11.789000     30.085000    -11.594000
C         -13.635000     26.710000     -7.454000
C         -13.033000     24.651000     -8.661000
C         -10.683000     22.724000     -5.295000
C          -9.325000     28.827000     -5.746000
C          -7.575000     23.581000     -6.536000
C         -13.246000     26.028000     -8.713000
C          -7.449000     26.889000     -4.986000
C         -12.775000     23.948000     -5.226000
C          -9.196000     24.751000    -10.036000
C          -8.261000     28.571000     -6.606000
C          -9.445000     27.109000    -10.281000
C          -8.030000     25.355000     -9.530000
C          -7.067000     26.887000     -7.446000
C          -7.252000     25.471000     -4.989000
C         -11.481000     25.573000    -10.096000
C          -8.818000     23.643000     -4.496000
C         -10.289000     28.216000     -9.732000
C          -9.760000     28.872000     -8.484000
C          -8.517000     23.007000     -5.673000
C         -11.331000     26.720000     -3.714000
C         -10.957000     24.459000     -3.716000
C         -12.260000     24.718000     -4.153000
C         -13.521000     24.525000     -6.244000
C         -10.807000     28.983000     -7.567000
C         -10.101000     25.785000    -10.339000
C         -13.231000     23.901000     -7.491000
C          -7.383000     27.531000     -6.273000
C         -11.935000     24.403000     -9.520000
C          -7.291000     24.773000     -8.463000
C         -11.554000     28.524000     -5.318000
C         -11.999000     23.004000     -5.843000
C          -8.140000     26.744000     -9.630000
C         -13.238000     26.780000     -5.215000
C          -6.767000     25.521000     -7.407000
C          -9.658000     23.580000     -9.484000
C          -8.981000     25.952000     -3.650000
C          -8.514000     27.177000     -4.165000
C          -8.939000     22.957000     -8.421000
C         -10.587000     29.069000     -6.224000
C          -8.492000     28.562000     -7.971000
C         -10.866000     27.939000     -4.271000
C         -11.684000     27.881000     -9.317000
C         -11.178000     22.593000     -8.034000
C          -7.731000     27.489000     -8.526000
C          -7.727000     23.528000     -7.966000
C         -12.790000     27.968000     -5.782000
C          -9.691000     22.439000     -6.183000
C         -13.754000     25.946000     -6.233000
C         -10.188000     23.448000     -4.265000
C         -11.044000     23.364000     -9.196000
C          -9.883000     22.331000     -7.540000
C         -12.303000     26.597000     -9.594000
C         -11.980000     28.412000     -8.078000
C         -10.370000     25.735000     -3.436000
C         -12.263000     22.874000     -7.217000
C          -6.926000     24.802000     -6.209000
C          -9.506000     28.178000     -4.536000
C          -8.215000     24.948000     -4.136000
C         -12.968000     27.900000     -7.182000
C         -12.477000     26.120000     -4.176000
O         -22.126000     28.565000      0.304000
C         -21.224000     27.577000      0.739000
H         -20.810000     26.899000     -0.017000
H         -21.771000     26.917000      1.424000
H         -20.428000     28.091000      1.292000
O         -23.574000     26.891000     -0.361000
C         -23.220000     28.056000     -0.342000
C         -24.204000     29.119000     -0.739000
H         -24.223000     29.957000     -0.031000
H         -25.197000     28.656000     -0.690000
C         -24.061000     29.679000     -2.204000
H         -24.581000     30.642000     -2.284000
H         -22.989000     29.905000     -2.269000
C         -24.535000     28.628000     -3.306000
H         -24.579000     27.607000     -2.908000
H         -25.567000     28.971000     -3.453000
C         -23.688000     28.773000     -4.533000
C         -24.118000     29.986000     -5.400000
C         -23.554000     31.262000     -5.271000
H         -22.795000     31.345000     -4.498000
C         -23.979000     32.355000     -6.103000
H         -23.468000     33.310000     -6.172000
C         -25.114000     32.185000     -6.866000
H         -25.582000     32.970000     -7.452000
C         -25.817000     30.950000     -6.871000
H         -26.667000     30.857000     -7.541000
C         -25.364000     29.903000     -6.100000
H         -25.891000     28.953000     -6.097000
C         -21.628000     25.685000     -8.694000
C         -20.003000     27.462000     -8.400000
C         -16.821000     24.758000     -6.513000
C         -22.574000     23.418000     -4.171000
C         -17.582000     25.779000     -3.181000
C         -21.334000     27.054000     -8.436000
C         -20.286000     23.319000     -2.636000
C         -18.328000     24.323000     -8.356000
C         -19.923000     28.752000     -4.549000
C         -22.404000     24.377000     -3.138000
C         -22.219000     28.383000     -4.484000
C         -20.189000     28.135000     -3.369000
C         -20.896000     25.688000     -2.149000
C         -18.914000     23.754000     -2.679000
C         -21.035000     28.581000     -6.718000
C         -17.294000     23.731000     -4.455000
C         -23.237000     27.489000     -5.165000
C         -23.367000     26.104000     -4.623000
C         -16.941000     25.064000     -4.224000
C         -20.322000     22.186000     -6.404000
C         -18.149000     22.765000     -6.497000
C         -18.661000     23.102000     -7.731000
C         -19.273000     25.138000     -8.919000
C         -23.448000     25.167000     -5.662000
C         -21.103000     28.831000     -5.355000
C         -18.960000     26.469000     -8.630000
C         -21.224000     24.360000     -2.448000
C         -19.836000     28.377000     -7.411000
C         -19.185000     27.241000     -2.813000
C         -22.565000     23.112000     -6.479000
C         -17.364000     25.161000     -7.704000
C         -21.527000     27.838000     -3.280000
C         -20.991000     23.601000     -8.333000
C         -19.528000     26.038000     -2.132000
C         -18.716000     28.529000     -5.224000
C         -19.229000     22.240000     -4.321000
C         -20.468000     22.418000     -3.697000
C         -17.690000     27.744000     -4.670000
C         -23.139000     23.785000     -5.386000
C         -22.755000     25.715000     -3.390000
C         -21.609000     22.288000     -5.819000
C         -23.016000     27.147000     -6.644000
C         -17.664000     27.459000     -6.874000
C         -21.828000     26.582000     -2.748000
C         -17.968000     27.065000     -3.443000
C         -22.213000     23.720000     -7.699000
C         -16.629000     25.689000     -5.486000
C         -20.633000     24.772000     -8.992000
C         -17.207000     23.563000     -5.867000
C         -18.608000     28.410000     -6.626000
C         -17.026000     27.051000     -5.698000
C         -21.969000     27.747000     -7.366000
C         -23.239000     25.806000     -6.871000
C         -19.132000     22.111000     -5.733000
C         -17.800000     26.526000     -7.886000
C         -18.539000     25.101000     -2.420000
C         -21.652000     22.432000     -4.477000
C         -18.321000     23.091000     -3.722000
C         -22.570000     25.033000     -7.872000
C         -20.043000     22.741000     -7.656000
$end

--------------------------------------------------------------

             Standard Nuclear Orientation (Angstroms)
    I     Atom           X                Y                Z
 ----------------------------------------------------------------
    1      O      -9.0119192518     6.5674412349    -1.4026337914
    2      C      -8.5993324150     7.3294881637    -2.6320737373
    3      H      -9.5119859676     7.8104266621    -3.0063833067
    4      H      -8.1493477316     6.6336426855    -3.3513420149
    5      H      -7.8321094327     8.0971708415    -2.4724642086
    6      O     -10.4674511840     5.2054257226    -2.5401769944
    7      C      -9.9370965704     5.5493369546    -1.4843687503
    8      C     -10.3066938439     4.9311470731    -0.1271553824
    9      H     -10.9657392385     4.0956703400    -0.3945404908
   10      H     -10.9597107834     5.6438641097     0.3912665523
   11      C      -9.0763082691     4.4625510978     0.7021805864
   12      H      -8.5837195388     5.3535761788     1.1115113180
   13      H      -9.4441031361     3.9137753589     1.5781264319
   14      C      -8.1076327005     3.6651994675    -0.2347692631
   15      H      -8.6440746913     2.9011806540    -0.8106331732
   16      H      -7.7109782184     4.3447582190    -0.9991717258
   17      C      -6.9241136331     2.9361692479     0.5215630422
   18      C      -6.3191887699     3.9096024243     1.4861167012
   19      C      -6.6481662080     3.8633788220     2.8252855568
   20      H      -7.2375163196     3.0677065539     3.2699630665
   21      C      -6.0873177116     4.8109194262     3.7235003237
   22      H      -6.2774818401     4.7514574928     4.7904365367
   23      C      -5.2529168504     5.8111439650     3.2197423709
   24      H      -4.7131062429     6.5204816247     3.8401104813
   25      C      -4.9411888714     5.8605111486     1.8688443184
   26      H      -4.3294158953     6.6567507290     1.4558826297
   27      C      -5.5317054703     4.9466618812     0.9455357769
   28      H      -5.2092597540     4.9516869391    -0.0912971454
   29      C      -2.0562493819     0.2628116553     0.0131785282
   30      C      -2.9748282302    -0.4861429109     2.1704949068
   31      C      -4.0707899125    -4.6861968882     0.8574071035
   32      C      -5.6237851970    -0.5028768018    -3.5451163435
   33      C      -7.4296424191    -4.0187724285     0.4026011788
   34      C      -2.8177558351     0.5522471814     1.2532837649
   35      C      -7.1139066109    -2.8209754321    -3.0364151420
   36      C      -2.0938951040    -3.3713318342     0.3650476758
   37      C      -7.0515025021    -0.4302132219     2.1986507393
   38      C      -6.9033765589    -0.3576092449    -3.0171245979
   39      C      -6.9424662437     1.4254085513     0.7063475096
   40      C      -8.0030614163    -0.6456454389     1.1844847802
   41      C      -8.2708446909    -1.2436549106    -1.4965832514
   42      C      -7.2728074841    -3.8463020453    -2.0500086087
   43      C      -4.9256778094     0.7426310784     2.1223970615
   44      C      -5.5951940023    -5.0562455642    -0.7238718562
   45      C      -5.9886538836     2.0246366675    -0.2787177910
   46      C      -6.0986540293     1.4978670253    -1.6851653414
   47      C      -6.2478513703    -4.7690838363     0.4474532490
   48      C      -3.0265875608    -2.8433538750    -2.9374647096
   49      C      -3.3357073792    -4.4949289555    -1.3790213544
   50      C      -2.2495338132    -3.6969387496    -1.0057953965
   51      C      -1.7289485974    -2.0963652518     0.7737569380
   52      C      -4.8138028577     1.2095543386    -2.1493336960
   53      C      -6.3140624486     0.7131729827     1.8397076311
   54      C      -2.3940788331    -1.7505940895     1.9847602711
   55      C      -7.6054507213    -1.5188676284    -2.6679200198
   56      C      -4.2864222127    -0.3444366234     2.6849164781
   57      C      -8.3454382268    -1.9556591023     0.7486220478
   58      C      -3.3705511852    -0.4522302159    -3.1403875313
   59      C      -3.0086374403    -3.7950062052     1.2911942547
   60      C      -7.9591961559     0.4082178588     0.2685868663
   61      C      -1.7091188814    -1.3097875956    -1.5937010602
   62      C      -8.5146480737    -2.2871121731    -0.5970089899
   63      C      -6.4124203166    -1.4996710281     2.7793597549
   64      C      -5.2136946928    -3.9977125554    -2.9165259890
   65      C      -5.8466240072    -2.9173850945    -3.5616864808
   66      C      -6.7363475123    -2.8303190290     2.3799776451
   67      C      -4.5893183751     0.3011328160    -3.1412117400
   68      C      -7.1261139213     0.6216377006    -2.0641657913
   69      C      -3.6710876598    -1.7381080100    -3.5502339976
   70      C      -4.5279850552     1.8559276918    -0.0170713594
   71      C      -4.4856893822    -2.7914172092     2.8579008922
   72      C      -8.0040268225     0.0704688706    -1.0823527446
   73      C      -7.7472565937    -3.0452092139     1.4135951962
   74      C      -2.3401485320    -0.2149348852    -2.1739045784
   75      C      -5.2907397684    -4.5241074016     1.4398865859
   76      C      -1.5334629456    -1.0655121935    -0.2125383181
   77      C      -4.2204917111    -5.0093641986    -0.4476803498
   78      C      -5.0037257242    -1.5020964661     3.0365944001
   79      C      -5.5458000398    -3.6282679894     2.4510210999
   80      C      -4.0062140257     1.3111027769     1.2236811562
   81      C      -3.8579005418     1.4528932094    -1.1542819604
   82      C      -3.8260742410    -3.9497575418    -2.6092544504
   83      C      -3.2006390936    -2.8849949456     2.3445160823
   84      C      -7.9623607660    -3.5588494301    -0.8317622193
   85      C      -5.0482079233    -1.7290256714    -3.8337887384
   86      C      -6.0754064560    -4.5494229580    -2.0310676507
   87      C      -2.6231623510     0.7342973566    -1.1663484612
   88      C      -2.0797997631    -2.6600291249    -1.9593313331
   89      O       8.4484394326    -1.6348737005    -4.6531876384
   90      C       7.7556050207    -2.8355464846    -4.4137333771
   91      H       7.1330423870    -2.8916313452    -3.5126860668
   92      H       8.5078656647    -3.6217701931    -4.2723466606
   93      H       7.1710886390    -3.0536208833    -5.3161773677
   94      O       9.6368219773    -1.9801064670    -2.7013253830
   95      C       9.2847002225    -1.2764503035    -3.6307231844
   96      C      10.0658957574    -0.0295933030    -3.9322445875
   97      H      10.2960373161     0.0719483637    -5.0002301458
   98      H      11.0304531695    -0.1370688227    -3.4214638015
   99      C       9.4455837599     1.3179521329    -3.4034645539
  100      H       9.8923404113     2.1655201508    -3.9384467493
  101      H       8.4058675785     1.2532122562    -3.7488397274
  102      C       9.5586916300     1.4592083290    -1.8188717681
  103      H       9.7495127868     0.4947145813    -1.3329498642
  104      H      10.4805907484     2.0509640328    -1.7539933997
  105      C       8.3576581153     2.1844740032    -1.2940182663
  106      C       8.4597327708     3.7176039960    -1.5109311292
  107      C       7.9422900727     4.3711583647    -2.6370007280
  108      H       7.4725720611     3.7151311565    -3.3646629378
  109      C       8.0533606562     5.7964262068    -2.7911853697
  110      H       7.5284614664     6.3761943315    -3.5436857100
  111      C       8.8837711400     6.4785292152    -1.9283714185
  112      H       9.1212580487     7.5345364798    -2.0125950808
  113      C       9.5719947898     5.8032888172    -0.8844089610
  114      H      10.1613148136     6.4048506996    -0.1982062130
  115      C       9.4137842898     4.4443372531    -0.7292345947
  116      H       9.9323748809     3.9168624536     0.0664237080
  117      C       5.1250290759     2.3740842071     3.2455216294
  118      C       3.6471453854     2.9989891718     1.4261416299
  119      C       1.3013339122    -0.9370505206     1.4737764133
  120      C       7.5282408345    -2.0329769741     2.1079281219
  121      C       3.0783992011    -2.3104775819    -1.2974188282
  122      C       4.9028735018     3.0708162972     2.0238947242
  123      C       5.8621066413    -3.7107434321     0.6901599593
  124      C       2.1397059393     0.3886228839     3.3167754282
  125      C       4.7910401747     1.2503957046    -2.0573374639
  126      C       7.6822609957    -2.1156722195     0.6989890578
  127      C       6.9915852270     1.5189335017    -1.3520070987
  128      C       5.4366872747     0.0877430175    -2.3316065861
  129      C       6.5491810985    -2.2561648810    -1.2160299392
  130      C       4.5414997050    -3.7203383009     0.1162581748
  131      C       5.1449972567     2.8823797428    -0.2736086496
  132      C       2.4349898210    -2.9286711136     0.9618255426
  133      C       7.7523489988     1.6166580142    -0.0439515177
  134      C       8.0784018383     0.3242529336     0.6285569607
  135      C       2.1490074861    -2.2530033027    -0.2283618852
  136      C       4.7002799259    -1.9211153694     3.9962451187
  137      C       2.6028311777    -1.9952732801     3.1832086171
  138      C       2.6813599080    -0.7968737601     3.8585906045
  139      C       2.8352936912     1.5675766010     3.2956848573
  140      C       7.8378018419     0.4042178906     2.0068777679
  141      C       5.6451219829     2.1447210595    -1.3369185410
  142      C       2.6059511017     2.2123022439     2.0771686194
  143      C       6.7894201138    -2.8883116866     0.0100388321
  144      C       3.7906561454     2.9165927153     0.0786066635
  145      C       4.6846034017    -1.1555553946    -2.2611303033
  146      C       6.7794336184    -0.6766697446     3.8458289971
  147      C       1.4217729615     0.2853170066     2.0796238065
  148      C       6.7372376589     0.1528949540    -1.8949168526
  149      C       4.6809468281     0.5327897402     4.3819949654
  150      C       5.2534677697    -2.3642443478    -1.7670823853
  151      C       3.4353331501     1.2572758454    -1.7048972177
  152      C       4.3388311104    -3.5706646560     2.3577104364
  153      C       5.7092202656    -3.5660083799     2.0780805337
  154      C       2.6596032499     0.0851307745    -1.7165614695
  155      C       7.6624531085    -0.8136960975     2.7602165623
  156      C       7.9059880129    -0.9340696250    -0.0295097620
  157      C       6.1049906326    -1.9305257106     3.8073078915
  158      C       7.0718088463     2.3319024320     1.1301594326
  159      C       1.9279266885     1.3809975939    -0.0658356910
  160      C       7.2192430051    -1.0014148867    -1.2733055289
  161      C       3.3330466934    -1.1493135656    -1.9743891243
  162      C       6.0396706436     0.4857225908     4.1349013058
  163      C       1.4331621830    -1.0404271643     0.0844281573
  164      C       4.1056486000     1.7007230172     3.8934769930
  165      C       1.8993984716    -2.1057867942     1.9940756593
  166      C       2.8821261450     2.1019880920    -0.7190715587
  167      C       1.7128623689     0.1419031117    -0.6781070382
  168      C       5.8357622562     2.9783117830     0.9517307969
  169      C       7.2362592474     1.6158649898     2.2962578190
  170      C       3.7929970835    -2.7233345103     3.3596539674
  171      C       1.7480110839     1.4589523918     1.3033547358
  172      C       4.2434790338    -3.0594883911    -1.1070880870
  173      C       6.5767986076    -2.7332396985     2.8292503838
  174      C       3.6564752638    -3.6151119220     1.1577600461
  175      C       6.2951247443     1.5978235430     3.3737694679
  176      C       4.0202922259    -0.7554978911     4.3600068842
 ----------------------------------------------------------------

    9   -5804.2535595666      8.60E-06 Convergence criterion met
 Total energy in the final basis set = -5804.2535595666

                    Orbital Energies (a.u.)
 --------------------------------------------------------------

 Alpha MOs
 -- Occupied --
-19.199 -19.192 -19.139 -19.134 -10.320 -10.317 -10.255 -10.242
-10.241 -10.240 -10.238 -10.238 -10.237 -10.233 -10.228 -10.226
-10.226 -10.225 -10.224 -10.223 -10.221 -10.221 -10.221 -10.221
-10.221 -10.220 -10.219 -10.218 -10.218 -10.217 -10.217 -10.217
-10.217 -10.217 -10.217 -10.216 -10.216 -10.216 -10.216 -10.216
-10.216 -10.216 -10.216 -10.216 -10.215 -10.215 -10.215 -10.215
-10.215 -10.215 -10.215 -10.215 -10.215 -10.214 -10.214 -10.214
-10.214 -10.214 -10.214 -10.214 -10.214 -10.214 -10.214 -10.214
-10.213 -10.213 -10.213 -10.213 -10.213 -10.213 -10.213 -10.213
-10.213 -10.213 -10.213 -10.213 -10.213 -10.212 -10.212 -10.212
-10.212 -10.212 -10.212 -10.212 -10.212 -10.211 -10.211 -10.211
-10.211 -10.211 -10.211 -10.211 -10.211 -10.211 -10.211 -10.211
-10.211 -10.210 -10.210 -10.210 -10.210 -10.210 -10.210 -10.210
-10.210 -10.210 -10.209 -10.209 -10.209 -10.209 -10.209 -10.209
-10.209 -10.208 -10.208 -10.208 -10.208 -10.208 -10.207 -10.207
-10.207 -10.207 -10.207 -10.207 -10.206 -10.206 -10.206 -10.206
-10.205 -10.205 -10.205 -10.205 -10.205 -10.204 -10.203 -10.203
-10.203 -10.203 -10.203 -10.203 -10.202 -10.201 -10.200 -10.200
-10.199 -10.198 -10.198 -10.197  -1.103  -1.078  -1.019  -0.998
 -0.982  -0.981  -0.966  -0.965  -0.962  -0.960  -0.960  -0.957
 -0.935  -0.932  -0.927  -0.925  -0.924  -0.923  -0.922  -0.921
 -0.919  -0.917  -0.898  -0.897  -0.892  -0.888  -0.886  -0.885
 -0.876  -0.875  -0.855  -0.854  -0.839  -0.839  -0.836  -0.835
 -0.834  -0.830  -0.820  -0.817  -0.804  -0.800  -0.797  -0.796
 -0.795  -0.793  -0.793  -0.791  -0.790  -0.788  -0.784  -0.780
 -0.770  -0.769  -0.766  -0.764  -0.764  -0.763  -0.762  -0.762
 -0.750  -0.749  -0.742  -0.738  -0.731  -0.730  -0.715  -0.715
 -0.714  -0.712  -0.712  -0.711  -0.711  -0.708  -0.707  -0.707
 -0.706  -0.705  -0.705  -0.702  -0.699  -0.699  -0.671  -0.669
 -0.658  -0.656  -0.654  -0.654  -0.646  -0.643  -0.631  -0.629
 -0.628  -0.627  -0.626  -0.625  -0.622  -0.621  -0.619  -0.615
 -0.614  -0.613  -0.612  -0.611  -0.610  -0.607  -0.606  -0.606
 -0.604  -0.604  -0.602  -0.598  -0.568  -0.567  -0.563  -0.561
 -0.560  -0.560  -0.558  -0.557  -0.556  -0.556  -0.553  -0.550
 -0.537  -0.533  -0.531  -0.531  -0.526  -0.525  -0.524  -0.523
 -0.523  -0.522  -0.519  -0.519  -0.517  -0.514  -0.513  -0.511
 -0.506  -0.504  -0.502  -0.491  -0.490  -0.489  -0.487  -0.484
 -0.482  -0.480  -0.480  -0.478  -0.477  -0.476  -0.475  -0.474
 -0.473  -0.471  -0.469  -0.467  -0.466  -0.466  -0.465  -0.465
 -0.463  -0.462  -0.462  -0.461  -0.461  -0.460  -0.458  -0.457
 -0.455  -0.454  -0.453  -0.453  -0.449  -0.448  -0.444  -0.443
 -0.442  -0.441  -0.439  -0.437  -0.435  -0.435  -0.435  -0.431
 -0.429  -0.428  -0.427  -0.426  -0.426  -0.425  -0.424  -0.424
 -0.422  -0.422  -0.420  -0.419  -0.418  -0.417  -0.416  -0.415
 -0.415  -0.414  -0.414  -0.413  -0.412  -0.412  -0.411  -0.411
 -0.409  -0.409  -0.407  -0.404  -0.402  -0.399  -0.396  -0.395
 -0.393  -0.392  -0.391  -0.389  -0.387  -0.385  -0.385  -0.384
 -0.383  -0.380  -0.374  -0.371  -0.369  -0.368  -0.367  -0.365
 -0.364  -0.363  -0.362  -0.361  -0.360  -0.359  -0.359  -0.358
 -0.357  -0.357  -0.355  -0.355  -0.353  -0.352  -0.351  -0.349
 -0.349  -0.349  -0.347  -0.347  -0.346  -0.345  -0.343  -0.342
 -0.342  -0.342  -0.340  -0.339  -0.336  -0.336  -0.335  -0.333
 -0.331  -0.329  -0.328  -0.327  -0.326  -0.326  -0.324  -0.322
 -0.311  -0.306  -0.300  -0.300  -0.288  -0.283  -0.271  -0.269
 -0.269  -0.267  -0.267  -0.266  -0.265  -0.264  -0.263  -0.262
 -0.260  -0.258  -0.258  -0.257  -0.256  -0.255  -0.254  -0.252
 -0.250  -0.249  -0.242  -0.239  -0.221  -0.219  -0.210  -0.209
 -0.207  -0.207  -0.204  -0.202  -0.196  -0.195

          Ground-State Mulliken Net Atomic Charges

     Atom                 Charge (a.u.)
  ----------------------------------------
      1 O                    -0.484822
      2 C                    -0.085821
      3 H                     0.139063
      4 H                     0.135145
      5 H                     0.129515
      6 O                    -0.472115
      7 C                     0.585434
      8 C                    -0.258454
      9 H                     0.138073
     10 H                     0.129702
     11 C                    -0.184229
     12 H                     0.134918
     13 H                     0.106722
     14 C                    -0.183569
     15 H                     0.113282
     16 H                     0.124441
     17 C                    -0.003868
     18 C                     0.085187
     19 C                    -0.107123
     20 H                     0.094799
     21 C                    -0.096086
     22 H                     0.093803
     23 C                    -0.075063
     24 H                     0.089994
     25 C                    -0.092391
     26 H                     0.088860
     27 C                    -0.097105
     28 H                     0.095463
     29 C                    -0.029250
     30 C                     0.019832
     31 C                     0.014039
     32 C                     0.017704
     33 C                    -0.010325
     34 C                    -0.017585
     35 C                    -0.009871
     36 C                     0.005342
     37 C                     0.005325
     38 C                    -0.006761
     39 C                    -0.083197
     40 C                     0.018221
     41 C                     0.007222
     42 C                    -0.023950
     43 C                     0.014176
     44 C                    -0.014755
     45 C                    -0.090001
     46 C                     0.028978
     47 C                     0.009907
     48 C                     0.000605
     49 C                     0.002109
     50 C                    -0.011720
     51 C                     0.006597
     52 C                     0.009253
     53 C                     0.036469
     54 C                    -0.011238
     55 C                     0.010000
     56 C                    -0.004412
     57 C                     0.002621
     58 C                    -0.016332
     59 C                    -0.005793
     60 C                    -0.003529
     61 C                     0.004815
     62 C                    -0.018769
     63 C                    -0.011863
     64 C                     0.021899
     65 C                    -0.016499
     66 C                     0.002822
     67 C                    -0.011183
     68 C                    -0.011340
     69 C                     0.011161
     70 C                     0.027000
     71 C                     0.004391
     72 C                     0.016135
     73 C                    -0.028209
     74 C                    -0.008444
     75 C                     0.009643
     76 C                    -0.010442
     77 C                     0.002045
     78 C                    -0.010222
     79 C                    -0.003115
     80 C                    -0.021915
     81 C                     0.036470
     82 C                    -0.012787
     83 C                    -0.007872
     84 C                     0.018338
     85 C                    -0.013174
     86 C                     0.006414
     87 C                     0.007092
     88 C                     0.007198
     89 O                    -0.453470
     90 C                    -0.100153
     91 H                     0.131073
     92 H                     0.123028
     93 H                     0.114446
     94 O                    -0.479630
     95 C                     0.631561
     96 C                    -0.259897
     97 H                     0.119166
     98 H                     0.129812
     99 C                    -0.206804
    100 H                     0.113564
    101 H                     0.112960
    102 C                    -0.207170
    103 H                     0.136955
    104 H                     0.121105
    105 C                     0.028399
    106 C                     0.093901
    107 C                    -0.125191
    108 H                     0.093213
    109 C                    -0.088394
    110 H                     0.097176
    111 C                    -0.080412
    112 H                     0.089395
    113 C                    -0.086582
    114 H                     0.092498
    115 C                    -0.103804
    116 H                     0.090263
    117 C                    -0.005751
    118 C                     0.013807
    119 C                     0.028982
    120 C                     0.008711
    121 C                    -0.009256
    122 C                    -0.016284
    123 C                    -0.022745
    124 C                     0.007299
    125 C                     0.000487
    126 C                    -0.005936
    127 C                    -0.090699
    128 C                     0.010130
    129 C                    -0.019730
    130 C                    -0.011493
    131 C                     0.028966
    132 C                     0.011690
    133 C                    -0.106533
    134 C                     0.021511
    135 C                    -0.017278
    136 C                     0.048457
    137 C                     0.021663
    138 C                    -0.019253
    139 C                     0.017073
    140 C                    -0.007085
    141 C                     0.039247
    142 C                    -0.003898
    143 C                     0.022339
    144 C                    -0.023734
    145 C                     0.001252
    146 C                    -0.024917
    147 C                    -0.020553
    148 C                     0.026559
    149 C                    -0.006638
    150 C                    -0.041102
    151 C                     0.004365
    152 C                    -0.021432
    153 C                     0.005420
    154 C                    -0.017297
    155 C                    -0.003759
    156 C                    -0.009334
    157 C                    -0.008970
    158 C                     0.023748
    159 C                     0.032092
    160 C                     0.040874
    161 C                     0.019505
    162 C                     0.028384
    163 C                    -0.002611
    164 C                    -0.006759
    165 C                    -0.021445
    166 C                    -0.021364
    167 C                    -0.011422
    168 C                    -0.015828
    169 C                     0.026448
    170 C                    -0.016576
    171 C                    -0.004392
    172 C                     0.008676
    173 C                     0.008435
    174 C                     0.027763
    175 C                    -0.013075
    176 C                    -0.036763
  ----------------------------------------
  Sum of atomic charges =     0.000000

                    Cartesian Multipole Moments
 -----------------------------------------------------------------
    Charge (ESU x 10^10)
                 0.0000
    Dipole Moment (Debye)
         X       1.2572      Y       6.3786      Z      -0.3841
       Tot       6.5127
    Quadrupole Moments (Debye-Ang)
        XX    -806.1547     XY       4.8904     YY    -771.5572
        XZ     -36.8833     YZ      -1.1284     ZZ    -801.7321

 Total job time:  836.47s(wall), 7057.92s(cpu)
        *  Thank you very much for using Q-Chem.  Have a nice day.  *
