 Q-Chem 4.4, Q-Chem, Inc., Pleasanton, CA (2016)
 Q-Chem 4.4.2 for Intel X86 Linux

User input:
--------------------------------------------------------------
$comment
SP
$end

$rem
MEM_STATIC 5000
MEM_TOTAL 20000
JOBTYPE SP
EXCHANGE B3LYP
BASIS 6-31g(d,p)
$end

$molecule
0 1
O         -23.829000      4.989000     -1.581000
C         -24.545000      5.906000     -2.415000
H         -24.308000      6.930000     -2.102000
H         -25.628000      5.811000     -2.266000
H         -24.228000      5.719000     -3.448000
O         -24.387000      3.037000     -2.683000
C         -23.870000      3.671000     -1.776000
C         -23.106000      3.013000     -0.726000
H         -23.542000      3.388000      0.209000
H         -22.070000      3.351000     -0.851000
C         -23.232000      1.516000     -0.607000
H         -24.261000      1.211000     -0.380000
H         -22.884000      0.999000     -1.510000
C         -22.409000      1.047000      0.683000
H         -21.369000      1.337000      0.492000
H         -22.745000      1.679000      1.514000
C         -22.557000     -0.494000      1.022000
C         -23.819000     -0.809000      1.847000
C         -25.036000     -1.251000      1.309000
H         -25.143000     -1.369000      0.235000
C         -26.115000     -1.597000      2.135000
H         -27.004000     -1.964000      1.630000
C         -26.020000     -1.491000      3.525000
H         -26.831000     -1.901000      4.119000
C         -24.869000     -0.989000      4.093000
H         -24.747000     -0.804000      5.156000
C         -23.755000     -0.621000      3.270000
H         -22.812000     -0.263000      3.673000
C         -20.270000     -4.979000      3.035000
C         -21.723000     -5.811000      1.263000
C         -18.482000     -6.999000     -1.544000
C         -17.096000     -1.412000      1.170000
C         -18.759000     -4.150000     -3.465000
C         -21.477000     -4.886000      2.348000
C         -16.549000     -2.083000     -1.477000
C         -18.596000     -7.260000      0.837000
C         -22.108000     -3.051000     -1.630000
C         -17.778000     -0.772000      0.143000
C         -21.970000     -1.401000      0.018000
C         -21.264000     -2.082000     -2.136000
C         -18.694000     -0.964000     -1.927000
C         -16.828000     -3.062000     -2.456000
C         -22.598000     -3.784000      0.677000
C         -17.052000     -5.439000     -2.373000
C         -21.337000     -1.271000      1.403000
C         -19.899000     -0.845000      1.431000
C         -18.262000     -5.400000     -3.041000
C         -16.161000     -4.780000      1.486000
C         -16.576000     -6.319000     -0.145000
C         -17.317000     -6.736000      0.941000
C         -19.667000     -6.946000      1.789000
C         -19.159000     -1.590000      2.410000
C         -22.541000     -2.731000     -0.327000
C         -20.853000     -6.826000      1.005000
C         -17.472000     -1.047000     -1.215000
C         -22.414000     -5.092000      0.243000
C         -20.230000     -2.508000     -2.971000
C         -17.282000     -3.121000      2.721000
C         -19.225000     -7.425000     -0.424000
C         -21.063000     -1.121000     -1.156000
C         -18.037000     -5.430000      2.794000
C         -18.949000     -1.941000     -2.912000
C         -22.023000     -4.401000     -2.021000
C         -15.812000     -4.091000     -0.807000
C         -15.904000     -2.719000     -0.400000
C         -21.039000     -4.789000     -2.964000
C         -17.771000     -1.850000      2.290000
C         -19.193000     -0.484000      0.237000
C         -16.309000     -3.417000      1.855000
C         -21.311000     -2.459000      2.308000
C         -21.231000     -6.476000     -1.369000
C         -19.745000     -0.632000     -1.044000
C         -20.122000     -3.827000     -3.405000
C         -18.184000     -4.098000      3.268000
C         -19.184000     -6.359000     -2.583000
C         -19.368000     -6.027000      2.774000
C         -17.182000     -6.476000     -1.388000
C         -22.112000     -5.399000     -1.052000
C         -20.550000     -6.108000     -2.596000
C         -21.964000     -3.652000      1.959000
C         -20.027000     -2.551000      2.946000
C         -15.889000     -5.132000      0.189000
C         -20.573000     -7.176000     -0.322000
C         -18.070000     -2.955000     -3.176000
C         -16.145000     -2.363000      0.929000
C         -16.357000     -4.256000     -2.069000
C         -19.546000     -3.851000      3.321000
C         -17.057000     -5.772000      1.922000
O         -19.568000    -21.475000      6.158000
C         -20.074000    -22.814000      6.379000
H         -20.851000    -23.137000      5.676000
H         -20.684000    -22.895000      7.287000
H         -19.329000    -23.618000      6.431000
O         -21.736000    -20.720000      6.516000
C         -20.563000    -20.499000      6.334000
C         -20.009000    -19.117000      6.302000
H         -19.460000    -19.059000      5.354000
H         -19.267000    -19.094000      7.109000
C         -20.975000    -17.987000      6.410000
H         -21.678000    -18.013000      5.568000
H         -21.681000    -18.242000      7.211000
C         -20.284000    -16.583000      6.436000
H         -19.718000    -16.417000      7.361000
H         -19.542000    -16.624000      5.629000
C         -21.355000    -15.389000      6.281000
C         -21.883000    -15.065000      7.599000
C         -21.045000    -14.468000      8.562000
H         -20.079000    -14.145000      8.187000
C         -21.453000    -14.497000      9.917000
H         -20.672000    -14.103000     10.561000
C         -22.634000    -15.068000     10.297000
H         -22.825000    -15.025000     11.365000
C         -23.555000    -15.539000      9.354000
H         -24.490000    -16.002000      9.654000
C         -23.081000    -15.625000      8.045000
H         -23.665000    -16.201000      7.333000
C         -25.733000    -13.862000      3.388000
C         -24.907000    -11.699000      4.194000
C         -23.236000    -10.330000      0.209000
C         -22.134000    -16.462000      0.838000
C         -19.983000    -11.226000      0.807000
C         -25.142000    -13.105000      4.383000
C         -20.390000    -14.649000     -0.406000
C         -25.319000    -11.406000      0.783000
C         -20.831000    -11.972000      4.718000
C         -20.917000    -16.115000      1.445000
C         -21.138000    -14.255000      5.226000
C         -19.900000    -12.733000      3.992000
C         -19.478000    -14.451000      1.919000
C         -20.120000    -13.294000     -0.560000
C         -23.062000    -12.708000      5.313000
C         -21.706000    -11.425000     -0.876000
C         -22.132000    -15.342000      4.965000
C         -21.942000    -16.217000      3.736000
C         -21.075000    -10.725000      0.127000
C         -24.333000    -14.343000     -0.818000
C         -23.969000    -12.171000     -1.169000
C         -25.070000    -12.263000     -0.325000
C         -25.848000    -11.821000      2.016000
C         -23.171000    -16.414000      3.040000
C         -21.648000    -12.909000      5.340000
C         -25.303000    -11.030000      3.010000
C         -20.089000    -15.160000      0.918000
C         -23.600000    -11.500000      4.767000
C         -19.394000    -12.217000      2.758000
C         -24.349000    -15.977000      0.987000
C         -24.368000    -10.506000      1.047000
C         -20.069000    -14.088000      4.198000
C         -25.860000    -14.110000      1.162000
C         -19.241000    -13.078000      1.698000
C         -21.348000    -10.725000      4.141000
C         -22.089000    -13.773000     -1.575000
C         -21.645000    -14.958000     -1.016000
C         -20.850000    -10.341000      2.897000
C         -23.295000    -16.538000      1.652000
C         -20.842000    -16.038000      2.877000
C         -23.877000    -15.519000     -0.244000
C         -23.617000    -14.990000      4.765000
C         -23.091000     -9.951000      3.011000
C         -19.962000    -14.945000      3.130000
C         -19.894000    -11.025000      2.194000
C         -25.391000    -15.318000      1.707000
C         -22.045000     -9.994000      0.794000
C         -26.124000    -13.187000      2.209000
C         -23.050000    -11.171000     -0.846000
C         -22.707000    -10.511000      4.153000
C         -21.972000     -9.786000      2.211000
C         -24.035000    -13.688000      5.018000
C         -24.147000    -15.667000      3.714000
C         -23.472000    -13.435000     -1.565000
C         -24.323000    -10.215000      2.400000
C         -19.494000    -12.485000      0.480000
C         -22.524000    -15.884000     -0.381000
C         -21.202000    -12.727000     -1.205000
C         -25.275000    -15.122000      3.064000
C         -25.281000    -13.614000     -0.051000
$end

--------------------------------------------------------------

             Standard Nuclear Orientation (Angstroms)
    I     Atom           X                Y                Z
 ----------------------------------------------------------------
    1      O     -13.5483312472    -3.7573317621    -0.5729211469
    2      C     -14.6064249602    -4.2971991660    -1.3717214227
    3      H     -15.5097022799    -4.3803095767    -0.7553637803
    4      H     -14.3818401817    -5.3261233085    -1.6799287981
    5      H     -14.7576594640    -3.6118338277    -2.2143064201
    6      O     -11.9657529713    -3.5208292719    -2.2389297222
    7      C     -12.3468157027    -3.4800357185    -1.0791792832
    8      C     -11.4760721242    -3.0197254069    -0.0072277742
    9      H     -11.5226863281    -3.8156091494     0.7473198946
   10      H     -11.9211296962    -2.0878952033     0.3626116898
   11      C     -10.0049178935    -2.8960940096    -0.3096620763
   12      H      -9.5619684722    -3.8631371614    -0.5780244297
   13      H      -9.8063333589    -2.1655476535    -1.1038082872
   14      C      -9.2487381785    -2.5004494770     1.0442388220
   15      H      -9.6677650954    -1.5330010220     1.3453051433
   16      H      -9.5789605267    -3.2165118675     1.8065306649
   17      C      -7.6693393696    -2.4652489329     0.9186747987
   18      C      -7.0220839674    -3.8523361870     1.0905567164
   19      C      -6.6572506645    -4.7004891095     0.0353646575
   20      H      -6.8508213606    -4.4033401914    -0.9908331334
   21      C      -5.9954565538    -5.9139886151     0.2713318270
   22      H      -5.7197631866    -6.4863453726    -0.6098241805
   23      C      -5.6968066517    -6.3297521179     1.5714510314
   24      H      -5.0644549659    -7.2043955749     1.6888698059
   25      C      -6.1044778512    -5.5639136619     2.6423033333
   26      H      -5.9791955091    -5.8560239117     3.6805970956
   27      C      -6.7892674107    -4.3234284953     2.4278066886
   28      H      -7.0908032280    -3.6643193037     3.2368018829
   29      C      -2.9985705320    -0.2227739264     2.5164818307
   30      C      -2.6043950547    -0.7856626766     0.1774224155
   31      C      -2.5665263526     3.3903399576    -1.3569315074
   32      C      -7.2075890899     2.6724743285     2.9380151288
   33      C      -5.8200109130     3.2692863869    -2.4900489985
   34      C      -3.1877922886    -1.1102831810     1.4610248445
   35      C      -7.3902754322     4.2209325381     0.6304272380
   36      C      -1.6103428112     2.5069280637     0.6569141820
   37      C      -6.0490809265    -0.6513796817    -1.8844653900
   38      C      -8.0612923359     2.2828781893     1.9138771420
   39      C      -7.1488851531    -1.4068850896     0.0331086612
   40      C      -7.1907792291     0.1181558984    -1.7764238396
   41      C      -8.4088595118     2.1968863700    -0.3294735808
   42      C      -6.7216150279     4.4885180374    -0.5844860364
   43      C      -4.6336674523    -1.7659792894    -0.1951133214
   44      C      -4.4147205143     4.6996681336    -1.1683073618
   45      C      -6.9194771880    -1.3311527184     1.5422311193
   46      C      -7.4370512984    -0.0996925069     2.2246729026
   47      C      -4.5466914967     3.8129257410    -2.2209785303
   48      C      -3.9853179067     4.0532586418     2.7709579466
   49      C      -2.9631188476     4.5275586376     0.7882689650
   50      C      -2.1856945594     3.5475189080     1.3692161267
   51      C      -1.5408592758     1.1332027611     1.1668081234
   52      C      -6.5022616186     0.3795646918     3.2032161015
   53      C      -5.9356690899    -1.5621082814    -0.8142274851
   54      C      -1.7859887522     0.2936394243     0.0395561802
   55      C      -8.2230843512     3.0876107200     0.7564429547
   56      C      -3.5305342301    -1.2007761339    -0.8249692472
   57      C      -7.1162012554     1.4382253094    -2.2233151864
   58      C      -5.1096661865     2.2829836726     3.8368446568
   59      C      -1.7703949623     2.3983324110    -0.7486381269
   60      C      -7.8354908949    -0.2180597863    -0.5950568850
   61      C      -2.8261329539     1.9970288123     3.0554735585
   62      C      -7.7458668512     2.4882310922    -1.5399850367
   63      C      -4.8850739789    -0.1841974081    -2.5243361185
   64      C      -5.3429487678     5.0417075053     1.0290686592
   65      C      -6.5226330383     4.5584068603     1.6857744597
   66      C      -4.8741773570     1.1203510449    -3.0775843424
   67      C      -6.4057062981     1.7451886795     3.5696750954
   68      C      -8.1898835997     0.8962357222     1.5205681599
   69      C      -5.1628963254     3.5334075520     3.3700388361
   70      C      -5.5248571293    -1.3990415073     2.0727695291
   71      C      -2.7838059075     0.7059279913    -2.1365961725
   72      C      -8.3784192341     0.8621434486     0.1310139035
   73      C      -5.9962462771     1.9356704722    -2.8851536535
   74      C      -3.9434853265     1.4474125279     3.7410059174
   75      C      -3.4220780688     2.9865410483    -2.3994777663
   76      C      -2.1522862890     0.8931581716     2.3803659517
   77      C      -3.1274330633     4.4323359212    -0.5904505397
   78      C      -3.6430443820    -0.4156156547    -1.9355287852
   79      C      -3.5508930505     1.6890467102    -2.8780601970
   80      C      -4.4364464994    -1.6539007889     1.2231413474
   81      C      -5.3573829893    -0.4239478715     3.1145510868
   82      C      -4.0530516484     4.8199928269     1.6362210477
   83      C      -1.8650909704     1.0777760168    -1.1183305342
   84      C      -6.9309235207     3.5776995058    -1.6794803549
   85      C      -6.4519150073     3.8082789951     2.8619399013
   86      C      -5.5103073847     5.0106299860    -0.3449470907
   87      C      -4.0494740339     0.1314017286     3.3217876329
   88      C      -2.8378962275     3.2645961130     2.5749709426
   89      O      13.5692649547     2.4303077953     1.6043778540
   90      C      14.9515720460     2.1397477347     1.2840655745
   91      H      15.1179568243     1.7308574081     0.2803764761
   92      H      15.3458640993     1.2789152913     1.8378040337
   93      H      15.6703474708     2.9568860893     1.4247489008
   94      O      13.1361738840     0.1725385221     1.2677429870
   95      C      12.7743970192     1.2719857236     1.6115850311
   96      C      11.4025422752     1.5328830197     2.1290897771
   97      H      11.0235207639     2.3558923249     1.5106503075
   98      H      11.5552919527     1.9297316221     3.1397928605
   99      C      10.4386462934     0.3959582098     2.1239407103
  100      H      10.2752359558     0.0476673167     1.0964001926
  101      H      10.9752998349    -0.4832438128     2.5035046442
  102      C       9.0514055111     0.7584303974     2.7512762864
  103      H       9.1172528922     0.9257532840     3.8334981555
  104      H       8.7918978755     1.7283037006     2.3091274847
  105      C       7.9582130986    -0.3955422305     2.4867398549
  106      C       8.0801448814    -1.3995111610     3.5346248805
  107      C       7.7239389870    -1.0763422860     4.8592762456
  108      H       7.2257139671    -0.1191084090     4.9758315296
  109      C       8.1828974997    -1.9167261535     5.9016015494
  110      H       7.9312599785    -1.4969683259     6.8713514780
  111      C       8.9367346071    -3.0267072762     5.6468987369
  112      H       9.2248566671    -3.5814765796     6.5346885198
  113      C       9.1857315670    -3.4567103035     4.3383006663
  114      H       9.7927151590    -4.3331388193     4.1332690207
  115      C       8.8442755644    -2.5501145180     3.3347844084
  116      H       9.2328652808    -2.7311196972     2.3367808225
  117      C       6.0212188604    -3.6983757652    -1.4129275620
  118      C       4.1285235881    -3.6253501978     0.1436240346
  119      C       1.5168044393    -0.9617784958    -2.4314363289
  120      C       7.4493382951     0.9819980033    -2.9195387486
  121      C       2.2738869662     1.9869173977    -0.8583986385
  122      C       5.5426332724    -3.6432549429    -0.1166742959
  123      C       5.2122959041     2.6766015767    -2.9185043753
  124      C       2.8837924798    -2.8731490393    -2.9829318797
  125      C       4.2018506355    -0.0116836334     2.1181918621
  126      C       7.1952133119     1.8239832622    -1.8257250913
  127      C       6.5507555857    -0.0421432157     1.9034367726
  128      C       4.6360404754     1.2386986717     1.6481054084
  129      C       5.6292464562     2.6691560522    -0.4481461419
  130      C       3.8540981818     2.7240594806    -2.6257797699
  131      C       5.2635360229    -2.1300853391     1.6099789627
  132      C       2.1138292143     1.0263298726    -3.0702919729
  133      C       7.5924830934    -0.6607462007     1.0260200264
  134      C       8.0496384684     0.1051030092    -0.2055034004
  135      C       1.6885363697     1.1261077195    -1.7651711442
  136      C       5.1292727090    -0.8599981042    -4.7340480531
  137      C       2.9273563364    -0.8109283416    -4.3841374265
  138      C       3.3543548081    -2.0985317497    -4.0795873177
  139      C       3.6847109392    -3.7098969169    -2.1887419712
  140      C       8.1358111354    -0.7451018463    -1.3471653359
  141      C       5.3448280415    -0.8027370435     2.1315766140
  142      C       3.1772911229    -3.7030650013    -0.9029657640
  143      C       6.0620274670     2.5887448314    -1.7459279542
  144      C       3.9978712453    -2.6611076097     1.2063305777
  145      C       3.7405566086     2.0357223160     0.8684196032
  146      C       7.2160426203    -1.1956656928    -3.5253480874
  147      C       2.0246336920    -2.2600223443    -2.1643850983
  148      C       6.0010515252     1.2659540932     1.4406831920
  149      C       5.6153736011    -2.9947882048    -3.5040906763
  150      C       4.2370169013     2.7062102092    -0.2235067509
  151      C       2.8881999593    -0.5199519164     1.7044138378
  152      C       4.1771035129     1.3577894885    -4.4049933222
  153      C       5.4325227405     1.7936220101    -4.0205267097
  154      C       2.1161690622     0.2979537491     0.8810095529
  155      C       7.8573120865    -0.3532999802    -2.6610243761
  156      C       7.5354667155     1.3806854729    -0.5028899953
  157      C       6.3795163014    -0.4200430625    -4.3294265993
  158      C       7.3225842667    -2.0215065807     0.3592255965
  159      C       1.9652605726    -1.8736136141     0.2111597078
  160      C       6.4951972844     1.8962125385     0.3248354153
  161      C       2.4816801319     1.5488679584     0.4595640654
  162      C       6.8865060912    -2.5268084203    -3.1279695337
  163      C       1.2688764326    -0.1339692469    -1.3698970923
  164      C       5.0653204886    -3.7743603263    -2.4516920442
  165      C       1.9929274512    -0.2664624446    -3.5013636473
  166      C       2.8013691670    -1.8127662317     1.2419070165
  167      C       1.4801343951    -0.5984585519    -0.0297098819
  168      C       6.1916347788    -2.7376444418     0.7361033217
  169      C       7.7034660680    -2.0161248563    -0.9441278055
  170      C       3.9735923865     0.0203663604    -4.8487450523
  171      C       2.1404158641    -2.7435549728    -0.8720594096
  172      C       3.3362591508     2.7859406010    -1.2634397004
  173      C       6.5740116869     0.9390276617    -4.0168545093
  174      C       3.2153158956     1.8478930552    -3.4816580239
  175      C       7.0880112527    -2.9286874136    -1.8275042536
  176      C       4.7389999085    -2.1342483802    -4.2416992182
 ----------------------------------------------------------------

    9   -5804.2501516469      8.10E-06 Convergence criterion met
 Total energy in the final basis set = -5804.2501516469

                    Orbital Energies (a.u.)
 --------------------------------------------------------------

 Alpha MOs
 -- Occupied --
-19.198 -19.197 -19.146 -19.131 -10.321 -10.311 -10.252 -10.244
-10.243 -10.241 -10.241 -10.239 -10.237 -10.235 -10.234 -10.229
-10.226 -10.225 -10.224 -10.223 -10.223 -10.223 -10.221 -10.221
-10.220 -10.219 -10.219 -10.219 -10.219 -10.219 -10.218 -10.218
-10.218 -10.217 -10.217 -10.217 -10.217 -10.217 -10.217 -10.216
-10.216 -10.216 -10.216 -10.215 -10.215 -10.215 -10.215 -10.215
-10.215 -10.214 -10.214 -10.214 -10.214 -10.214 -10.214 -10.214
-10.213 -10.213 -10.213 -10.213 -10.213 -10.213 -10.213 -10.213
-10.213 -10.212 -10.212 -10.212 -10.212 -10.212 -10.212 -10.212
-10.212 -10.212 -10.211 -10.211 -10.211 -10.211 -10.211 -10.211
-10.210 -10.210 -10.210 -10.210 -10.210 -10.210 -10.210 -10.210
-10.210 -10.210 -10.209 -10.209 -10.209 -10.209 -10.209 -10.209
-10.209 -10.209 -10.208 -10.208 -10.208 -10.208 -10.208 -10.208
-10.208 -10.208 -10.207 -10.207 -10.207 -10.207 -10.207 -10.206
-10.206 -10.206 -10.206 -10.206 -10.206 -10.206 -10.205 -10.205
-10.205 -10.205 -10.205 -10.204 -10.204 -10.204 -10.204 -10.204
-10.204 -10.204 -10.203 -10.202 -10.202 -10.202 -10.201 -10.201
-10.201 -10.200 -10.200 -10.198 -10.198 -10.198 -10.197 -10.197
-10.196 -10.194 -10.194 -10.192  -1.104  -1.092  -1.019  -1.014
 -0.984  -0.979  -0.967  -0.963  -0.963  -0.961  -0.959  -0.958
 -0.935  -0.933  -0.929  -0.927  -0.923  -0.922  -0.922  -0.919
 -0.917  -0.917  -0.897  -0.892  -0.891  -0.888  -0.885  -0.881
 -0.876  -0.868  -0.856  -0.851  -0.839  -0.838  -0.837  -0.836
 -0.836  -0.834  -0.822  -0.818  -0.811  -0.809  -0.796  -0.796
 -0.795  -0.793  -0.792  -0.791  -0.789  -0.788  -0.786  -0.781
 -0.771  -0.768  -0.767  -0.766  -0.766  -0.763  -0.763  -0.761
 -0.751  -0.751  -0.746  -0.741  -0.734  -0.733  -0.715  -0.713
 -0.713  -0.712  -0.711  -0.709  -0.709  -0.708  -0.707  -0.707
 -0.705  -0.704  -0.702  -0.701  -0.700  -0.699  -0.670  -0.670
 -0.658  -0.656  -0.656  -0.654  -0.648  -0.646  -0.631  -0.628
 -0.627  -0.626  -0.625  -0.625  -0.620  -0.620  -0.619  -0.614
 -0.612  -0.611  -0.610  -0.609  -0.609  -0.608  -0.608  -0.607
 -0.606  -0.604  -0.602  -0.599  -0.567  -0.563  -0.562  -0.562
 -0.560  -0.558  -0.558  -0.556  -0.555  -0.555  -0.554  -0.550
 -0.537  -0.534  -0.534  -0.531  -0.527  -0.525  -0.522  -0.522
 -0.521  -0.518  -0.518  -0.517  -0.515  -0.514  -0.513  -0.511
 -0.509  -0.506  -0.505  -0.502  -0.496  -0.494  -0.488  -0.487
 -0.484  -0.482  -0.480  -0.478  -0.477  -0.477  -0.476  -0.475
 -0.473  -0.473  -0.471  -0.470  -0.468  -0.468  -0.466  -0.465
 -0.464  -0.463  -0.462  -0.461  -0.461  -0.460  -0.460  -0.458
 -0.454  -0.452  -0.452  -0.450  -0.449  -0.447  -0.443  -0.442
 -0.440  -0.439  -0.438  -0.437  -0.437  -0.434  -0.431  -0.430
 -0.429  -0.427  -0.427  -0.426  -0.425  -0.425  -0.424  -0.423
 -0.422  -0.421  -0.421  -0.418  -0.418  -0.417  -0.417  -0.416
 -0.415  -0.415  -0.414  -0.413  -0.412  -0.412  -0.410  -0.410
 -0.409  -0.408  -0.406  -0.404  -0.404  -0.401  -0.395  -0.394
 -0.390  -0.390  -0.388  -0.387  -0.386  -0.384  -0.381  -0.378
 -0.375  -0.375  -0.374  -0.370  -0.370  -0.370  -0.368  -0.366
 -0.365  -0.364  -0.361  -0.360  -0.360  -0.359  -0.358  -0.357
 -0.357  -0.355  -0.355  -0.355  -0.353  -0.353  -0.351  -0.351
 -0.348  -0.347  -0.346  -0.346  -0.345  -0.344  -0.344  -0.340
 -0.339  -0.338  -0.338  -0.336  -0.336  -0.334  -0.333  -0.332
 -0.331  -0.331  -0.328  -0.328  -0.327  -0.326  -0.325  -0.324
 -0.310  -0.308  -0.303  -0.301  -0.290  -0.282  -0.279  -0.269
 -0.268  -0.267  -0.266  -0.266  -0.265  -0.263  -0.263  -0.261
 -0.260  -0.258  -0.258  -0.257  -0.256  -0.255  -0.253  -0.251
 -0.251  -0.246  -0.243  -0.241  -0.221  -0.217  -0.212  -0.208
 -0.207  -0.205  -0.204  -0.203  -0.196  -0.195

          Ground-State Mulliken Net Atomic Charges

     Atom                 Charge (a.u.)
  ----------------------------------------
      1 O                    -0.458398
      2 C                    -0.085467
      3 H                     0.126794
      4 H                     0.128249
      5 H                     0.135124
      6 O                    -0.484613
      7 C                     0.599054
      8 C                    -0.250994
      9 H                     0.126985
     10 H                     0.134912
     11 C                    -0.175612
     12 H                     0.112461
     13 H                     0.118536
     14 C                    -0.194142
     15 H                     0.105594
     16 H                     0.103465
     17 C                     0.016008
     18 C                     0.083398
     19 C                    -0.113066
     20 H                     0.095616
     21 C                    -0.091254
     22 H                     0.093532
     23 C                    -0.078215
     24 H                     0.093733
     25 C                    -0.090292
     26 H                     0.093779
     27 C                    -0.111424
     28 H                     0.093858
     29 C                     0.021365
     30 C                    -0.020749
     31 C                     0.001444
     32 C                     0.022333
     33 C                    -0.009820
     34 C                    -0.012857
     35 C                    -0.002877
     36 C                     0.001069
     37 C                     0.008394
     38 C                     0.002304
     39 C                    -0.076434
     40 C                     0.014156
     41 C                    -0.021115
     42 C                    -0.003213
     43 C                    -0.004478
     44 C                    -0.016323
     45 C                    -0.086592
     46 C                     0.026829
     47 C                     0.004249
     48 C                    -0.001168
     49 C                    -0.010985
     50 C                     0.016417
     51 C                    -0.018777
     52 C                     0.008287
     53 C                     0.007981
     54 C                     0.025161
     55 C                    -0.009413
     56 C                     0.002178
     57 C                     0.004820
     58 C                    -0.000372
     59 C                    -0.007246
     60 C                     0.038881
     61 C                    -0.015922
     62 C                     0.001201
     63 C                    -0.000601
     64 C                    -0.013370
     65 C                    -0.003796
     66 C                    -0.027191
     67 C                    -0.025212
     68 C                    -0.024223
     69 C                     0.023344
     70 C                     0.028472
     71 C                    -0.010039
     72 C                     0.006148
     73 C                     0.007831
     74 C                    -0.018330
     75 C                     0.032205
     76 C                    -0.020295
     77 C                    -0.000491
     78 C                     0.020809
     79 C                    -0.029176
     80 C                     0.023189
     81 C                    -0.016520
     82 C                    -0.009002
     83 C                     0.006130
     84 C                    -0.004486
     85 C                    -0.019332
     86 C                     0.030826
     87 C                     0.013821
     88 C                     0.009040
     89 O                    -0.481675
     90 C                    -0.095298
     91 H                     0.125591
     92 H                     0.125143
     93 H                     0.122503
     94 O                    -0.460683
     95 C                     0.614468
     96 C                    -0.266408
     97 H                     0.134954
     98 H                     0.135826
     99 C                    -0.179753
    100 H                     0.115435
    101 H                     0.124113
    102 C                    -0.187144
    103 H                     0.112178
    104 H                     0.107427
    105 C                    -0.010437
    106 C                     0.124475
    107 C                    -0.113185
    108 H                     0.091022
    109 C                    -0.081707
    110 H                     0.091295
    111 C                    -0.088750
    112 H                     0.089660
    113 C                    -0.087032
    114 H                     0.099609
    115 C                    -0.117388
    116 H                     0.091096
    117 C                     0.002649
    118 C                     0.006550
    119 C                     0.011553
    120 C                    -0.022035
    121 C                     0.006948
    122 C                    -0.014039
    123 C                    -0.021747
    124 C                    -0.012674
    125 C                    -0.003993
    126 C                     0.004659
    127 C                    -0.107302
    128 C                     0.007929
    129 C                     0.004547
    130 C                    -0.008626
    131 C                     0.015944
    132 C                     0.009868
    133 C                    -0.071526
    134 C                     0.013985
    135 C                     0.012650
    136 C                    -0.016136
    137 C                     0.010416
    138 C                    -0.012356
    139 C                     0.023404
    140 C                     0.012440
    141 C                     0.047981
    142 C                    -0.037530
    143 C                     0.016541
    144 C                    -0.033081
    145 C                    -0.022664
    146 C                     0.035770
    147 C                     0.025861
    148 C                     0.033848
    149 C                    -0.000987
    150 C                     0.005580
    151 C                    -0.028279
    152 C                    -0.001930
    153 C                     0.015940
    154 C                     0.014566
    155 C                     0.002184
    156 C                    -0.028315
    157 C                     0.001190
    158 C                     0.015072
    159 C                     0.027564
    160 C                    -0.000322
    161 C                     0.004060
    162 C                    -0.036865
    163 C                    -0.012768
    164 C                    -0.015174
    165 C                    -0.002646
    166 C                     0.014090
    167 C                    -0.027578
    168 C                     0.003843
    169 C                     0.010940
    170 C                    -0.023458
    171 C                    -0.006987
    172 C                    -0.009699
    173 C                    -0.022487
    174 C                     0.005020
    175 C                     0.027400
    176 C                     0.018778
  ----------------------------------------
  Sum of atomic charges =     0.000000

                    Cartesian Multipole Moments
 -----------------------------------------------------------------
    Charge (ESU x 10^10)
                 0.0000
    Dipole Moment (Debye)
         X      -0.3146      Y      -2.0068      Z       4.0307
       Tot       4.5136
    Quadrupole Moments (Debye-Ang)
        XX    -714.8159     XY      38.9893     YY    -794.4741
        XZ      12.2819     YZ      -8.2801     ZZ    -803.1843

 Total job time:  834.28s(wall), 7012.69s(cpu)
        *  Thank you very much for using Q-Chem.  Have a nice day.  *
