 Q-Chem 4.4, Q-Chem, Inc., Pleasanton, CA (2016)
 Q-Chem 4.4.2 for Intel X86 Linux

User input:
--------------------------------------------------------------
$comment
SP
$end

$rem
MEM_STATIC 5000
MEM_TOTAL 20000
JOBTYPE SP
EXCHANGE B3LYP
BASIS 6-31g(d,p)
$end

$molecule
0 1
O          13.432000     -9.584000     -5.572000
C          12.036000     -9.482000     -5.281000
H          11.831000     -8.625000     -4.628000
H          11.702000    -10.414000     -4.808000
H          11.474000     -9.250000     -6.194000
O          13.720000     -7.337000     -5.831000
C          14.174000     -8.454000     -5.899000
C          15.608000     -8.680000     -6.445000
H          15.909000     -7.922000     -7.179000
H          15.500000     -9.631000     -6.980000
C          16.567000     -8.873000     -5.276000
H          16.471000     -7.959000     -4.677000
H          16.343000     -9.694000     -4.584000
C          17.954000     -9.036000     -5.752000
H          18.060000     -9.757000     -6.572000
H          18.143000     -8.086000     -6.267000
C          19.074000     -9.233000     -4.712000
C          19.447000     -7.893000     -4.099000
C          18.586000     -7.424000     -3.093000
H          17.703000     -8.015000     -2.868000
C          18.833000     -6.264000     -2.431000
H          18.174000     -5.916000     -1.641000
C          20.003000     -5.547000     -2.848000
H          20.279000     -4.630000     -2.335000
C          20.767000     -5.927000     -3.875000
H          21.628000     -5.310000     -4.114000
C          20.497000     -7.109000     -4.515000
H          21.136000     -7.571000     -5.262000
C          23.933000    -11.168000     -3.303000
C          22.660000    -11.365000     -1.205000
C          22.326000    -15.829000     -1.202000
C          21.520000    -13.567000     -7.059000
C          19.056000    -15.773000     -2.510000
C          22.934000    -10.726000     -2.390000
C          20.057000    -15.678000     -5.932000
C          24.241000    -14.442000     -1.715000
C          18.730000    -11.816000     -1.908000
C          20.162000    -13.404000     -6.729000
C          19.078000    -10.498000     -3.961000
C          18.028000    -12.466000     -3.019000
C          18.537000    -13.949000     -5.376000
C          19.800000    -16.357000     -4.728000
C          20.742000    -10.515000     -2.010000
C          21.210000    -16.913000     -2.775000
C          20.221000    -10.164000     -4.847000
C          20.532000    -11.148000     -5.969000
C          20.224000    -16.373000     -1.975000
C          24.104000    -15.188000     -5.230000
C          23.560000    -16.216000     -3.233000
C          24.414000    -15.151000     -2.970000
C          24.270000    -13.067000     -1.788000
C          21.925000    -11.283000     -6.218000
C          19.433000    -10.703000     -2.506000
C          23.340000    -12.536000     -0.876000
C          19.448000    -14.448000     -6.271000
C          21.261000    -11.207000     -0.943000
C          18.064000    -13.843000     -3.002000
C          23.572000    -13.063000     -6.267000
C          23.168000    -14.770000     -0.856000
C          18.283000    -11.722000     -4.229000
C          24.768000    -13.069000     -4.162000
C          18.141000    -14.642000     -4.205000
C          19.307000    -12.625000     -0.875000
C          22.043000    -16.422000     -5.082000
C          21.431000    -15.811000     -6.177000
C          19.232000    -14.038000     -0.921000
C          22.417000    -12.509000     -6.779000
C          19.724000    -12.215000     -6.221000
C          23.496000    -14.454000     -6.278000
C          21.535000    -10.019000     -4.309000
C          21.245000    -13.485000     -0.075000
C          18.670000    -12.550000     -5.332000
C          18.563000    -14.604000     -1.988000
C          24.197000    -12.376000     -5.208000
C          20.932000    -15.728000     -0.960000
C          24.575000    -12.367000     -2.982000
C          22.491000    -16.610000     -2.355000
C          20.553000    -12.289000     -0.373000
C          20.392000    -14.592000     -0.324000
C          21.768000    -10.194000     -2.901000
C          22.522000    -10.575000     -5.172000
C          23.364000    -16.219000     -4.638000
C          22.650000    -13.584000     -0.302000
C          18.807000    -15.772000     -3.872000
C          22.169000    -14.789000     -6.764000
C          20.981000    -16.828000     -4.190000
C          23.695000    -11.130000     -4.665000
C          24.778000    -14.533000     -4.198000
O          31.476000    -11.755000      8.488000
C          32.387000    -11.316000      9.548000
H          32.792000    -12.175000     10.099000
H          32.008000    -10.685000     10.361000
H          33.314000    -10.856000      9.183000
O          30.123000    -12.611000     10.025000
C          30.397000    -12.462000      8.875000
C          29.506000    -13.043000      7.806000
H          29.091000    -13.960000      8.242000
H          30.222000    -13.343000      7.031000
C          28.429000    -12.121000      7.145000
H          27.848000    -11.754000      8.000000
H          28.832000    -11.202000      6.704000
C          27.547000    -12.947000      6.191000
H          28.165000    -13.545000      5.510000
H          27.004000    -13.663000      6.820000
C          26.462000    -12.157000      5.444000
C          27.044000    -11.388000      4.269000
C          27.051000    -12.009000      3.038000
H          26.912000    -13.086000      3.017000
C          27.389000    -11.372000      1.844000
H          27.331000    -11.887000      0.889000
C          27.712000     -9.984000      1.940000
H          28.015000     -9.408000      1.071000
C          27.700000     -9.331000      3.195000
H          27.826000     -8.253000      3.232000
C          27.358000    -10.000000      4.317000
H          27.352000     -9.421000      5.235000
C          22.165000     -8.788000      5.884000
C          21.699000     -9.953000      3.793000
C          18.284000    -12.496000      5.408000
C          23.006000    -12.008000      9.739000
C          20.303000    -15.297000      5.950000
C          22.612000     -9.351000      4.654000
C          21.412000    -14.317000      9.194000
C          18.865000    -10.167000      5.772000
C          23.325000    -13.635000      3.842000
C          23.570000    -13.192000      9.174000
C          25.098000    -12.738000      5.265000
C          23.600000    -14.533000      4.909000
C          23.174000    -14.897000      7.692000
C          20.472000    -14.986000      8.343000
C          23.578000    -11.228000      3.826000
C          18.687000    -13.937000      7.122000
C          25.264000    -11.602000      6.182000
C          24.961000    -11.789000      7.614000
C          19.189000    -14.488000      5.927000
C          19.773000    -10.599000      9.155000
C          18.351000    -11.556000      7.691000
C          18.715000    -10.328000      7.164000
C          19.898000     -9.348000      5.330000
C          24.305000    -10.623000      8.112000
C          24.114000    -12.466000      4.074000
C          20.343000     -9.968000      4.121000
C          22.752000    -14.321000      8.871000
C          22.303000    -11.148000      3.306000
C          22.497000    -15.277000      5.434000
C          22.118000    -10.022000      9.106000
C          18.617000    -11.223000      4.876000
C          24.532000    -14.032000      5.802000
C          20.660000     -8.925000      7.546000
C          22.295000    -15.561000      6.844000
C          22.032000    -13.510000      3.218000
C          19.544000    -13.035000      9.135000
C          20.832000    -13.122000      9.656000
C          20.958000    -14.299000      3.775000
C          23.302000    -10.772000      9.126000
C          24.499000    -13.063000      8.090000
C          21.084000    -10.723000      9.725000
C          24.575000    -10.339000      5.882000
C          20.118000    -12.270000      3.256000
C          24.257000    -14.091000      7.167000
C          21.209000    -15.146000      4.890000
C          21.939000     -9.053000      8.105000
C          18.926000    -13.611000      4.872000
C          20.787000     -8.693000      6.148000
C          18.178000    -12.659000      6.814000
C          21.512000    -12.273000      2.928000
C          19.842000    -13.510000      3.800000
C          23.813000    -10.125000      4.670000
C          24.025000     -9.799000      7.065000
C          18.986000    -11.730000      8.912000
C          19.549000    -11.098000      3.859000
C          20.932000    -15.625000      7.154000
C          21.637000    -11.994000      9.942000
C          19.344000    -14.149000      8.306000
C          22.885000     -8.962000      7.112000
C          19.593000     -9.736000      8.058000
$end

--------------------------------------------------------------

             Standard Nuclear Orientation (Angstroms)
    I     Atom           X                Y                Z
 ----------------------------------------------------------------
    1      O       9.4024936433     5.8941933765     0.4745865229
    2      C       9.6236998976     7.2571876324     0.1041604821
    3      H       9.1011896773     7.9404355839     0.7846296632
    4      H       9.2809095555     7.4057691448    -0.9275019217
    5      H      10.6803688315     7.5198789678     0.2371305023
    6      O       9.5863243932     6.2904468177     2.7124925678
    7      C       9.4687750823     5.5002822533     1.8068154063
    8      C       9.4704401913     3.9767379637     2.0972599363
    9      H      10.0657630882     3.7117636210     2.9800397764
   10      H       9.9909519204     3.5785693680     1.2181585147
   11      C       8.0351679605     3.4634399427     2.1003848564
   12      H       7.5258949326     4.0510100958     2.8742164261
   13      H       7.4508310864     3.6256097100     1.1864196579
   14      C       7.9890820754     2.0257247310     2.4286607483
   15      H       8.7053196802     1.4179033349     1.8620622626
   16      H       8.4225758088     1.9966972783     3.4359772776
   17      C       6.6177543705     1.3254750362     2.4912681808
   18      C       5.9383640848     1.6441141276     3.8131592388
   19      C       5.3091201075     2.8979036041     3.8865211201
   20      H       5.3982216843     3.5586205904     3.0291361582
   21      C       4.6248102420     3.2851268035     4.9940549579
   22      H       4.1242519088     4.2479386100     5.0378702568
   23      C       4.6167192080     2.3477154260     6.0794454150
   24      H       4.0569884456     2.5791293616     6.9813229367
   25      C       5.3014686208     1.2015780514     6.0617716974
   26      H       5.2337105754     0.5640594813     6.9381905015
   27      C       5.9728708126     0.8348590418     4.9240721480
   28      H       6.4380584679    -0.1331967942     4.7620772599
   29      C       3.5513715853    -3.1176439839     2.0492534885
   30      C       2.0326445983    -1.3496000887     1.2565170103
   31      C       2.0622572530    -2.5199863787    -3.0641519220
   32      C       7.8699753035    -3.0491333232    -0.6022129387
   33      C       4.4387446843    -0.0608952148    -3.9079991456
   34      C       3.0572310562    -1.7825148061     2.0630090673
   35      C       7.2902474298    -2.0707809264    -3.1661086426
   36      C       1.8944525344    -3.9268153570    -1.1028164580
   37      C       4.0657246239     1.7297877413    -0.3329691337
   38      C       8.0424703516    -1.6864136268    -0.9069644562
   39      C       5.8894502417     1.1607631146     1.2237173618
   40      C       5.3401393635     1.7592667307    -1.0572778115
   41      C       7.3381902035     0.0255498284    -2.0651654755
   42      C       6.2411320969    -1.6595604798    -4.0069182301
   43      C       3.4775258361     0.3483131361     1.5369771493
   44      C       3.9064896337    -2.4243575892    -4.2825537690
   45      C       6.3224283314    -0.0373762696     1.9852900699
   46      C       7.2440605702    -1.0145641697     1.2644857800
   47      C       3.5153824209    -1.1067621287    -4.1610080957
   48      C       5.2176488861    -5.2408705617    -1.5029850812
   49      C       3.5208763823    -4.4227379438    -2.8417722524
   50      C       2.9943818419    -4.7370311314    -1.5940810682
   51      C       1.9787913834    -3.5255661659     0.2119766988
   52      C       6.9839790626    -2.3715321433     1.5986571851
   53      C       4.3990050891     1.2729462778     0.9977457150
   54      C       1.4629884858    -2.2223930896     0.3315271233
   55      C       7.8453862429    -1.2446058991    -2.1621376657
   56      C       2.2831129136     0.0246123014     0.9408986812
   57      C       5.2852767550     1.2810869648    -2.3480327091
   58      C       6.4159135873    -4.4249713540     0.4393043382
   59      C       1.4622057316    -2.7975714687    -1.8340927001
   60      C       6.3968139367     1.3691239813    -0.1551201305
   61      C       4.0248864284    -4.7689959452     0.6009001499
   62      C       6.3686330102     0.5435717852    -2.9595468824
   63      C       2.8804714969     1.3050116961    -1.0179795982
   64      C       5.7813354714    -3.7786141198    -3.3295787776
   65      C       7.0331514162    -3.4089838912    -2.8364050411
   66      C       2.9229604674     0.8915630725    -2.3713328126
   67      C       7.3122979358    -3.3978877786     0.6506794283
   68      C       7.7440258809    -0.7377668037     0.0282516167
   69      C       6.4264229694    -4.8184655843    -0.8970451084
   70      C       5.3590659940    -0.9663213925     2.4813333801
   71      C       1.4330357301    -0.4155139534    -1.3011141782
   72      C       7.2768823706     0.3825796877    -0.7066379531
   73      C       4.1461847536     0.9344219913    -3.0103096969
   74      C       5.2179779649    -4.3920043684     1.1795329668
   75      C       2.3285923503    -1.1756714003    -3.4300533497
   76      C       3.0020479216    -3.9688316310     1.0866896715
   77      C       3.0681821441    -3.3122630267    -3.6359979036
   78      C       1.9783859071     0.4865643208    -0.3593435206
   79      C       1.9452760098    -0.1111556190    -2.5895375947
   80      C       3.9561331720    -0.7526174609     2.2500583779
   81      C       5.8084685403    -2.3113793734     2.3512165889
   82      C       4.9045764336    -4.7265058685    -2.7672791933
   83      C       1.1488290529    -1.7637941956    -0.9313548606
   84      C       5.8009460340    -0.3020580801    -3.8506061554
   85      C       7.3420775706    -3.9228478956    -1.5817316111
   86      C       5.3128467375    -2.6735132164    -4.1343236437
   87      C       4.9104056644    -3.3563562878     2.1450387063
   88      C       4.0271139804    -5.2707600375    -0.7749340819
   89      O     -10.1494345582    -5.9703682040     2.6965359160
   90      C     -11.4537462375    -6.2706971704     3.2921998777
   91      H     -12.1283524896    -6.7233880821     2.5536307590
   92      H     -12.0690211350    -5.4540693253     3.6888442561
   93      H     -11.4298350305    -7.0606243330     4.0535127779
   94      O     -11.1276071338    -4.5380954843     1.3118022706
   95      C     -10.1451232363    -5.1200720859     1.6521045282
   96      C      -8.8421420981    -4.8870567792     0.9295071159
   97      H      -9.1215010471    -4.6746488839    -0.1097481288
   98      H      -8.3747752120    -5.8792907417     0.9474223975
   99      C      -7.8267726034    -3.8583457302     1.5275977168
  100      H      -8.4152583544    -2.9360712781     1.6074059608
  101      H      -7.5384712022    -4.0612078508     2.5654706677
  102      C      -6.6392483350    -3.6747922228     0.5650956535
  103      H      -6.2310215241    -4.6466489461     0.2615591974
  104      H      -7.0503009802    -3.2181745958    -0.3435748399
  105      C      -5.5431056463    -2.7114863492     1.0445192659
  106      C      -4.6338501740    -3.3699194033     2.0694243343
  107      C      -3.4962470800    -3.9967341487     1.6068084293
  108      H      -3.4482040037    -4.2349465209     0.5482066494
  109      C      -2.4858129153    -4.4897873817     2.4323811446
  110      H      -1.5815682676    -4.9310456756     2.0222022381
  111      C      -2.6628937332    -4.2863086327     3.8349957683
  112      H      -1.9454208942    -4.6585128102     4.5598700854
  113      C      -3.8205837361    -3.6364521022     4.3238907948
  114      H      -3.8790022519    -3.3810317047     5.3777772676
  115      C      -4.7628454568    -3.1747532459     3.4739578469
  116      H      -5.6087097235    -2.6685681463     3.9281508534
  117      C      -4.3774684961     2.3328863167     2.8343696621
  118      C      -2.2789396799     1.6533953910     1.7945952203
  119      C      -2.6362153486     4.3763506106    -1.8379201573
  120      C      -8.3424041935     1.8388655439    -0.3234673178
  121      C      -3.9077888793     1.8596616813    -3.9031328798
  122      C      -3.3946289897     1.3374652948     2.5644780285
  123      C      -7.3151938457     2.3017137089    -2.9502433793
  124      C      -3.1369698070     4.7520605041     0.5077961615
  125      C      -2.9676120685    -0.9729447870    -1.1771834745
  126      C      -8.0348937188     0.7614586437    -1.2087970187
  127      C      -4.9063949481    -1.7601010156     0.0855805640
  128      C      -4.0800379064    -1.1491346795    -2.0443535137
  129      C      -6.5411958285     0.0490688561    -2.7967303936
  130      C      -6.2006333742     2.6228355497    -3.7928570029
  131      C      -2.9957929378    -0.4110269457     1.1768276084
  132      C      -4.4095114015     4.1279960036    -3.2416391812
  133      C      -5.8012592186    -1.2230118259     1.1198407537
  134      C      -7.0381406394    -0.5324802388     0.7066912917
  135      C      -3.4785612800     3.0998647904    -3.4864004522
  136      C      -6.6306144156     4.9547243828     0.0504650983
  137      C      -4.7782060733     5.3987869657    -1.1547820779
  138      C      -4.3897997196     5.3026743743     0.1711560331
  139      C      -3.0714793118     3.9604881375     1.6489964872
  140      C      -7.2509033554     0.5974605480     1.5527774841
  141      C      -3.4402253082    -1.2062627671     0.1513892355
  142      C      -2.1086742593     2.9552214558     1.3225744756
  143      C      -7.4848666613     1.0094496332    -2.5016793433
  144      C      -2.0587132739     0.5635085548     0.9037209226
  145      C      -4.1971163959    -0.2431105105    -3.1448910335
  146      C      -7.3994823876     3.0597996210     1.3359444597
  147      C      -2.2313555830     4.3206586318    -0.4787185631
  148      C      -5.2342893075    -1.5041535797    -1.3670505657
  149      C      -5.4053668451     4.1776176332     2.0685829073
  150      C      -5.4508267956     0.3190584840    -3.6157798262
  151      C      -1.9260164990    -0.0029651548    -1.4031661796
  152      C      -6.5777506435     4.3499335565    -2.3198451088
  153      C      -7.5204772675     3.3619744799    -2.0493689074
  154      C      -2.0841096363     0.8735419353    -2.5402624292
  155      C      -7.8494254730     1.7762299501     0.9971877332
  156      C      -7.3451929707    -0.3823215661    -0.6883955296
  157      C      -7.6279981697     3.9509208940     0.2883751712
  158      C      -5.2538152900    -0.3022540063     2.1260217427
  159      C      -1.2639456867     2.1048612056    -0.8364473129
  160      C      -6.4158916648    -0.8189593112    -1.6439181941
  161      C      -3.2320276400     0.7515117506    -3.3715433027
  162      C      -6.3812656116     3.1969944631     2.2937623820
  163      C      -2.3819907950     3.2626391561    -2.6364824107
  164      C      -4.1374685803     3.6685695515     2.4656484441
  165      C      -3.9176775184     4.8922478044    -2.1640271841
  166      C      -1.4479353363     0.7636158255    -0.3695023065
  167      C      -1.6994758787     2.1251896649    -2.1477871642
  168      C      -3.8472731616     0.0296696833     2.2087858971
  169      C      -6.1568442625     0.7605290696     2.3465207414
  170      C      -6.1476868989     5.1950338191    -1.2405079411
  171      C      -1.6054833740     3.1956000607     0.0322268251
  172      C      -5.2621879495     1.6048728510    -4.1344914990
  173      C      -8.0500378955     3.1193637062    -0.7598300155
  174      C      -5.7528410702     3.8798394635    -3.3526920189
  175      C      -5.7834301961     2.0565499232     2.7746210593
  176      C      -5.5242355529     5.0254943781     0.9173534533
 ----------------------------------------------------------------

    9   -5804.2587521307      8.27E-06 Convergence criterion met
 Total energy in the final basis set = -5804.2587521307

                    Orbital Energies (a.u.)
 --------------------------------------------------------------

 Alpha MOs
 -- Occupied --
-19.196 -19.189 -19.137 -19.127 -10.320 -10.310 -10.246 -10.245
-10.242 -10.239 -10.238 -10.237 -10.237 -10.235 -10.232 -10.232
-10.231 -10.229 -10.227 -10.227 -10.227 -10.226 -10.225 -10.224
-10.224 -10.224 -10.223 -10.222 -10.222 -10.222 -10.221 -10.221
-10.221 -10.220 -10.219 -10.219 -10.219 -10.219 -10.219 -10.219
-10.218 -10.218 -10.218 -10.218 -10.218 -10.218 -10.217 -10.217
-10.217 -10.216 -10.216 -10.216 -10.216 -10.216 -10.216 -10.216
-10.216 -10.216 -10.215 -10.215 -10.215 -10.215 -10.215 -10.215
-10.215 -10.215 -10.215 -10.215 -10.214 -10.214 -10.214 -10.214
-10.214 -10.214 -10.214 -10.214 -10.214 -10.214 -10.214 -10.213
-10.213 -10.213 -10.213 -10.213 -10.213 -10.213 -10.213 -10.213
-10.213 -10.213 -10.212 -10.212 -10.212 -10.212 -10.212 -10.212
-10.212 -10.212 -10.212 -10.212 -10.212 -10.212 -10.212 -10.212
-10.211 -10.211 -10.211 -10.211 -10.211 -10.211 -10.211 -10.211
-10.211 -10.211 -10.210 -10.210 -10.210 -10.210 -10.209 -10.209
-10.209 -10.209 -10.209 -10.209 -10.209 -10.209 -10.208 -10.208
-10.208 -10.208 -10.207 -10.206 -10.205 -10.205 -10.204 -10.202
-10.202 -10.201 -10.200 -10.200 -10.198 -10.196 -10.195 -10.194
-10.193 -10.192 -10.192 -10.191  -1.102  -1.089  -1.013  -1.013
 -0.986  -0.981  -0.969  -0.967  -0.966  -0.962  -0.960  -0.960
 -0.941  -0.936  -0.931  -0.925  -0.924  -0.923  -0.922  -0.921
 -0.921  -0.919  -0.903  -0.895  -0.892  -0.889  -0.887  -0.885
 -0.878  -0.874  -0.863  -0.855  -0.841  -0.839  -0.839  -0.837
 -0.836  -0.835  -0.828  -0.819  -0.814  -0.805  -0.799  -0.796
 -0.796  -0.794  -0.793  -0.793  -0.792  -0.789  -0.787  -0.783
 -0.770  -0.769  -0.768  -0.767  -0.766  -0.765  -0.765  -0.762
 -0.760  -0.755  -0.744  -0.741  -0.735  -0.732  -0.718  -0.715
 -0.713  -0.712  -0.712  -0.712  -0.711  -0.710  -0.710  -0.709
 -0.709  -0.707  -0.706  -0.706  -0.705  -0.704  -0.674  -0.672
 -0.659  -0.657  -0.656  -0.656  -0.649  -0.647  -0.636  -0.629
 -0.628  -0.628  -0.627  -0.625  -0.624  -0.622  -0.621  -0.617
 -0.616  -0.614  -0.613  -0.611  -0.610  -0.610  -0.608  -0.608
 -0.606  -0.604  -0.602  -0.601  -0.571  -0.570  -0.565  -0.565
 -0.563  -0.560  -0.560  -0.558  -0.557  -0.556  -0.555  -0.552
 -0.543  -0.538  -0.535  -0.531  -0.527  -0.526  -0.525  -0.525
 -0.524  -0.522  -0.520  -0.518  -0.517  -0.517  -0.515  -0.512
 -0.510  -0.506  -0.500  -0.496  -0.492  -0.489  -0.487  -0.485
 -0.483  -0.483  -0.481  -0.480  -0.479  -0.477  -0.475  -0.475
 -0.474  -0.472  -0.470  -0.470  -0.468  -0.467  -0.466  -0.466
 -0.465  -0.465  -0.464  -0.464  -0.462  -0.461  -0.459  -0.459
 -0.457  -0.456  -0.456  -0.451  -0.451  -0.448  -0.447  -0.443
 -0.441  -0.441  -0.440  -0.439  -0.437  -0.436  -0.435  -0.434
 -0.432  -0.431  -0.429  -0.429  -0.428  -0.428  -0.427  -0.425
 -0.424  -0.422  -0.422  -0.421  -0.420  -0.419  -0.418  -0.418
 -0.417  -0.416  -0.415  -0.414  -0.414  -0.414  -0.413  -0.412
 -0.411  -0.410  -0.410  -0.409  -0.403  -0.399  -0.397  -0.396
 -0.395  -0.393  -0.393  -0.390  -0.389  -0.388  -0.388  -0.386
 -0.386  -0.384  -0.376  -0.373  -0.372  -0.370  -0.369  -0.367
 -0.366  -0.365  -0.364  -0.363  -0.362  -0.361  -0.361  -0.360
 -0.358  -0.357  -0.356  -0.354  -0.353  -0.352  -0.352  -0.352
 -0.350  -0.350  -0.348  -0.348  -0.348  -0.347  -0.344  -0.344
 -0.344  -0.343  -0.341  -0.340  -0.339  -0.339  -0.334  -0.333
 -0.333  -0.331  -0.330  -0.329  -0.327  -0.325  -0.324  -0.324
 -0.317  -0.312  -0.301  -0.296  -0.288  -0.287  -0.271  -0.270
 -0.270  -0.267  -0.267  -0.267  -0.266  -0.265  -0.264  -0.263
 -0.263  -0.262  -0.261  -0.259  -0.259  -0.257  -0.255  -0.254
 -0.251  -0.245  -0.245  -0.244  -0.221  -0.219  -0.212  -0.210
 -0.210  -0.208  -0.207  -0.204  -0.202  -0.196

          Ground-State Mulliken Net Atomic Charges

     Atom                 Charge (a.u.)
  ----------------------------------------
      1 O                    -0.477434
      2 C                    -0.082442
      3 H                     0.131154
      4 H                     0.126312
      5 H                     0.122732
      6 O                    -0.451093
      7 C                     0.568452
      8 C                    -0.234185
      9 H                     0.137112
     10 H                     0.125304
     11 C                    -0.192105
     12 H                     0.125015
     13 H                     0.118219
     14 C                    -0.180013
     15 H                     0.106970
     16 H                     0.111817
     17 C                     0.010632
     18 C                     0.093028
     19 C                    -0.101033
     20 H                     0.088226
     21 C                    -0.088312
     22 H                     0.097233
     23 C                    -0.090930
     24 H                     0.082698
     25 C                    -0.072326
     26 H                     0.092717
     27 C                    -0.113580
     28 H                     0.087125
     29 C                    -0.020489
     30 C                    -0.000820
     31 C                     0.011041
     32 C                    -0.015952
     33 C                     0.001334
     34 C                     0.004938
     35 C                    -0.010581
     36 C                    -0.029154
     37 C                    -0.025873
     38 C                     0.015755
     39 C                    -0.047914
     40 C                    -0.027435
     41 C                    -0.009648
     42 C                    -0.000408
     43 C                     0.012811
     44 C                    -0.021704
     45 C                    -0.089262
     46 C                     0.016863
     47 C                     0.021853
     48 C                    -0.003405
     49 C                     0.003696
     50 C                     0.010169
     51 C                     0.017470
     52 C                     0.019215
     53 C                     0.036007
     54 C                    -0.005268
     55 C                     0.012981
     56 C                    -0.014954
     57 C                     0.028396
     58 C                     0.010758
     59 C                    -0.005156
     60 C                     0.002599
     61 C                    -0.014208
     62 C                    -0.037497
     63 C                     0.010651
     64 C                     0.025949
     65 C                    -0.005950
     66 C                    -0.007685
     67 C                    -0.011602
     68 C                     0.000706
     69 C                     0.009585
     70 C                     0.028808
     71 C                     0.003023
     72 C                     0.001703
     73 C                     0.021661
     74 C                     0.011926
     75 C                    -0.007199
     76 C                     0.006938
     77 C                     0.004959
     78 C                     0.005209
     79 C                    -0.026962
     80 C                     0.003952
     81 C                    -0.015205
     82 C                    -0.020259
     83 C                     0.010820
     84 C                     0.010950
     85 C                    -0.020459
     86 C                    -0.000981
     87 C                    -0.009288
     88 C                    -0.016353
     89 O                    -0.461940
     90 C                    -0.096881
     91 H                     0.125575
     92 H                     0.135588
     93 H                     0.121838
     94 O                    -0.455699
     95 C                     0.575439
     96 C                    -0.246672
     97 H                     0.136862
     98 H                     0.116137
     99 C                    -0.191047
    100 H                     0.120029
    101 H                     0.117540
    102 C                    -0.174207
    103 H                     0.113341
    104 H                     0.108229
    105 C                     0.009870
    106 C                     0.085562
    107 C                    -0.111094
    108 H                     0.087320
    109 C                    -0.084389
    110 H                     0.099303
    111 C                    -0.098510
    112 H                     0.088506
    113 C                    -0.079796
    114 H                     0.090740
    115 C                    -0.105062
    116 H                     0.088799
    117 C                    -0.003672
    118 C                    -0.008302
    119 C                    -0.021820
    120 C                    -0.024154
    121 C                     0.013573
    122 C                    -0.008822
    123 C                    -0.018724
    124 C                     0.007605
    125 C                     0.013264
    126 C                    -0.026479
    127 C                    -0.101303
    128 C                    -0.001099
    129 C                     0.005237
    130 C                    -0.006156
    131 C                     0.032527
    132 C                    -0.008848
    133 C                    -0.062991
    134 C                     0.013922
    135 C                    -0.001937
    136 C                    -0.005152
    137 C                    -0.001070
    138 C                     0.000408
    139 C                     0.019321
    140 C                    -0.018054
    141 C                     0.025339
    142 C                    -0.008296
    143 C                     0.014084
    144 C                     0.002943
    145 C                    -0.013161
    146 C                     0.031288
    147 C                    -0.011169
    148 C                     0.015389
    149 C                    -0.021954
    150 C                    -0.022336
    151 C                    -0.012833
    152 C                     0.009413
    153 C                     0.020740
    154 C                    -0.012931
    155 C                     0.011281
    156 C                     0.000742
    157 C                    -0.035363
    158 C                     0.042520
    159 C                    -0.019615
    160 C                     0.026531
    161 C                     0.010720
    162 C                    -0.005971
    163 C                     0.016454
    164 C                    -0.014552
    165 C                     0.011179
    166 C                    -0.004800
    167 C                     0.025717
    168 C                    -0.031971
    169 C                     0.017136
    170 C                    -0.020644
    171 C                     0.009385
    172 C                    -0.008208
    173 C                     0.016313
    174 C                     0.004268
    175 C                     0.005455
    176 C                     0.021893
  ----------------------------------------
  Sum of atomic charges =     0.000000

                    Cartesian Multipole Moments
 -----------------------------------------------------------------
    Charge (ESU x 10^10)
                 0.0000
    Dipole Moment (Debye)
         X       1.7042      Y      -1.7280      Z       1.9935
       Tot       3.1407
    Quadrupole Moments (Debye-Ang)
        XX    -809.7735     XY      21.7672     YY    -796.9988
        XZ     -16.9718     YZ     -20.5631     ZZ    -795.3188

 Total job time:  828.25s(wall), 6978.75s(cpu)
        *  Thank you very much for using Q-Chem.  Have a nice day.  *
