 Q-Chem 4.4, Q-Chem, Inc., Pleasanton, CA (2016)
 Q-Chem 4.4.2 for Intel X86 Linux

User input:
--------------------------------------------------------------
$comment
SP
$end

$rem
MEM_STATIC 5000
MEM_TOTAL 20000
JOBTYPE SP
EXCHANGE B3LYP
BASIS 6-31g(d,p)
$end

$molecule
0 1
O          16.115000    -15.758000      0.905000
C          17.098000    -15.022000      1.676000
H          18.065000    -15.521000      1.813000
H          16.688000    -14.613000      2.608000
H          17.445000    -14.149000      1.110000
O          17.451000    -17.156000     -0.180000
C          16.375000    -16.608000     -0.113000
C          15.125000    -16.876000     -1.005000
H          14.497000    -17.667000     -0.577000
H          15.484000    -17.191000     -1.993000
C          14.224000    -15.618000     -1.206000
H          13.332000    -15.889000     -1.784000
H          13.768000    -15.292000     -0.263000
C          14.917000    -14.450000     -1.853000
H          15.847000    -14.250000     -1.306000
H          15.216000    -14.731000     -2.871000
C          13.876000    -13.259000     -1.970000
C          13.016000    -13.362000     -3.143000
C          11.632000    -13.684000     -3.027000
H          11.248000    -13.870000     -2.028000
C          10.743000    -13.799000     -4.148000
H           9.715000    -14.135000     -4.047000
C          11.326000    -13.486000     -5.451000
H          10.786000    -13.800000     -6.339000
C          12.640000    -13.061000     -5.522000
H          13.040000    -12.958000     -6.526000
C          13.463000    -12.883000     -4.377000
H          14.516000    -12.630000     -4.464000
C          13.701000     -7.723000     -1.995000
C          11.460000     -8.384000     -1.275000
C          11.897000     -7.035000      3.109000
C          17.193000     -9.987000      0.944000
C          12.553000    -10.273000      4.157000
C          12.587000     -8.609000     -2.025000
C          16.125000    -10.227000      3.462000
C          12.647000     -6.037000      1.020000
C          11.408000    -11.912000      0.649000
C          16.691000    -11.270000      1.325000
C          13.284000    -12.563000     -0.752000
C          12.462000    -12.478000      1.476000
C          15.053000    -12.194000      2.534000
C          15.027000    -10.044000      4.274000
C          11.743000    -10.618000     -1.340000
C          13.518000     -8.060000      4.315000
C          14.368000    -11.840000     -1.537000
C          15.716000    -11.585000     -0.895000
C          12.363000     -8.877000      4.295000
C          16.048000     -6.687000      1.588000
C          14.175000     -6.308000      2.910000
C          13.923000     -5.812000      1.576000
C          12.509000     -6.363000     -0.312000
C          16.169000    -10.308000     -1.188000
C          11.932000    -11.812000     -0.644000
C          11.391000     -7.235000     -0.395000
C          16.169000    -11.358000      2.624000
C          10.927000     -9.616000     -0.870000
C          12.548000    -12.061000      2.807000
C          16.746000     -8.106000     -0.270000
C          11.634000     -6.649000      1.754000
C          13.617000    -12.792000      0.660000
C          14.976000     -6.536000     -0.489000
C          13.892000    -11.901000      3.308000
C          10.604000    -10.895000      1.193000
C          15.825000     -8.027000      3.609000
C          16.643000     -9.005000      3.046000
C          10.765000    -10.476000      2.546000
C          16.859000     -9.519000     -0.307000
C          15.880000    -12.018000      0.438000
C          16.854000     -7.685000      1.063000
C          14.075000    -10.518000     -2.218000
C          10.312000     -8.662000      1.303000
C          14.879000    -12.628000      1.188000
C          11.753000    -11.060000      3.316000
C          15.780000     -7.499000     -1.087000
C          11.357000     -8.267000      3.519000
C          13.703000     -6.642000     -1.086000
C          13.206000     -6.928000      3.669000
C          10.351000     -9.753000      0.413000
C          10.596000     -9.104000      2.600000
C          12.763000    -10.040000     -2.155000
C          15.160000     -9.666000     -2.045000
C          15.464000     -6.864000      2.825000
C          10.897000     -7.410000      0.906000
C          13.889000    -10.849000      4.200000
C          17.134000     -8.856000      1.764000
C          14.785000     -8.661000      4.343000
C          14.998000     -8.246000     -1.970000
C          15.058000     -6.129000      0.848000
O          31.476000    -11.755000      8.488000
C          32.387000    -11.316000      9.548000
H          32.792000    -12.175000     10.099000
H          32.008000    -10.685000     10.361000
H          33.314000    -10.856000      9.183000
O          30.123000    -12.611000     10.025000
C          30.397000    -12.462000      8.875000
C          29.506000    -13.043000      7.806000
H          29.091000    -13.960000      8.242000
H          30.222000    -13.343000      7.031000
C          28.429000    -12.121000      7.145000
H          27.848000    -11.754000      8.000000
H          28.832000    -11.202000      6.704000
C          27.547000    -12.947000      6.191000
H          28.165000    -13.545000      5.510000
H          27.004000    -13.663000      6.820000
C          26.462000    -12.157000      5.444000
C          27.044000    -11.388000      4.269000
C          27.051000    -12.009000      3.038000
H          26.912000    -13.086000      3.017000
C          27.389000    -11.372000      1.844000
H          27.331000    -11.887000      0.889000
C          27.712000     -9.984000      1.940000
H          28.015000     -9.408000      1.071000
C          27.700000     -9.331000      3.195000
H          27.826000     -8.253000      3.232000
C          27.358000    -10.000000      4.317000
H          27.352000     -9.421000      5.235000
C          22.165000     -8.788000      5.884000
C          21.699000     -9.953000      3.793000
C          18.284000    -12.496000      5.408000
C          23.006000    -12.008000      9.739000
C          20.303000    -15.297000      5.950000
C          22.612000     -9.351000      4.654000
C          21.412000    -14.317000      9.194000
C          18.865000    -10.167000      5.772000
C          23.325000    -13.635000      3.842000
C          23.570000    -13.192000      9.174000
C          25.098000    -12.738000      5.265000
C          23.600000    -14.533000      4.909000
C          23.174000    -14.897000      7.692000
C          20.472000    -14.986000      8.343000
C          23.578000    -11.228000      3.826000
C          18.687000    -13.937000      7.122000
C          25.264000    -11.602000      6.182000
C          24.961000    -11.789000      7.614000
C          19.189000    -14.488000      5.927000
C          19.773000    -10.599000      9.155000
C          18.351000    -11.556000      7.691000
C          18.715000    -10.328000      7.164000
C          19.898000     -9.348000      5.330000
C          24.305000    -10.623000      8.112000
C          24.114000    -12.466000      4.074000
C          20.343000     -9.968000      4.121000
C          22.752000    -14.321000      8.871000
C          22.303000    -11.148000      3.306000
C          22.497000    -15.277000      5.434000
C          22.118000    -10.022000      9.106000
C          18.617000    -11.223000      4.876000
C          24.532000    -14.032000      5.802000
C          20.660000     -8.925000      7.546000
C          22.295000    -15.561000      6.844000
C          22.032000    -13.510000      3.218000
C          19.544000    -13.035000      9.135000
C          20.832000    -13.122000      9.656000
C          20.958000    -14.299000      3.775000
C          23.302000    -10.772000      9.126000
C          24.499000    -13.063000      8.090000
C          21.084000    -10.723000      9.725000
C          24.575000    -10.339000      5.882000
C          20.118000    -12.270000      3.256000
C          24.257000    -14.091000      7.167000
C          21.209000    -15.146000      4.890000
C          21.939000     -9.053000      8.105000
C          18.926000    -13.611000      4.872000
C          20.787000     -8.693000      6.148000
C          18.178000    -12.659000      6.814000
C          21.512000    -12.273000      2.928000
C          19.842000    -13.510000      3.800000
C          23.813000    -10.125000      4.670000
C          24.025000     -9.799000      7.065000
C          18.986000    -11.730000      8.912000
C          19.549000    -11.098000      3.859000
C          20.932000    -15.625000      7.154000
C          21.637000    -11.994000      9.942000
C          19.344000    -14.149000      8.306000
C          22.885000     -8.962000      7.112000
C          19.593000     -9.736000      8.058000
$end

--------------------------------------------------------------

             Standard Nuclear Orientation (Angstroms)
    I     Atom           X                Y                Z
 ----------------------------------------------------------------
    1      O       2.7870065580    -4.3842261816    -2.2895718225
    2      C       1.6449520311    -3.5934663616    -1.8738358912
    3      H       0.6887120720    -4.1284243156    -1.8260433387
    4      H       1.5765503713    -2.6344946736    -2.4027021453
    5      H       1.7353682049    -3.3283258661    -0.8134494366
    6      O       2.0218864072    -6.4184739626    -1.8503086661
    7      C       2.9748501815    -5.7005393950    -2.0477903147
    8      C       4.4618185909    -6.1358513901    -2.2193024605
    9      H       4.6911236987    -6.3518612502    -3.2700202665
   10      H       4.6131646479    -7.0425806651    -1.6199808500
   11      C       5.4835690987    -5.0645960399    -1.7261454121
   12      H       6.5058280177    -5.4029314148    -1.9352025254
   13      H       5.4392152117    -4.1528009513    -2.3345231313
   14      C       5.3532240712    -4.6992462650    -0.2726627958
   15      H       4.3055726439    -4.4431033160    -0.0703603576
   16      H       5.5750595005    -5.5829941394     0.3392724431
   17      C       6.4447769565    -3.5979345127     0.0612170075
   18      C       7.7583358192    -4.1612573698     0.3499529995
   19      C       8.8474707251    -4.0175929354    -0.5587503002
   20      H       8.6526709762    -3.4875012765    -1.4867098312
   21      C      10.1583349260    -4.5530016178    -0.3238895127
   22      H      10.9483955655    -4.5127877973    -1.0682469769
   23      C      10.3503849141    -5.2090869445     0.9677512447
   24      H      11.2217109290    -5.8449247770     1.0912066066
   25      C       9.3108132723    -5.2299964691     1.8794066585
   26      H       9.4845869577    -5.8312159150     2.7665159438
   27      C       8.0518941423    -4.6161070257     1.6379519519
   28      H       7.2235561854    -4.7184586331     2.3334858315
   29      C       7.2629865494     0.7265584995     3.4239300861
   30      C       8.7427399976     1.1619415754     1.5270449263
   31      C       6.3265374033     4.6695820976    -0.2304103334
   32      C       2.5275936497    -0.1348583393     1.7531529868
   33      C       4.8547522020     2.6140397827    -2.6014603355
   34      C       8.1273547667     0.2834302982     2.3830665110
   35      C       2.1494633999     1.4024628555    -0.4901055935
   36      C       6.8514071004     4.0464302546     2.0627574716
   37      C       7.4031449451    -0.4398873555    -1.9067420752
   38      C       2.6142926010    -0.7899790274     0.4856538050
   39      C       6.4226416446    -2.2060838920    -0.5557642544
   40      C       6.0179241421    -0.6439172946    -2.3001071866
   41      C       3.3007868404    -0.4148331466    -1.6087416274
   42      C       2.7038956739     2.2777896790    -1.3983152640
   43      C       8.2683443386    -0.6770685045     0.3154093850
   44      C       4.2109207555     4.1973101001    -0.8890660554
   45      C       5.9739596832    -2.3589493993     0.8896860678
   46      C       4.5270556763    -2.1029705596     1.2574313989
   47      C       5.1135606488     3.8232497075    -1.9124105945
   48      C       3.5758708737     3.0732117239     2.8600234991
   49      C       4.5612595463     4.5813436286     1.3923718641
   50      C       5.5058141269     4.2457869609     2.4336664271
   51      C       7.5999375939     3.0470392582     2.6462501765
   52      C       4.4374254095    -1.3895207367     2.4426498452
   53      C       7.6154819386    -1.2415997896    -0.7804227713
   54      C       8.4960073243     2.5847339632     1.6459852854
   55      C       2.3986506121     0.0240868869    -0.6361412831
   56      C       8.8499816564     0.5677454745     0.2615931412
   57      C       5.3252180881     0.4377796099    -2.8505035252
   58      C       3.7429763631     0.7209079675     3.4858603735
   59      C       7.2780311310     4.2389376986     0.7511165830
   60      C       5.4011573789    -1.6367047963    -1.4442749973
   61      C       5.5551074552     2.2284472316     3.7846366653
   62      C       3.9412982562     0.5385070576    -2.4535691727
   63      C       7.9391167925     0.8570128364    -1.9929109269
   64      C       2.5932131662     3.2670224150     0.6404309136
   65      C       2.0594104365     1.9859953449     0.7692769129
   66      C       7.1713542898     1.9354683946    -2.5216503224
   67      C       3.4973897348    -0.4243200522     2.6865813291
   68      C       3.6658464202    -1.6983706507     0.2153702054
   69      C       3.0308945469     1.8017002873     2.9467672011
   70      C       6.7235370966    -1.6617900778     2.0074501671
   71      C       8.3985042204     2.7236757764    -0.8146980175
   72      C       4.0743929168    -1.4977807957    -1.0997170427
   73      C       5.8691624476     1.6996756313    -2.9201452146
   74      C       5.0526510080     0.9418978346     3.9386404563
   75      C       6.4372642319     4.0799573519    -1.5022618297
   76      C       6.9328167610     2.0967990044     3.5148963959
   77      C       4.9366905454     4.7718983772     0.0800523707
   78      C       8.6828270901     1.3471280878    -0.9051356589
   79      C       7.4515164324     3.0719891012    -1.7842963659
   80      C       7.8723752499    -0.9449787498     1.6608244070
   81      C       5.8081677439    -1.1546220993     2.9228394775
   82      C       3.4339323847     3.7965284133     1.6941674050
   83      C       8.2450708592     3.3258342843     0.4819134644
   84      C       3.6205138158     1.8774708678    -2.3720200608
   85      C       2.3002950775     1.2365248575     1.9037700060
   86      C       3.0403594087     3.4488065021    -0.6972262859
   87      C       6.0774731138     0.0297939284     3.6797425697
   88      C       4.8616300533     3.3068303233     3.2223902774
   89      O     -13.7052471147    -0.4592496746     2.4100395674
   90      C     -14.9659436356     0.2868540100     2.4247220024
   91      H     -15.6913303484    -0.1532276264     1.7278365957
   92      H     -14.9748412841     1.3413023265     2.1233408820
   93      H     -15.5222180478     0.2123321239     3.3676744226
   94      O     -13.4195514551     0.0933656668     0.2796151321
   95      C     -13.0590758642    -0.5278403438     1.2303713788
   96      C     -11.8278116483    -1.3941572612     1.1426990945
   97      H     -11.7999045486    -1.7534562971     0.1066800809
   98      H     -12.0874637811    -2.2487522725     1.7795107909
   99      C     -10.4640860076    -0.8112734728     1.6401253362
  100      H     -10.3523146583     0.1103290075     1.0558043339
  101      H     -10.4789660057    -0.4505199935     2.6750584320
  102      C      -9.3273053145    -1.8026789443     1.3316438185
  103      H      -9.5855166270    -2.8105970602     1.6790873245
  104      H      -9.2628701007    -1.8629534982     0.2383181207
  105      C      -7.9291730268    -1.3706729024     1.7984745007
  106      C      -7.7465344336    -1.5976657364     3.2903952082
  107      C      -7.2078765762    -2.8011664465     3.6934891842
  108      H      -7.2058358483    -3.6168565912     2.9763166643
  109      C      -6.8223217817    -3.0843033571     5.0037677768
  110      H      -6.3540373374    -4.0288372291     5.2667876313
  111      C      -6.9828033243    -2.0266339480     5.9501662634
  112      H      -6.7377093401    -2.1588692596     6.9995416783
  113      C      -7.5254406164    -0.7830804910     5.5492952507
  114      H      -7.5242623727     0.0458013466     6.2509237215
  115      C      -7.8752008166    -0.5659419101     4.2632440702
  116      H      -8.2625005125     0.4217130373     4.0340331402
  117      C      -4.0702752408     2.5137533140     1.6308116040
  118      C      -2.7589890968     0.4964501377     2.0278991807
  119      C      -0.9459880100     0.2704039389    -2.1433391457
  120      C      -7.1080846187     2.0698151614    -2.4326031054
  121      C      -3.2794381621    -2.0626012122    -3.2956513224
  122      C      -3.9021526273     1.2522787279     2.2711979370
  123      C      -5.7424714165     0.3338279420    -4.2466568411
  124      C      -1.3505992382     2.1545781393    -0.6666958792
  125      C      -4.6125658584    -2.7162478924     0.4638577629
  126      C      -7.4477080677     0.6874873574    -2.5466327291
  127      C      -6.7396990580    -1.6052725546     0.9265727397
  128      C      -5.4903514969    -2.8543096818    -0.6456237895
  129      C      -6.5661898571    -1.4094609626    -2.8397169966
  130      C      -4.5891380467    -0.4618133017    -4.5502011532
  131      C      -4.5361362110    -0.9164748970     2.0803012893
  132      C      -2.3226633774     0.0589309148    -3.9424306089
  133      C      -7.2078537411    -0.2262648201     1.1217902100
  134      C      -7.6896105815     0.5371454030    -0.0454789012
  135      C      -2.2178093748    -1.1857121618    -3.2916624090
  136      C      -3.8785166446     3.5833820962    -2.6726694183
  137      C      -2.0385662132     2.3192193093    -2.9852455824
  138      C      -1.9402477228     2.8787665173    -1.7221345832
  139      C      -1.9164791522     2.2887931888     0.5962293932
  140      C      -7.2396645794     1.8879846941     0.0578545624
  141      C      -5.2664628728    -1.8587930551     1.4019920265
  142      C      -1.7639413778     0.9958153052     1.1870308995
  143      C      -6.7285751674    -0.1735978170    -3.4280827811
  144      C      -3.1733513330    -0.8582299405     1.8757288052
  145      C      -4.8973087108    -2.8652901477    -1.9471420119
  146      C      -5.7942849211     3.4506179080    -1.2075548901
  147      C      -0.8132736180     0.8692620116    -0.8634180939
  148      C      -6.6778245550    -2.1626565902    -0.4765151345
  149      C      -3.6319851686     3.7334381780    -0.2039386910
  150      C      -5.4660233348    -2.2138273551    -3.1140695616
  151      C      -3.1768026959    -2.6796354544     0.3451409959
  152      C      -3.9608604255     1.7343962354    -4.2731092917
  153      C      -5.3361124484     1.6682409255    -4.0675385050
  154      C      -2.6300021132    -2.7136697018    -0.9913083270
  155      C      -6.9073803153     2.6013000865    -1.1409674923
  156      C      -7.6838188409    -0.0648609467    -1.3495689329
  157      C      -5.3024611277     3.5117358908    -2.5106634613
  158      C      -6.3173916524     0.7410792481     1.7784581036
  159      C      -1.4094769170    -1.2441310649     0.2097647099
  160      C      -7.1347566585    -1.3456378735    -1.5089997443
  161      C      -3.5052941198    -2.7784226762    -2.1108198078
  162      C      -5.0234680738     3.6597887353    -0.0520930981
  163      C      -1.3588168499    -1.0597628655    -2.1973171177
  164      C      -3.0112116154     3.0662778581     0.8887160134
  165      C      -1.5805945745     0.9908663336    -3.1887335431
  166      C      -2.4392075059    -1.7664168226     1.0569373615
  167      C      -1.5931349426    -1.8237725206    -1.0312016524
  168      C      -5.0306442239     0.3779874116     2.3332818356
  169      C      -6.3764054640     1.9814667242     1.1064869144
  170      C      -3.2163074139     2.7485265327    -3.5793524516
  171      C      -1.0860756379     0.1522752471     0.2898585587
  172      C      -4.4617439059    -1.7613798395    -3.9770174594
  173      C      -6.0356905608     2.5216707958    -3.1818450359
  174      C      -3.5051693787     0.4319242388    -4.5263865467
  175      C      -5.3243427224     2.9271420934     1.0712720892
  176      C      -3.0711875521     3.6543657186    -1.5221221303
 ----------------------------------------------------------------

    9   -5804.2839465374      8.92E-06 Convergence criterion met
 Total energy in the final basis set = -5804.2839465374

                    Orbital Energies (a.u.)
 --------------------------------------------------------------

 Alpha MOs
 -- Occupied --
-19.197 -19.184 -19.130 -19.127 -10.317 -10.310 -10.247 -10.245
-10.241 -10.241 -10.241 -10.239 -10.239 -10.237 -10.234 -10.231
-10.229 -10.229 -10.228 -10.228 -10.227 -10.227 -10.226 -10.225
-10.225 -10.224 -10.224 -10.223 -10.223 -10.223 -10.221 -10.221
-10.221 -10.221 -10.220 -10.220 -10.220 -10.220 -10.220 -10.219
-10.219 -10.219 -10.219 -10.218 -10.218 -10.218 -10.218 -10.218
-10.218 -10.217 -10.217 -10.217 -10.217 -10.217 -10.217 -10.217
-10.217 -10.216 -10.216 -10.216 -10.216 -10.216 -10.216 -10.216
-10.215 -10.215 -10.215 -10.215 -10.215 -10.215 -10.215 -10.215
-10.215 -10.215 -10.215 -10.215 -10.215 -10.215 -10.214 -10.214
-10.214 -10.214 -10.214 -10.214 -10.214 -10.214 -10.214 -10.214
-10.214 -10.214 -10.214 -10.214 -10.214 -10.214 -10.213 -10.213
-10.213 -10.213 -10.213 -10.213 -10.213 -10.213 -10.213 -10.213
-10.213 -10.213 -10.213 -10.213 -10.212 -10.212 -10.212 -10.212
-10.212 -10.212 -10.211 -10.211 -10.211 -10.211 -10.211 -10.211
-10.211 -10.211 -10.210 -10.210 -10.210 -10.210 -10.210 -10.210
-10.210 -10.210 -10.209 -10.209 -10.209 -10.208 -10.208 -10.206
-10.206 -10.205 -10.205 -10.203 -10.203 -10.202 -10.202 -10.201
-10.197 -10.196 -10.194 -10.193  -1.103  -1.091  -1.014  -1.003
 -0.983  -0.983  -0.967  -0.965  -0.963  -0.962  -0.962  -0.961
 -0.937  -0.933  -0.928  -0.926  -0.925  -0.924  -0.923  -0.923
 -0.922  -0.921  -0.899  -0.896  -0.891  -0.890  -0.887  -0.885
 -0.876  -0.871  -0.857  -0.849  -0.842  -0.841  -0.838  -0.838
 -0.837  -0.837  -0.823  -0.820  -0.807  -0.806  -0.798  -0.798
 -0.797  -0.795  -0.795  -0.793  -0.791  -0.790  -0.785  -0.785
 -0.771  -0.770  -0.769  -0.768  -0.767  -0.766  -0.763  -0.762
 -0.757  -0.745  -0.742  -0.741  -0.734  -0.733  -0.717  -0.716
 -0.714  -0.713  -0.713  -0.713  -0.711  -0.711  -0.711  -0.710
 -0.709  -0.708  -0.707  -0.705  -0.705  -0.703  -0.674  -0.670
 -0.660  -0.658  -0.658  -0.655  -0.650  -0.649  -0.633  -0.631
 -0.629  -0.628  -0.627  -0.625  -0.624  -0.623  -0.619  -0.617
 -0.615  -0.615  -0.614  -0.612  -0.612  -0.611  -0.609  -0.607
 -0.606  -0.606  -0.603  -0.603  -0.571  -0.568  -0.566  -0.566
 -0.565  -0.562  -0.560  -0.559  -0.557  -0.556  -0.554  -0.552
 -0.537  -0.536  -0.534  -0.533  -0.530  -0.527  -0.527  -0.526
 -0.525  -0.523  -0.521  -0.519  -0.518  -0.517  -0.514  -0.513
 -0.508  -0.505  -0.499  -0.497  -0.491  -0.490  -0.488  -0.486
 -0.484  -0.482  -0.481  -0.481  -0.479  -0.476  -0.476  -0.475
 -0.473  -0.472  -0.470  -0.468  -0.468  -0.468  -0.467  -0.466
 -0.465  -0.465  -0.463  -0.463  -0.462  -0.460  -0.458  -0.458
 -0.458  -0.455  -0.452  -0.452  -0.450  -0.450  -0.446  -0.443
 -0.442  -0.442  -0.441  -0.439  -0.437  -0.437  -0.434  -0.432
 -0.431  -0.431  -0.430  -0.428  -0.428  -0.426  -0.426  -0.425
 -0.423  -0.423  -0.422  -0.422  -0.421  -0.420  -0.419  -0.418
 -0.417  -0.416  -0.416  -0.415  -0.415  -0.414  -0.414  -0.412
 -0.412  -0.411  -0.410  -0.407  -0.403  -0.401  -0.399  -0.397
 -0.394  -0.393  -0.392  -0.392  -0.390  -0.389  -0.387  -0.387
 -0.386  -0.377  -0.374  -0.373  -0.371  -0.370  -0.368  -0.367
 -0.366  -0.366  -0.363  -0.363  -0.362  -0.361  -0.360  -0.359
 -0.357  -0.355  -0.354  -0.354  -0.354  -0.353  -0.352  -0.351
 -0.350  -0.349  -0.349  -0.348  -0.347  -0.347  -0.346  -0.345
 -0.343  -0.342  -0.342  -0.340  -0.339  -0.337  -0.336  -0.335
 -0.334  -0.333  -0.332  -0.331  -0.329  -0.327  -0.326  -0.325
 -0.313  -0.308  -0.302  -0.290  -0.290  -0.288  -0.272  -0.271
 -0.271  -0.269  -0.268  -0.267  -0.266  -0.264  -0.263  -0.263
 -0.262  -0.262  -0.261  -0.260  -0.258  -0.257  -0.256  -0.251
 -0.250  -0.246  -0.245  -0.243  -0.224  -0.221  -0.213  -0.212
 -0.211  -0.210  -0.208  -0.206  -0.203  -0.198

          Ground-State Mulliken Net Atomic Charges

     Atom                 Charge (a.u.)
  ----------------------------------------
      1 O                    -0.460007
      2 C                    -0.099728
      3 H                     0.135645
      4 H                     0.133427
      5 H                     0.118181
      6 O                    -0.458296
      7 C                     0.577091
      8 C                    -0.263794
      9 H                     0.139171
     10 H                     0.131985
     11 C                    -0.184747
     12 H                     0.100188
     13 H                     0.119584
     14 C                    -0.183016
     15 H                     0.116244
     16 H                     0.110803
     17 C                     0.006639
     18 C                     0.099099
     19 C                    -0.112480
     20 H                     0.090183
     21 C                    -0.100519
     22 H                     0.099948
     23 C                    -0.087456
     24 H                     0.094577
     25 C                    -0.089320
     26 H                     0.091008
     27 C                    -0.105262
     28 H                     0.093321
     29 C                    -0.006599
     30 C                     0.003981
     31 C                    -0.027681
     32 C                    -0.011805
     33 C                    -0.002178
     34 C                     0.003374
     35 C                     0.030440
     36 C                     0.006555
     37 C                    -0.015039
     38 C                    -0.026517
     39 C                    -0.084413
     40 C                    -0.014971
     41 C                    -0.022526
     42 C                    -0.008516
     43 C                     0.035377
     44 C                     0.050834
     45 C                    -0.103128
     46 C                     0.014948
     47 C                    -0.037106
     48 C                     0.008006
     49 C                    -0.018877
     50 C                    -0.014214
     51 C                    -0.015890
     52 C                     0.005021
     53 C                     0.015208
     54 C                    -0.025352
     55 C                     0.003923
     56 C                     0.001827
     57 C                    -0.014033
     58 C                    -0.027643
     59 C                     0.029094
     60 C                     0.056661
     61 C                     0.018850
     62 C                    -0.007222
     63 C                    -0.003913
     64 C                    -0.038106
     65 C                     0.000031
     66 C                    -0.002310
     67 C                     0.019395
     68 C                     0.010799
     69 C                     0.019051
     70 C                     0.043554
     71 C                    -0.018551
     72 C                     0.022356
     73 C                     0.028298
     74 C                    -0.005364
     75 C                    -0.004546
     76 C                    -0.022876
     77 C                     0.011766
     78 C                    -0.007385
     79 C                     0.014902
     80 C                    -0.012445
     81 C                    -0.007705
     82 C                     0.002045
     83 C                     0.017075
     84 C                    -0.011210
     85 C                     0.009397
     86 C                    -0.003233
     87 C                    -0.002388
     88 C                     0.024304
     89 O                    -0.462057
     90 C                    -0.097044
     91 H                     0.125665
     92 H                     0.135754
     93 H                     0.122014
     94 O                    -0.455299
     95 C                     0.575305
     96 C                    -0.247003
     97 H                     0.137009
     98 H                     0.116312
     99 C                    -0.190935
    100 H                     0.120129
    101 H                     0.117647
    102 C                    -0.174399
    103 H                     0.113504
    104 H                     0.108446
    105 C                     0.009166
    106 C                     0.086805
    107 C                    -0.111861
    108 H                     0.087554
    109 C                    -0.083784
    110 H                     0.097921
    111 C                    -0.098474
    112 H                     0.088693
    113 C                    -0.079925
    114 H                     0.091502
    115 C                    -0.105033
    116 H                     0.089276
    117 C                    -0.003718
    118 C                    -0.009968
    119 C                    -0.025054
    120 C                    -0.024386
    121 C                     0.014155
    122 C                    -0.008752
    123 C                    -0.019153
    124 C                     0.009996
    125 C                     0.017565
    126 C                    -0.025475
    127 C                    -0.101894
    128 C                    -0.000531
    129 C                     0.005114
    130 C                    -0.006377
    131 C                     0.031717
    132 C                    -0.008319
    133 C                    -0.063401
    134 C                     0.014806
    135 C                    -0.002550
    136 C                    -0.005385
    137 C                    -0.000237
    138 C                     0.000686
    139 C                     0.021078
    140 C                    -0.017627
    141 C                     0.026036
    142 C                    -0.006401
    143 C                     0.016011
    144 C                     0.011281
    145 C                    -0.011721
    146 C                     0.029915
    147 C                    -0.011938
    148 C                     0.016477
    149 C                    -0.019879
    150 C                    -0.022199
    151 C                    -0.019633
    152 C                     0.008713
    153 C                     0.021277
    154 C                    -0.014959
    155 C                     0.011357
    156 C                    -0.000281
    157 C                    -0.033748
    158 C                     0.044392
    159 C                    -0.028432
    160 C                     0.027035
    161 C                     0.012749
    162 C                    -0.004529
    163 C                     0.009549
    164 C                    -0.013563
    165 C                     0.011738
    166 C                    -0.008308
    167 C                     0.019612
    168 C                    -0.031966
    169 C                     0.017685
    170 C                    -0.019967
    171 C                     0.015327
    172 C                    -0.006570
    173 C                     0.016754
    174 C                     0.005209
    175 C                     0.006263
    176 C                     0.021736
  ----------------------------------------
  Sum of atomic charges =     0.000000

                    Cartesian Multipole Moments
 -----------------------------------------------------------------
    Charge (ESU x 10^10)
                 0.0000
    Dipole Moment (Debye)
         X       0.0183      Y      -1.7931      Z       2.9148
       Tot       3.4223
    Quadrupole Moments (Debye-Ang)
        XX    -757.5343     XY     -16.1717     YY    -813.1504
        XZ     -34.9340     YZ      -6.4973     ZZ    -797.8774

 Total job time:  854.86s(wall), 7230.09s(cpu)
        *  Thank you very much for using Q-Chem.  Have a nice day.  *
