 Q-Chem 4.4, Q-Chem, Inc., Pleasanton, CA (2016)
 Q-Chem 4.4.2 for Intel X86 Linux

User input:
--------------------------------------------------------------
$comment
SP
$end

$rem
MEM_STATIC 5000
MEM_TOTAL 20000
JOBTYPE SP
EXCHANGE B3LYP
BASIS 6-31g(d,p)
$end

$molecule
0 1
O          18.732000    -10.818000     -8.901000
C          20.125000    -10.604000     -9.377000
H          20.829000    -11.239000     -8.825000
H          20.406000     -9.574000     -9.126000
H          20.143000    -10.734000    -10.466000
O          18.787000    -13.087000     -9.279000
C          18.220000    -12.071000     -8.877000
C          16.760000    -12.004000     -8.342000
H          16.201000    -11.438000     -9.097000
H          16.696000    -11.550000     -7.345000
C          16.021000    -13.367000     -8.163000
H          16.831000    -14.016000     -7.806000
H          15.322000    -13.381000     -7.318000
C          15.437000    -13.941000     -9.421000
H          14.444000    -13.510000     -9.599000
H          15.996000    -13.768000    -10.349000
C          15.187000    -15.428000     -9.179000
C          13.892000    -15.664000     -8.384000
C          12.657000    -15.584000     -9.047000
H          12.636000    -15.409000    -10.118000
C          11.497000    -15.775000     -8.317000
H          10.600000    -15.742000     -8.930000
C          11.605000    -16.179000     -7.015000
H          10.706000    -16.461000     -6.475000
C          12.834000    -16.327000     -6.340000
H          12.924000    -16.507000     -5.273000
C          13.996000    -16.042000     -7.021000
H          14.962000    -16.145000     -6.535000
C          17.292000    -20.287000     -7.712000
C          15.407000    -20.888000     -9.119000
C          17.930000    -22.340000    -12.722000
C          20.288000    -17.078000    -10.146000
C          17.548000    -19.343000    -14.340000
C          15.960000    -20.049000     -8.196000
C          20.259000    -17.626000    -12.870000
C          18.194000    -22.636000    -10.309000
C          14.623000    -18.061000    -11.925000
C          19.525000    -16.256000    -11.002000
C          15.381000    -16.445000    -10.298000
C          15.491000    -17.196000    -12.627000
C          18.175000    -16.341000    -12.790000
C          19.768000    -18.422000    -13.926000
C          14.731000    -18.773000     -9.635000
C          19.256000    -20.812000    -13.770000
C          16.292000    -16.419000     -9.120000
C          17.702000    -16.174000     -9.359000
C          17.975000    -20.614000    -14.186000
C          20.962000    -20.534000    -10.119000
C          19.989000    -21.841000    -11.675000
C          19.551000    -22.241000    -10.391000
C          17.454000    -22.171000     -9.268000
C          18.514000    -16.961000     -8.490000
C          14.637000    -17.720000    -10.565000
C          16.120000    -22.022000     -9.659000
C          19.430000    -16.595000    -12.357000
C          14.635000    -20.113000    -10.026000
C          16.316000    -17.580000    -13.653000
C          20.256000    -18.726000     -8.569000
C          17.393000    -22.683000    -11.452000
C          16.063000    -16.262000    -11.655000
C          19.354000    -20.995000     -8.372000
C          17.624000    -17.159000    -13.748000
C          14.588000    -19.381000    -12.351000
C          20.946000    -19.719000    -12.451000
C          21.048000    -18.420000    -12.010000
C          15.392000    -19.779000    -13.459000
C          19.790000    -17.424000     -8.858000
C          18.226000    -15.850000    -10.610000
C          21.005000    -19.146000     -9.670000
C          16.383000    -17.616000     -8.239000
C          15.256000    -21.581000    -11.897000
C          17.416000    -15.875000    -11.729000
C          16.226000    -18.926000    -14.093000
C          19.442000    -19.638000     -7.880000
C          17.165000    -21.488000    -13.491000
C          18.035000    -21.370000     -8.262000
C          19.240000    -21.845000    -12.830000
C          14.579000    -20.451000    -11.392000
C          15.839000    -21.063000    -13.048000
C          15.565000    -18.740000     -8.524000
C          17.728000    -17.863000     -7.830000
C          20.868000    -20.737000    -11.498000
C          16.058000    -22.325000    -11.021000
C          18.370000    -18.219000    -14.231000
C          21.088000    -18.137000    -10.618000
C          20.169000    -19.733000    -13.580000
C          18.177000    -19.218000     -7.512000
C          20.119000    -21.423000     -9.440000
O          13.432000     -9.584000     -5.572000
C          12.036000     -9.482000     -5.281000
H          11.831000     -8.625000     -4.628000
H          11.702000    -10.414000     -4.808000
H          11.474000     -9.250000     -6.194000
O          13.720000     -7.337000     -5.831000
C          14.174000     -8.454000     -5.899000
C          15.608000     -8.680000     -6.445000
H          15.909000     -7.922000     -7.179000
H          15.500000     -9.631000     -6.980000
C          16.567000     -8.873000     -5.276000
H          16.471000     -7.959000     -4.677000
H          16.343000     -9.694000     -4.584000
C          17.954000     -9.036000     -5.752000
H          18.060000     -9.757000     -6.572000
H          18.143000     -8.086000     -6.267000
C          19.074000     -9.233000     -4.712000
C          19.447000     -7.893000     -4.099000
C          18.586000     -7.424000     -3.093000
H          17.703000     -8.015000     -2.868000
C          18.833000     -6.264000     -2.431000
H          18.174000     -5.916000     -1.641000
C          20.003000     -5.547000     -2.848000
H          20.279000     -4.630000     -2.335000
C          20.767000     -5.927000     -3.875000
H          21.628000     -5.310000     -4.114000
C          20.497000     -7.109000     -4.515000
H          21.136000     -7.571000     -5.262000
C          23.933000    -11.168000     -3.303000
C          22.660000    -11.365000     -1.205000
C          22.326000    -15.829000     -1.202000
C          21.520000    -13.567000     -7.059000
C          19.056000    -15.773000     -2.510000
C          22.934000    -10.726000     -2.390000
C          20.057000    -15.678000     -5.932000
C          24.241000    -14.442000     -1.715000
C          18.730000    -11.816000     -1.908000
C          20.162000    -13.404000     -6.729000
C          19.078000    -10.498000     -3.961000
C          18.028000    -12.466000     -3.019000
C          18.537000    -13.949000     -5.376000
C          19.800000    -16.357000     -4.728000
C          20.742000    -10.515000     -2.010000
C          21.210000    -16.913000     -2.775000
C          20.221000    -10.164000     -4.847000
C          20.532000    -11.148000     -5.969000
C          20.224000    -16.373000     -1.975000
C          24.104000    -15.188000     -5.230000
C          23.560000    -16.216000     -3.233000
C          24.414000    -15.151000     -2.970000
C          24.270000    -13.067000     -1.788000
C          21.925000    -11.283000     -6.218000
C          19.433000    -10.703000     -2.506000
C          23.340000    -12.536000     -0.876000
C          19.448000    -14.448000     -6.271000
C          21.261000    -11.207000     -0.943000
C          18.064000    -13.843000     -3.002000
C          23.572000    -13.063000     -6.267000
C          23.168000    -14.770000     -0.856000
C          18.283000    -11.722000     -4.229000
C          24.768000    -13.069000     -4.162000
C          18.141000    -14.642000     -4.205000
C          19.307000    -12.625000     -0.875000
C          22.043000    -16.422000     -5.082000
C          21.431000    -15.811000     -6.177000
C          19.232000    -14.038000     -0.921000
C          22.417000    -12.509000     -6.779000
C          19.724000    -12.215000     -6.221000
C          23.496000    -14.454000     -6.278000
C          21.535000    -10.019000     -4.309000
C          21.245000    -13.485000     -0.075000
C          18.670000    -12.550000     -5.332000
C          18.563000    -14.604000     -1.988000
C          24.197000    -12.376000     -5.208000
C          20.932000    -15.728000     -0.960000
C          24.575000    -12.367000     -2.982000
C          22.491000    -16.610000     -2.355000
C          20.553000    -12.289000     -0.373000
C          20.392000    -14.592000     -0.324000
C          21.768000    -10.194000     -2.901000
C          22.522000    -10.575000     -5.172000
C          23.364000    -16.219000     -4.638000
C          22.650000    -13.584000     -0.302000
C          18.807000    -15.772000     -3.872000
C          22.169000    -14.789000     -6.764000
C          20.981000    -16.828000     -4.190000
C          23.695000    -11.130000     -4.665000
C          24.778000    -14.533000     -4.198000
$end

--------------------------------------------------------------

             Standard Nuclear Orientation (Angstroms)
    I     Atom           X                Y                Z
 ----------------------------------------------------------------
    1      O       1.8365192388     2.8621029840    -3.2439463185
    2      C       2.0414224723     1.9617976669    -4.4102593130
    3      H       2.1512768332     0.9196657991    -4.0855468411
    4      H       3.0029341538     2.2256227700    -4.8671549260
    5      H       1.2327793856     2.1376888198    -5.1301924076
    6      O       0.0140270370     1.6930819298    -2.4653694442
    7      C       0.8400208283     2.6003641603    -2.3657591483
    8      C       0.8528719102     3.6912964057    -1.2557971284
    9      H       0.5987166438     4.6274952313    -1.7674599661
   10      H       1.8147384981     3.7481006788    -0.7306238792
   11      C      -0.1781649892     3.5175570250    -0.0970441177
   12      H      -0.1792411092     2.4286225977     0.0406898827
   13      H       0.1864811670     3.8745621832     0.8737300567
   14      C      -1.5697370690     3.9838224201    -0.4120357493
   15      H      -1.6510600895     5.0615587460    -0.2239799645
   16      H      -1.9155886982     3.8451835067    -1.4439077871
   17      C      -2.5153904879     3.3324858469     0.5948074757
   18      C      -2.4979099855     4.0654353877     1.9465564920
   19      C      -3.2108992726     5.2671438654     2.0834396943
   20      H      -3.8047526534     5.6336176821     1.2520901266
   21      C      -3.1691192737     5.9303364834     3.2972811102
   22      H      -3.7917453966     6.8211089696     3.3153943343
   23      C      -2.5589220278     5.3156146518     4.3555156735
   24      H      -2.6372945349     5.7640134103     5.3414777942
   25      C      -1.8871105551     4.0794967489     4.2625002162
   26      H      -1.2810243492     3.6554005319     5.0573529760
   27      C      -1.8301273714     3.4533057862     3.0378093184
   28      H      -1.3223227474     2.4994868168     2.9267920345
   29      C      -4.3783448139    -1.3245598804     2.8385367983
   30      C      -6.2342585056     0.2168491268     3.1100467276
   31      C      -8.9678330878    -1.7440674631    -0.0739473257
   32      C      -2.9515970570    -1.4525377965    -1.9724990040
   33      C      -8.0478306612     0.5562954940    -2.4420230847
   34      C      -4.8879461394    -0.0024271601     3.0781105011
   35      C      -5.1498221820    -1.0718856315    -3.6290711362
   36      C      -7.5034208993    -2.6926797393     1.6393864690
   37      C      -6.3284446052     3.0355976922     0.1901141079
   38      C      -3.1481349211    -0.1898939071    -2.5705728095
   39      C      -3.9171844933     2.8980882504     0.1820626459
   40      C      -5.9582208243     2.9631177378    -1.1708171939
   41      C      -4.7535560187     1.2853163928    -3.0931114879
   42      C      -6.5377994362    -0.8480559928    -3.7441903554
   43      C      -5.2780443349     2.0200340394     2.0948444666
   44      C      -8.2416348901    -1.7500244557    -2.2335687490
   45      C      -2.8747024125     1.8926286655     0.5292846707
   46      C      -2.4863475791     0.9385474098    -0.4925545930
   47      C      -8.7204966811    -0.5068637257    -1.9534548713
   48      C      -5.1703381171    -3.8552408243    -0.6674521589
   49      C      -7.3757352297    -3.3950768406    -0.6432305996
   50      C      -6.9201460063    -3.5610126089     0.6854543820
   51      C      -6.6847651304    -2.0928280265     2.5435361550
   52      C      -2.2436601794    -0.3481611545     0.0725630024
   53      C      -5.1839500584     2.8820235333     0.9854908803
   54      C      -7.1954170579    -0.8389320711     2.8922732223
   55      C      -4.3094931631     0.0291796399    -3.3210558637
   56      C      -6.4998919967     1.4738020796     2.5027855624
   57      C      -6.6876488764     2.3341846754    -2.1471034839
   58      C      -3.0659619782    -2.6855016356    -0.0566237899
   59      C      -8.5080569388    -1.7959386250     1.2694935087
   60      C      -4.5079171146     2.7676057924    -1.2229538302
   61      C      -4.7618994985    -3.2165214664     1.6293737981
   62      C      -6.1078761524     1.5225735247    -3.0969881762
   63      C      -7.5432807952     2.4590119314     0.5319077471
   64      C      -6.1520842187    -2.8490391425    -2.6988156831
   65      C      -4.9241277384    -2.3415587591    -3.0550074053
   66      C      -8.3424983830     1.8591800521    -0.4849191625
   67      C      -2.4715852197    -1.5419098735    -0.6352386450
   68      C      -2.9502642191     0.9862412413    -1.8067310079
   69      C      -3.8905688123    -3.2542245240    -1.0293415524
   70      C      -3.1027831426     0.9676796047     1.6737056664
   71      C      -8.6021898835     0.6316091721     1.5476098186
   72      C      -3.9259929774     1.8963201307    -2.1653335808
   73      C      -7.9446043458     1.7915816025    -1.7741948447
   74      C      -3.4632843852    -2.6788275519     1.2891664469
   75      C      -9.0862052280    -0.4845194370    -0.6235078831
   76      C      -5.3024899691    -2.3749542060     2.5738379262
   77      C      -8.3444168784    -2.5145775746    -1.0691635826
   78      C      -7.6574594802     1.6644418301     1.7236642583
   79      C      -8.8484056131     0.7114821947     0.1815892789
   80      C      -4.2956365577     1.0967047946     2.4314511583
   81      C      -2.6457731249    -0.3518921903     1.3784310120
   82      C      -6.2522712751    -3.5584366958    -1.4999267537
   83      C      -8.3274592229    -0.6256489935     2.1025341100
   84      C      -6.9706874632     0.4660613457    -3.3266480500
   85      C      -3.7920244282    -2.5548900915    -2.2230309408
   86      C      -7.1179658267    -1.9574183081    -3.0869535542
   87      C      -3.2624916979    -1.5170111032     2.0116024900
   88      C      -5.5659413437    -3.8103707020     0.6754907883
   89      O       3.4960537832     7.0215534803     1.2991708563
   90      C       3.3885312884     8.1376444826     2.1861211299
   91      H       4.3663421494     8.6065843916     2.3500243999
   92      H       2.9617886144     7.7963201247     3.1375922922
   93      H       2.7952320897     8.9351960577     1.7222843635
   94      O       4.9718956527     8.0530385975    -0.0997441623
   95      C       4.2667930745     7.1034680023     0.1443358222
   96      C       4.1285539509     5.9511043689    -0.8844965263
   97      H       4.2516818191     6.2883420981    -1.9213336601
   98      H       3.0799297914     5.6572394224    -0.7567437759
   99      C       5.0247413329     4.7916624355    -0.4649329682
  100      H       6.0356130860     5.2157068705    -0.4232482476
  101      H       4.8502146683     4.3683451072     0.5317735498
  102      C       4.9644713799     3.6943868234    -1.4494469416
  103      H       3.9445638931     3.4183439656    -1.7445165249
  104      H       5.3373016459     4.1728507899    -2.3635124893
  105      C       5.8151633273     2.4331754122    -1.2035242163
  106      C       7.2581042695     2.7019765590    -1.5987018737
  107      C       8.0240981208     3.4103573300    -0.6580807475
  108      H       7.5249525765     3.7555940435     0.2426191676
  109      C       9.3401377808     3.6731712582    -0.8674164888
  110      H       9.9320356543     4.2047058373    -0.1280837501
  111      C       9.8764433253     3.2087276450    -2.1138299407
  112      H      10.9314572485     3.3535378253    -2.3287942019
  113      C       9.1328971200     2.6315944440    -3.0608681178
  114      H       9.6350701513     2.3214440168    -3.9723284621
  115      C       7.8099459237     2.3703822262    -2.8134973244
  116      H       7.1615486195     1.7837504959    -3.4578715549
  117      C       6.6917049246    -2.8757956993    -1.8247227078
  118      C       7.6068524003    -2.4509681825     0.4209328043
  119      C       4.3989126417    -4.5709452580     2.7130237066
  120      C       1.8795167199    -1.3082238384    -2.0909352989
  121      C       2.6990362634    -1.5793786833     3.4665817517
  122      C       7.3403516257    -2.0478580513    -0.8651859924
  123      C       0.7616393995    -1.5222574577     0.4725308909
  124      C       5.5384219545    -5.2573376232     0.6919974705
  125      C       5.7780978516     0.6593901690     2.1883709857
  126      C       1.8506417627    -0.1995756084    -1.2250840767
  127      C       5.4301084221     1.5733515896    -0.0736225772
  128      C       4.3994889864     1.1454606711     2.0752424582
  129      C       1.9344051285     0.5020396964     0.8410666106
  130      C       1.0173101975    -1.9650922293     1.7822010051
  131      C       7.1560216409    -0.2497820440     0.4488650450
  132      C       2.3000465458    -3.8714833059     2.6941799105
  133      C       5.3802701283     1.0377436686    -1.4569668219
  134      C       4.0307274908     0.5269410341    -1.9485726988
  135      C       2.9456966429    -2.9746260454     3.5203633080
  136      C       2.6481671376    -4.7062863116    -1.3751937508
  137      C       3.1095334045    -5.2928283746     0.8120050459
  138      C       4.2561316174    -5.4773515922     0.0478233133
  139      C       6.4590260788    -4.5272767023    -0.0265386095
  140      C       4.1422461889    -0.6144167066    -2.7885376312
  141      C       6.3467533988     0.8285189057     0.8698080031
  142      C       7.1876149954    -3.7073539340     0.8540804026
  143      C       1.2344062382    -0.2894183952    -0.0327426609
  144      C       7.5184408682    -1.2955407980     1.2623482546
  145      C       3.4576474846     0.3750425120     2.7210786956
  146      C       3.3040530605    -2.8899871476    -2.8397377081
  147      C       5.5931895123    -4.7687805094     2.0168017810
  148      C       4.1847482816     1.6261471449     0.7315579924
  149      C       5.0151543158    -4.3648558689    -1.9688922861
  150      C       2.1213611017     0.1722026783     2.2065559022
  151      C       6.0516110201    -0.4878752389     3.0029086647
  152      C       1.3345522588    -3.7325327255     0.3907623370
  153      C       0.8721485189    -2.6481067509    -0.3556243503
  154      C       5.0132282668    -1.1725935118     3.6790980940
  155      C       3.0439562259    -1.5353912298    -2.8621995941
  156      C       2.9022845008     0.6704993105    -1.1996638663
  157      C       2.3040073856    -3.5704758838    -2.1486358864
  158      C       6.1886745075    -0.0776588924    -1.8303627067
  159      C       6.4974611749    -2.7094240570     2.9657268372
  160      C       2.9771249263     1.1327514152     0.1398076349
  161      C       3.7313325243    -0.6787957650     3.5401265483
  162      C       4.6535142258    -3.2814487129    -2.7408063873
  163      C       4.2587123724    -3.4453079326     3.5646606574
  164      C       6.2374599852    -4.1144750587    -1.3641350618
  165      C       3.1318300486    -4.8473832512     2.1794707682
  166      C       6.9515485278    -1.4373356884     2.5489776819
  167      C       5.3310546042    -2.5515396030     3.7592173608
  168      C       7.0626067282    -0.6963671691    -0.8707687603
  169      C       5.4903041756    -0.9688466647    -2.6941550627
  170      C       2.1230025547    -4.8001066948    -0.0804254716
  171      C       6.6519427522    -3.8464846355     2.1180336832
  172      C       1.7297125330    -1.0518463188     2.6304196203
  173      C       1.3938055374    -2.5586783869    -1.6415378477
  174      C       1.3596131388    -3.3025264685     1.7701863368
  175      C       5.7511798137    -2.3373666948    -2.6841636440
  176      C       3.9703956786    -5.1481291117    -1.3058278721
 ----------------------------------------------------------------

   10   -5804.2249825100      3.04E-06 Convergence criterion met
 Total energy in the final basis set = -5804.2249825100

                    Orbital Energies (a.u.)
 --------------------------------------------------------------

 Alpha MOs
 -- Occupied --
-19.207 -19.192 -19.148 -19.140 -10.330 -10.323 -10.258 -10.248
-10.244 -10.240 -10.239 -10.234 -10.234 -10.233 -10.233 -10.231
-10.229 -10.228 -10.228 -10.227 -10.226 -10.226 -10.224 -10.223
-10.223 -10.221 -10.221 -10.221 -10.221 -10.220 -10.220 -10.219
-10.219 -10.219 -10.219 -10.218 -10.218 -10.218 -10.218 -10.217
-10.217 -10.217 -10.217 -10.217 -10.216 -10.216 -10.216 -10.216
-10.216 -10.216 -10.215 -10.215 -10.215 -10.215 -10.215 -10.215
-10.215 -10.214 -10.214 -10.214 -10.214 -10.214 -10.214 -10.214
-10.214 -10.214 -10.214 -10.214 -10.213 -10.213 -10.213 -10.212
-10.212 -10.212 -10.212 -10.212 -10.212 -10.212 -10.212 -10.212
-10.211 -10.211 -10.211 -10.211 -10.211 -10.211 -10.211 -10.211
-10.210 -10.210 -10.209 -10.209 -10.209 -10.209 -10.209 -10.209
-10.209 -10.209 -10.209 -10.208 -10.208 -10.208 -10.207 -10.207
-10.207 -10.207 -10.207 -10.207 -10.207 -10.207 -10.206 -10.206
-10.206 -10.206 -10.206 -10.206 -10.206 -10.206 -10.206 -10.205
-10.205 -10.205 -10.204 -10.204 -10.203 -10.203 -10.203 -10.202
-10.202 -10.202 -10.201 -10.201 -10.201 -10.200 -10.200 -10.200
-10.200 -10.198 -10.198 -10.198 -10.197 -10.197 -10.197 -10.197
-10.195 -10.194 -10.194 -10.193  -1.098  -1.092  -1.016  -1.015
 -0.987  -0.980  -0.971  -0.968  -0.963  -0.963  -0.960  -0.956
 -0.943  -0.934  -0.933  -0.927  -0.925  -0.924  -0.923  -0.922
 -0.919  -0.916  -0.904  -0.896  -0.893  -0.888  -0.884  -0.881
 -0.879  -0.874  -0.865  -0.858  -0.843  -0.841  -0.838  -0.837
 -0.835  -0.830  -0.829  -0.819  -0.816  -0.805  -0.800  -0.797
 -0.795  -0.794  -0.793  -0.792  -0.789  -0.789  -0.786  -0.781
 -0.772  -0.771  -0.768  -0.766  -0.766  -0.765  -0.762  -0.761
 -0.760  -0.760  -0.747  -0.746  -0.737  -0.732  -0.719  -0.716
 -0.714  -0.713  -0.713  -0.711  -0.711  -0.710  -0.710  -0.708
 -0.708  -0.706  -0.706  -0.704  -0.701  -0.697  -0.676  -0.671
 -0.660  -0.658  -0.656  -0.650  -0.650  -0.644  -0.637  -0.629
 -0.628  -0.628  -0.625  -0.624  -0.623  -0.622  -0.619  -0.617
 -0.614  -0.614  -0.612  -0.611  -0.609  -0.608  -0.607  -0.607
 -0.606  -0.604  -0.603  -0.597  -0.573  -0.568  -0.565  -0.565
 -0.564  -0.561  -0.559  -0.558  -0.556  -0.555  -0.552  -0.549
 -0.545  -0.539  -0.535  -0.529  -0.527  -0.525  -0.523  -0.523
 -0.521  -0.520  -0.520  -0.517  -0.516  -0.515  -0.513  -0.511
 -0.508  -0.506  -0.505  -0.500  -0.498  -0.493  -0.489  -0.487
 -0.485  -0.484  -0.482  -0.481  -0.480  -0.478  -0.477  -0.476
 -0.475  -0.472  -0.471  -0.470  -0.469  -0.468  -0.467  -0.466
 -0.465  -0.465  -0.463  -0.462  -0.461  -0.461  -0.460  -0.457
 -0.457  -0.456  -0.455  -0.453  -0.451  -0.449  -0.448  -0.446
 -0.444  -0.442  -0.441  -0.440  -0.438  -0.437  -0.436  -0.435
 -0.433  -0.433  -0.431  -0.430  -0.429  -0.426  -0.426  -0.425
 -0.424  -0.424  -0.423  -0.420  -0.419  -0.418  -0.418  -0.417
 -0.416  -0.415  -0.414  -0.414  -0.413  -0.412  -0.411  -0.411
 -0.409  -0.409  -0.408  -0.405  -0.404  -0.401  -0.399  -0.398
 -0.396  -0.395  -0.393  -0.390  -0.389  -0.387  -0.386  -0.385
 -0.380  -0.378  -0.375  -0.374  -0.374  -0.372  -0.369  -0.368
 -0.367  -0.366  -0.365  -0.363  -0.362  -0.361  -0.360  -0.359
 -0.358  -0.357  -0.356  -0.355  -0.354  -0.354  -0.352  -0.352
 -0.351  -0.349  -0.348  -0.348  -0.347  -0.345  -0.344  -0.343
 -0.343  -0.341  -0.339  -0.336  -0.336  -0.334  -0.334  -0.331
 -0.331  -0.329  -0.328  -0.327  -0.326  -0.325  -0.320  -0.318
 -0.317  -0.312  -0.311  -0.299  -0.288  -0.283  -0.280  -0.272
 -0.271  -0.269  -0.268  -0.267  -0.267  -0.266  -0.265  -0.263
 -0.262  -0.261  -0.259  -0.258  -0.257  -0.254  -0.254  -0.252
 -0.251  -0.246  -0.246  -0.236  -0.221  -0.218  -0.213  -0.211
 -0.207  -0.205  -0.204  -0.202  -0.197  -0.196

          Ground-State Mulliken Net Atomic Charges

     Atom                 Charge (a.u.)
  ----------------------------------------
      1 O                    -0.472438
      2 C                    -0.094468
      3 H                     0.145403
      4 H                     0.127924
      5 H                     0.137407
      6 O                    -0.482522
      7 C                     0.622488
      8 C                    -0.275169
      9 H                     0.130675
     10 H                     0.138803
     11 C                    -0.192208
     12 H                     0.122852
     13 H                     0.113286
     14 C                    -0.178570
     15 H                     0.107491
     16 H                     0.114219
     17 C                     0.013484
     18 C                     0.073235
     19 C                    -0.100295
     20 H                     0.094547
     21 C                    -0.077782
     22 H                     0.093447
     23 C                    -0.095689
     24 H                     0.085760
     25 C                    -0.089830
     26 H                     0.094033
     27 C                    -0.100091
     28 H                     0.099824
     29 C                    -0.028525
     30 C                    -0.009466
     31 C                    -0.034348
     32 C                    -0.013348
     33 C                     0.025441
     34 C                     0.005293
     35 C                     0.009617
     36 C                    -0.003199
     37 C                     0.004470
     38 C                    -0.018925
     39 C                    -0.100837
     40 C                     0.009180
     41 C                     0.000388
     42 C                    -0.069571
     43 C                     0.021845
     44 C                     0.013359
     45 C                    -0.061478
     46 C                     0.066187
     47 C                    -0.001285
     48 C                    -0.025227
     49 C                     0.001982
     50 C                    -0.012487
     51 C                     0.010151
     52 C                    -0.001104
     53 C                     0.035113
     54 C                    -0.004386
     55 C                     0.021864
     56 C                    -0.014393
     57 C                    -0.006401
     58 C                     0.012365
     59 C                     0.009029
     60 C                    -0.000979
     61 C                     0.005745
     62 C                     0.008849
     63 C                    -0.009366
     64 C                     0.037756
     65 C                    -0.012443
     66 C                     0.009030
     67 C                    -0.006058
     68 C                     0.026014
     69 C                    -0.007411
     70 C                    -0.012454
     71 C                    -0.028928
     72 C                    -0.016265
     73 C                    -0.024568
     74 C                    -0.027496
     75 C                    -0.005249
     76 C                     0.011358
     77 C                     0.001480
     78 C                    -0.003166
     79 C                     0.023719
     80 C                     0.011877
     81 C                     0.002724
     82 C                    -0.003326
     83 C                    -0.005150
     84 C                     0.006347
     85 C                    -0.002661
     86 C                    -0.003376
     87 C                     0.015008
     88 C                     0.019265
     89 O                    -0.478424
     90 C                    -0.083058
     91 H                     0.131777
     92 H                     0.126617
     93 H                     0.122711
     94 O                    -0.451452
     95 C                     0.568831
     96 C                    -0.238436
     97 H                     0.138067
     98 H                     0.123688
     99 C                    -0.192983
    100 H                     0.124613
    101 H                     0.114989
    102 C                    -0.194341
    103 H                     0.124212
    104 H                     0.109163
    105 C                     0.010612
    106 C                     0.093831
    107 C                    -0.100875
    108 H                     0.087827
    109 C                    -0.088545
    110 H                     0.097004
    111 C                    -0.091108
    112 H                     0.083039
    113 C                    -0.072401
    114 H                     0.093093
    115 C                    -0.112924
    116 H                     0.084744
    117 C                    -0.018810
    118 C                    -0.001721
    119 C                     0.011261
    120 C                    -0.012488
    121 C                    -0.000163
    122 C                     0.004668
    123 C                    -0.014411
    124 C                    -0.025951
    125 C                    -0.027137
    126 C                     0.063178
    127 C                    -0.046999
    128 C                    -0.029710
    129 C                    -0.023988
    130 C                    -0.000609
    131 C                     0.011323
    132 C                    -0.019696
    133 C                    -0.091998
    134 C                     0.011982
    135 C                     0.022501
    136 C                    -0.003824
    137 C                     0.004941
    138 C                     0.011100
    139 C                     0.021507
    140 C                     0.009104
    141 C                     0.036070
    142 C                    -0.004997
    143 C                     0.035535
    144 C                    -0.013084
    145 C                     0.030309
    146 C                     0.004840
    147 C                    -0.003160
    148 C                    -0.001720
    149 C                    -0.013873
    150 C                    -0.044729
    151 C                     0.013127
    152 C                     0.019853
    153 C                     0.007811
    154 C                    -0.008316
    155 C                    -0.016376
    156 C                    -0.023380
    157 C                     0.011182
    158 C                     0.029125
    159 C                     0.001896
    160 C                     0.004411
    161 C                     0.021850
    162 C                     0.011768
    163 C                    -0.007552
    164 C                     0.009439
    165 C                     0.005241
    166 C                    -0.005157
    167 C                    -0.024719
    168 C                     0.005001
    169 C                    -0.019451
    170 C                    -0.017966
    171 C                     0.003243
    172 C                     0.010224
    173 C                    -0.022936
    174 C                     0.000227
    175 C                    -0.010405
    176 C                    -0.015059
  ----------------------------------------
  Sum of atomic charges =     0.000000

                    Cartesian Multipole Moments
 -----------------------------------------------------------------
    Charge (ESU x 10^10)
                 0.0000
    Dipole Moment (Debye)
         X       3.4688      Y       4.4838      Z      -0.3513
       Tot       5.6798
    Quadrupole Moments (Debye-Ang)
        XX    -821.7068     XY      -7.4680     YY    -806.4053
        XZ     -11.0768     YZ       7.7340     ZZ    -791.2738

 Total job time:  941.68s(wall), 8022.86s(cpu)
        *  Thank you very much for using Q-Chem.  Have a nice day.  *
