 Q-Chem 4.4, Q-Chem, Inc., Pleasanton, CA (2016)
 Q-Chem 4.4.2 for Intel X86 Linux

User input:
--------------------------------------------------------------
$comment
SP
$end

$rem
MEM_STATIC 5000
MEM_TOTAL 20000
JOBTYPE SP
EXCHANGE B3LYP
BASIS 6-31g(d,p)
$end

$molecule
0 1
O          29.435000     -6.540000     -0.391000
C          30.048000     -7.343000      0.630000
H          30.142000     -8.353000      0.211000
H          29.473000     -7.337000      1.564000
H          31.066000     -7.013000      0.875000
O          29.218000     -4.593000      0.834000
C          29.141000     -5.232000     -0.181000
C          28.658000     -4.659000     -1.551000
H          28.797000     -3.575000     -1.447000
H          27.628000     -5.021000     -1.658000
C          29.562000     -5.060000     -2.782000
H          30.323000     -4.294000     -2.587000
H          29.970000     -6.075000     -2.707000
C          28.688000     -4.917000     -4.034000
H          27.979000     -5.736000     -3.860000
H          28.041000     -4.037000     -3.925000
C          29.409000     -5.164000     -5.388000
C          30.667000     -4.414000     -5.542000
C          31.868000     -5.113000     -5.385000
H          32.023000     -6.166000     -5.169000
C          33.047000     -4.341000     -5.566000
H          34.024000     -4.791000     -5.418000
C          33.026000     -2.979000     -5.790000
H          34.029000     -2.581000     -5.908000
C          31.812000     -2.250000     -5.857000
H          31.735000     -1.204000     -6.139000
C          30.631000     -3.000000     -5.669000
H          29.728000     -2.425000     -5.482000
C          28.351000     -4.896000    -10.782000
C          30.083000     -6.633000    -10.748000
C          27.271000    -10.055000    -11.616000
C          24.338000     -5.884000     -7.574000
C          26.908000    -10.950000     -8.306000
C          29.485000     -5.465000    -10.198000
C          24.246000     -8.776000     -7.520000
C          27.377000     -7.847000    -12.542000
C          29.864000     -8.532000     -7.196000
C          24.976000     -6.664000     -6.587000
C          29.191000     -6.442000     -6.181000
C          28.810000     -8.761000     -6.328000
C          26.094000     -8.575000     -5.940000
C          24.819000     -9.923000     -8.021000
C          30.331000     -6.571000     -8.460000
C          25.457000    -10.543000    -10.255000
C          28.457000     -5.277000     -6.636000
C          26.930000     -5.249000     -6.537000
C          26.643000    -11.037000     -9.700000
C          24.329000     -6.808000    -11.113000
C          25.289000     -8.752000    -11.814000
C          25.995000     -7.684000    -12.322000
C          28.237000     -6.838000    -12.302000
C          26.407000     -4.587000     -7.661000
C          30.094000     -7.144000     -7.142000
C          29.449000     -7.328000    -11.825000
C          24.894000     -8.056000     -6.553000
C          30.596000     -7.318000     -9.622000
C          27.942000     -9.863000     -6.640000
C          25.015000     -4.996000     -9.559000
C          28.001000     -8.997000    -12.130000
C          28.341000     -7.567000     -5.753000
C          26.314000     -5.459000    -11.607000
C          26.614000     -9.780000     -6.374000
C          30.097000     -9.288000     -8.379000
C          23.899000     -8.821000     -9.788000
C          23.694000     -8.084000     -8.603000
C          29.287000    -10.362000     -8.619000
C          25.191000     -4.914000     -8.192000
C          26.203000     -6.306000     -5.965000
C          24.229000     -6.098000     -9.901000
C          28.730000     -4.743000     -7.953000
C          29.845000     -9.434000    -10.625000
C          26.888000     -7.485000     -5.641000
C          28.128000    -10.599000     -7.814000
C          26.078000     -4.617000    -10.487000
C          27.760000    -10.734000    -10.497000
C          27.738000     -5.607000    -11.793000
C          25.903000     -9.923000    -11.402000
C          30.438000     -8.727000     -9.576000
C          29.065000    -10.437000    -10.029000
C          29.673000     -5.381000     -8.787000
C          27.525000     -4.307000     -8.523000
C          24.201000     -8.216000    -11.070000
C          29.294000     -8.755000    -11.710000
C          25.944000    -10.434000     -7.411000
C          23.833000     -6.652000     -8.654000
C          24.501000    -10.025000     -9.405000
C          27.359000     -4.339000     -9.948000
C          25.420000     -6.484000    -11.983000
O          13.432000     -9.584000     -5.572000
C          12.036000     -9.482000     -5.281000
H          11.831000     -8.625000     -4.628000
H          11.702000    -10.414000     -4.808000
H          11.474000     -9.250000     -6.194000
O          13.720000     -7.337000     -5.831000
C          14.174000     -8.454000     -5.899000
C          15.608000     -8.680000     -6.445000
H          15.909000     -7.922000     -7.179000
H          15.500000     -9.631000     -6.980000
C          16.567000     -8.873000     -5.276000
H          16.471000     -7.959000     -4.677000
H          16.343000     -9.694000     -4.584000
C          17.954000     -9.036000     -5.752000
H          18.060000     -9.757000     -6.572000
H          18.143000     -8.086000     -6.267000
C          19.074000     -9.233000     -4.712000
C          19.447000     -7.893000     -4.099000
C          18.586000     -7.424000     -3.093000
H          17.703000     -8.015000     -2.868000
C          18.833000     -6.264000     -2.431000
H          18.174000     -5.916000     -1.641000
C          20.003000     -5.547000     -2.848000
H          20.279000     -4.630000     -2.335000
C          20.767000     -5.927000     -3.875000
H          21.628000     -5.310000     -4.114000
C          20.497000     -7.109000     -4.515000
H          21.136000     -7.571000     -5.262000
C          23.933000    -11.168000     -3.303000
C          22.660000    -11.365000     -1.205000
C          22.326000    -15.829000     -1.202000
C          21.520000    -13.567000     -7.059000
C          19.056000    -15.773000     -2.510000
C          22.934000    -10.726000     -2.390000
C          20.057000    -15.678000     -5.932000
C          24.241000    -14.442000     -1.715000
C          18.730000    -11.816000     -1.908000
C          20.162000    -13.404000     -6.729000
C          19.078000    -10.498000     -3.961000
C          18.028000    -12.466000     -3.019000
C          18.537000    -13.949000     -5.376000
C          19.800000    -16.357000     -4.728000
C          20.742000    -10.515000     -2.010000
C          21.210000    -16.913000     -2.775000
C          20.221000    -10.164000     -4.847000
C          20.532000    -11.148000     -5.969000
C          20.224000    -16.373000     -1.975000
C          24.104000    -15.188000     -5.230000
C          23.560000    -16.216000     -3.233000
C          24.414000    -15.151000     -2.970000
C          24.270000    -13.067000     -1.788000
C          21.925000    -11.283000     -6.218000
C          19.433000    -10.703000     -2.506000
C          23.340000    -12.536000     -0.876000
C          19.448000    -14.448000     -6.271000
C          21.261000    -11.207000     -0.943000
C          18.064000    -13.843000     -3.002000
C          23.572000    -13.063000     -6.267000
C          23.168000    -14.770000     -0.856000
C          18.283000    -11.722000     -4.229000
C          24.768000    -13.069000     -4.162000
C          18.141000    -14.642000     -4.205000
C          19.307000    -12.625000     -0.875000
C          22.043000    -16.422000     -5.082000
C          21.431000    -15.811000     -6.177000
C          19.232000    -14.038000     -0.921000
C          22.417000    -12.509000     -6.779000
C          19.724000    -12.215000     -6.221000
C          23.496000    -14.454000     -6.278000
C          21.535000    -10.019000     -4.309000
C          21.245000    -13.485000     -0.075000
C          18.670000    -12.550000     -5.332000
C          18.563000    -14.604000     -1.988000
C          24.197000    -12.376000     -5.208000
C          20.932000    -15.728000     -0.960000
C          24.575000    -12.367000     -2.982000
C          22.491000    -16.610000     -2.355000
C          20.553000    -12.289000     -0.373000
C          20.392000    -14.592000     -0.324000
C          21.768000    -10.194000     -2.901000
C          22.522000    -10.575000     -5.172000
C          23.364000    -16.219000     -4.638000
C          22.650000    -13.584000     -0.302000
C          18.807000    -15.772000     -3.872000
C          22.169000    -14.789000     -6.764000
C          20.981000    -16.828000     -4.190000
C          23.695000    -11.130000     -4.665000
C          24.778000    -14.533000     -4.198000
$end

--------------------------------------------------------------

             Standard Nuclear Orientation (Angstroms)
    I     Atom           X                Y                Z
 ----------------------------------------------------------------
    1      O       3.8128631769     6.6261011117    -2.9559992867
    2      C       3.4914285192     7.9558980444    -2.5185762893
    3      H       3.1710994827     7.8659670471    -1.4727279619
    4      H       2.7230213272     8.4247383674    -3.1452788813
    5      H       4.3619421395     8.6248177672    -2.5197768391
    6      O       4.2551652408     7.1254783118    -5.1681281926
    7      C       4.2133965467     6.3773427475    -4.2284348630
    8      C       4.6349448121     4.8745089696    -4.2764525243
    9      H       5.2850930507     4.8112425257    -5.1587776486
   10      H       3.6892316748     4.3198776714    -4.3139196434
   11      C       5.5492975747     4.4138164311    -3.0743296476
   12      H       6.4738959722     4.8172420598    -3.5059169105
   13      H       5.2921373809     4.8978365427    -2.1246417167
   14      C       5.3990238176     2.8914559046    -2.9663239753
   15      H       4.3552603525     2.8310714207    -2.6337137785
   16      H       5.3354899173     2.4617419951    -3.9743911355
   17      C       6.2990640740     2.2015612345    -1.9041851515
   18      C       7.7197624119     2.5806479104    -1.9859746665
   19      C       8.2108123869     3.4837242887    -1.0378322842
   20      H       7.6893846688     3.9592985026    -0.2123431553
   21      C       9.5922750389     3.7945451937    -1.1550385392
   22      H      10.0480726453     4.5216378309    -0.4898183961
   23      C      10.3847274308     3.3193463321    -2.1806438476
   24      H      11.4086835579     3.6665212483    -2.0841014873
   25      C       9.8679034815     2.4776674315    -3.1975979438
   26      H      10.4687620244     1.9899162896    -3.9595932423
   27      C       8.4942077961     2.1670730707    -3.1022233838
   28      H       8.0434575914     1.7299956461    -3.9892355471
   29      C       7.5412842691    -2.8654150720    -0.1523106995
   30      C       7.9272834579    -1.5726766125     1.8965867849
   31      C       4.2462630418    -3.0640118861     4.0406156554
   32      C       2.7992859742    -2.1176974118    -2.2322019158
   33      C       2.3166766047    -0.3360674851     3.1897869260
   34      C       7.8993666226    -1.6713068402     0.4774952697
   35      C       1.1611957439    -1.5287337741     0.0796861071
   36      C       5.8376321932    -4.2259875504     2.6763089525
   37      C       5.4848637646     1.6365133060     1.8156416851
   38      C       2.5213744941    -0.8075906789    -1.7894846725
   39      C       5.7284397531     1.6938240851    -0.5903176272
   40      C       4.2467176219     1.8476625285     1.2332405045
   41      C       2.1263510452     0.7051741964    -0.0936212031
   42      C       1.1638363488    -1.4070353419     1.4508613399
   43      C       7.3404748691     0.4352695330     0.9352856057
   44      C       2.1121255766    -2.7911725909     3.1733919249
   45      C       5.9504986171     0.6940406185    -1.6170254146
   46      C       4.7595667858    -0.0310482478    -2.2480892062
   47      C       2.5605052974    -1.6091129260     3.7736815004
   48      C       3.5507953686    -4.8572939355     0.0717560954
   49      C       3.4942699669    -4.5344924261     2.3266931376
   50      C       4.7873190226    -4.8026841771     1.9352581822
   51      C       6.9523136211    -3.7832322491     2.0625222977
   52      C       5.1109891698    -1.3698401292    -2.4915796710
   53      C       6.3852600987     1.5173825914     0.7397911777
   54      C       7.4503904731    -2.6528012023     2.7033171930
   55      C       1.7011592732    -0.5372779653    -0.6941664411
   56      C       7.5551705297    -0.2327657134     2.1543478202
   57      C       3.1016029117     1.3602746367     1.9518066763
   58      C       4.4967190215    -3.5846396738    -1.8399017121
   59      C       5.5544851320    -3.3225203896     3.6688787642
   60      C       4.3227835146     1.8320425233    -0.1703947742
   61      C       5.9700468943    -4.5004607051    -0.0830150289
   62      C       2.0335740543     0.8663117448     1.2761262628
   63      C       5.6776397689     0.9361812802     3.0394416957
   64      C       1.6741136471    -3.5755789817     0.9816827372
   65      C       1.4919262875    -2.8550105797    -0.2170699246
   66      C       4.5664950850     0.5329783424     3.7249786257
   67      C       4.1915306173    -2.3795738939    -2.4407889761
   68      C       3.4336430410     0.2767537321    -1.9014681390
   69      C       3.4251028090    -4.0537940731    -1.0778670392
   70      C       6.9120820019    -0.3603667887    -1.3766997738
   71      C       6.2015343172    -1.0219467878     4.0496916508
   72      C       3.2129024746     1.1454546667    -0.8240293757
   73      C       3.2658619032     0.6386219251     3.1378945093
   74      C       5.8433242821    -3.8713811380    -1.3507927214
   75      C       3.8614386221    -1.7437062558     4.2876504880
   76      C       7.0485567807    -3.8767085236     0.6463858493
   77      C       3.1922113817    -3.6319686429     3.3327708840
   78      C       6.6633290612     0.0110719106     3.2302302525
   79      C       4.8553856765    -0.7331862934     4.3219529478
   80      C       7.5888702766    -0.4239985359    -0.1398660614
   81      C       6.4233907363    -1.5529041628    -1.9299234702
   82      C       2.6835549026    -4.6004003251     1.1592286914
   83      C       6.5267794041    -2.3466876118     3.7648331198
   84      C       1.5368654702    -0.2080507210     2.0184273302
   85      C       2.3832840502    -3.1176611622    -1.3166343885
   86      C       1.3554536821    -2.6965511258     2.0230639619
   87      C       6.7835551572    -2.8108935036    -1.3408993549
   88      C       4.8688850491    -5.0701502494     0.5908791867
   89      O      -8.2531196603    -5.4272187002    -4.1110948167
   90      C      -9.3719687521    -5.9400946598    -4.8384433988
   91      H      -9.3015285315    -5.6836985795    -5.9024839174
   92      H     -10.2945668504    -5.5335182948    -4.4055260759
   93      H      -9.3553935934    -7.0368892334    -4.8364615868
   94      O      -6.7374959820    -5.9505674319    -5.7322132487
   95      C      -6.9633616465    -5.5396702250    -4.6192994214
   96      C      -5.7914729810    -5.1921500162    -3.6645980753
   97      H      -4.8949227540    -5.7960448438    -3.8528259365
   98      H      -6.1940265434    -5.4960007886    -2.6909886375
   99      C      -5.5734043051    -3.6835292947    -3.6638422345
  100      H      -5.3697456116    -3.4262448698    -4.7106186487
  101      H      -6.4297720669    -3.0610300451    -3.3771194752
  102      C      -4.4286094065    -3.3157378329    -2.8088053460
  103      H      -4.4430102823    -3.7899327359    -1.8196598517
  104      H      -3.5926845384    -3.8367820062    -3.2917013848
  105      C      -4.0435533069    -1.8284179724    -2.6887202395
  106      C      -3.2571459568    -1.4007944301    -3.9172150851
  107      C      -4.0224480071    -1.1173894561    -5.0605927098
  108      H      -5.0956143406    -1.2736445764    -5.0014880749
  109      C      -3.4463801520    -0.6785003738    -6.2096685123
  110      H      -4.0450946032    -0.4427968889    -7.0845798639
  111      C      -2.0177004416    -0.5561338887    -6.1817628070
  112      H      -1.4967424908    -0.1753516474    -7.0557431834
  113      C      -1.2716876863    -0.9260200612    -5.1379840046
  114      H      -0.1965123001    -0.7982031654    -5.2203959580
  115      C      -1.8849606307    -1.3542899381    -3.9890256902
  116      H      -1.3778452507    -1.5415961588    -3.0469405714
  117      C      -1.8527334538     2.2816393586     0.0766231582
  118      C      -3.6772049511     3.3876592710    -1.1517764953
  119      C      -6.3244718305     4.1296408523     2.3809706514
  120      C      -3.6574574046    -1.5962902401     2.7950674725
  121      C      -8.3386950302     1.3217546703     1.6986363561
  122      C      -2.7053763073     2.4213298533    -1.0549336145
  123      C      -6.3085800518    -1.0000697605     3.4899695152
  124      C      -3.9318210733     4.4262618681     2.1774974910
  125      C      -6.6831836136     0.8372915070    -1.9278090650
  126      C      -4.7283181756    -2.0695039331     2.0147092151
  127      C      -4.9837125488    -0.9465638565    -1.9797238234
  128      C      -7.1760844977    -0.3158246283    -1.1682059469
  129      C      -6.7452208311    -1.6924343465     1.2675939596
  130      C      -7.2955179352    -0.0009251909     3.4238654809
  131      C      -4.4077336349     1.5420293607    -2.2049749935
  132      C      -7.2035982522     2.4665063255     3.5454281561
  133      C      -3.6147308116    -1.1474076111    -1.4425536554
  134      C      -3.5058209501    -1.7096925009    -0.0298132883
  135      C      -7.9537896237     2.4995657684     2.3878807578
  136      C      -3.1916531424     1.6028650777     4.2777574745
  137      C      -4.8663123520     3.1781903338     4.0440998845
  138      C      -3.7343923801     3.6253269792     3.3721356014
  139      C      -3.1475374818     4.0994007720     1.0935897126
  140      C      -2.4218128591    -1.1569244482     0.7050669322
  141      C      -5.3364727447     0.4839391525    -2.3178013076
  142      C      -3.8992665322     4.2562290126    -0.0849319620
  143      C      -5.9969467832    -1.8517415500     2.4054226656
  144      C      -4.7581023251     2.8377719127    -1.9134153600
  145      C      -7.8917692105    -0.0007227611    -0.0340894603
  146      C      -2.0946229014     0.0314478873     2.7941164586
  147      C      -5.2343554132     4.6402925769     1.6731274393
  148      C      -6.1537535095    -1.3342956595    -1.1534713201
  149      C      -1.9261363211     2.3994945304     2.3193066351
  150      C      -7.8345514630    -0.7906158217     1.1760072640
  151      C      -7.0396838579     2.1593456234    -1.5040408629
  152      C      -5.4850905387     0.8966987092     4.4617546735
  153      C      -5.2394862601    -0.4543749132     4.2144317973
  154      C      -7.8374479449     2.3715315084    -0.3538845207
  155      C      -2.5023335290    -1.1111120727     2.1372954922
  156      C      -4.6074350441    -2.1231959204     0.6559842837
  157      C      -2.8937678529     0.2675208997     3.9105459814
  158      C      -2.7200526567    -0.0431788975    -1.3110433999
  159      C      -6.2974033402     4.0133864308    -0.4330617234
  160      C      -5.9097713361    -1.8729738102     0.1512357540
  161      C      -8.2756502691     1.2548727283     0.3298244027
  162      C      -1.6225405672     1.0936167740     1.9984968725
  163      C      -7.4249722216     3.5775312553     1.6766448163
  164      C      -2.1160914847     3.1293994270     1.1558596541
  165      C      -6.2078448706     3.4235434148     3.5869638359
  166      C      -6.0821345459     3.1590126991    -1.5384073131
  167      C      -7.4560013497     3.5869488179     0.2675527318
  168      C      -3.1336547459     1.2783330550    -1.6982351755
  169      C      -1.9553533113    -0.1244908802    -0.1124203263
  170      C      -4.5207060094     1.9150443813     4.5895066672
  171      C      -5.1927089667     4.5832516859     0.2671232038
  172      C      -8.0468121992     0.0655123382     2.2023283413
  173      C      -3.9185561648    -0.7616278872     3.9071269107
  174      C      -6.8326379262     1.1597513358     4.0109073002
  175      C      -1.5326056512     1.0235864292     0.5540674136
  176      C      -2.6895715681     2.6749898471     3.5383066163
 ----------------------------------------------------------------

    9   -5804.2071406767      8.23E-06 Convergence criterion met
 Total energy in the final basis set = -5804.2071406767

                    Orbital Energies (a.u.)
 --------------------------------------------------------------

 Alpha MOs
 -- Occupied --
-19.197 -19.189 -19.142 -19.136 -10.320 -10.319 -10.250 -10.245
-10.243 -10.242 -10.241 -10.238 -10.237 -10.236 -10.236 -10.232
-10.231 -10.231 -10.229 -10.228 -10.227 -10.226 -10.226 -10.225
-10.224 -10.224 -10.223 -10.223 -10.222 -10.222 -10.222 -10.221
-10.221 -10.221 -10.220 -10.220 -10.220 -10.220 -10.220 -10.220
-10.220 -10.220 -10.219 -10.219 -10.219 -10.219 -10.219 -10.218
-10.218 -10.218 -10.218 -10.217 -10.217 -10.217 -10.217 -10.217
-10.216 -10.216 -10.216 -10.216 -10.216 -10.216 -10.216 -10.215
-10.215 -10.215 -10.215 -10.215 -10.215 -10.215 -10.215 -10.214
-10.214 -10.214 -10.214 -10.214 -10.214 -10.214 -10.214 -10.214
-10.214 -10.213 -10.213 -10.213 -10.213 -10.213 -10.213 -10.213
-10.213 -10.213 -10.213 -10.212 -10.212 -10.212 -10.212 -10.212
-10.212 -10.212 -10.212 -10.212 -10.211 -10.211 -10.211 -10.211
-10.211 -10.211 -10.211 -10.210 -10.210 -10.210 -10.210 -10.210
-10.210 -10.209 -10.209 -10.209 -10.209 -10.209 -10.209 -10.209
-10.208 -10.208 -10.208 -10.207 -10.207 -10.207 -10.207 -10.207
-10.206 -10.206 -10.205 -10.205 -10.205 -10.205 -10.204 -10.203
-10.202 -10.202 -10.202 -10.200 -10.198 -10.197 -10.197 -10.196
-10.194 -10.192 -10.192 -10.190  -1.099  -1.089  -1.024  -1.012
 -0.986  -0.985  -0.970  -0.969  -0.967  -0.965  -0.961  -0.961
 -0.941  -0.939  -0.931  -0.928  -0.927  -0.925  -0.924  -0.923
 -0.922  -0.921  -0.902  -0.900  -0.891  -0.891  -0.888  -0.886
 -0.877  -0.875  -0.863  -0.854  -0.844  -0.841  -0.841  -0.839
 -0.836  -0.835  -0.828  -0.822  -0.814  -0.807  -0.802  -0.798
 -0.796  -0.796  -0.794  -0.793  -0.792  -0.792  -0.787  -0.783
 -0.774  -0.770  -0.769  -0.768  -0.767  -0.766  -0.764  -0.764
 -0.759  -0.753  -0.746  -0.744  -0.736  -0.735  -0.719  -0.718
 -0.715  -0.714  -0.713  -0.712  -0.711  -0.711  -0.710  -0.710
 -0.709  -0.709  -0.706  -0.704  -0.702  -0.700  -0.674  -0.674
 -0.661  -0.659  -0.657  -0.657  -0.648  -0.648  -0.636  -0.634
 -0.628  -0.628  -0.626  -0.626  -0.624  -0.623  -0.620  -0.618
 -0.616  -0.616  -0.613  -0.612  -0.611  -0.610  -0.610  -0.608
 -0.607  -0.605  -0.602  -0.602  -0.571  -0.570  -0.567  -0.565
 -0.564  -0.563  -0.560  -0.559  -0.558  -0.557  -0.556  -0.555
 -0.543  -0.540  -0.537  -0.533  -0.528  -0.527  -0.526  -0.525
 -0.523  -0.522  -0.521  -0.520  -0.518  -0.516  -0.515  -0.513
 -0.509  -0.508  -0.500  -0.499  -0.495  -0.492  -0.489  -0.487
 -0.485  -0.485  -0.483  -0.483  -0.480  -0.478  -0.476  -0.475
 -0.474  -0.474  -0.472  -0.470  -0.470  -0.469  -0.468  -0.467
 -0.466  -0.466  -0.465  -0.464  -0.463  -0.463  -0.462  -0.460
 -0.458  -0.458  -0.457  -0.455  -0.453  -0.451  -0.448  -0.446
 -0.443  -0.442  -0.442  -0.440  -0.439  -0.436  -0.436  -0.434
 -0.433  -0.432  -0.430  -0.429  -0.428  -0.428  -0.427  -0.426
 -0.425  -0.424  -0.422  -0.422  -0.421  -0.420  -0.419  -0.418
 -0.418  -0.417  -0.416  -0.416  -0.415  -0.414  -0.414  -0.413
 -0.412  -0.411  -0.409  -0.406  -0.403  -0.402  -0.400  -0.397
 -0.395  -0.394  -0.393  -0.390  -0.389  -0.389  -0.388  -0.385
 -0.384  -0.382  -0.376  -0.376  -0.373  -0.372  -0.370  -0.369
 -0.366  -0.366  -0.365  -0.364  -0.363  -0.361  -0.360  -0.359
 -0.359  -0.357  -0.356  -0.355  -0.354  -0.354  -0.353  -0.353
 -0.352  -0.349  -0.349  -0.347  -0.347  -0.346  -0.344  -0.343
 -0.343  -0.342  -0.341  -0.340  -0.339  -0.339  -0.338  -0.334
 -0.333  -0.332  -0.332  -0.329  -0.327  -0.327  -0.325  -0.324
 -0.316  -0.309  -0.305  -0.296  -0.291  -0.287  -0.274  -0.271
 -0.270  -0.270  -0.269  -0.268  -0.267  -0.266  -0.265  -0.265
 -0.264  -0.262  -0.261  -0.259  -0.258  -0.257  -0.255  -0.255
 -0.250  -0.250  -0.244  -0.241  -0.222  -0.220  -0.215  -0.211
 -0.211  -0.209  -0.207  -0.205  -0.202  -0.195

          Ground-State Mulliken Net Atomic Charges

     Atom                 Charge (a.u.)
  ----------------------------------------
      1 O                    -0.449329
      2 C                    -0.091034
      3 H                     0.126246
      4 H                     0.133161
      5 H                     0.125448
      6 O                    -0.455335
      7 C                     0.579652
      8 C                    -0.271815
      9 H                     0.130375
     10 H                     0.126273
     11 C                    -0.175873
     12 H                     0.113792
     13 H                     0.120435
     14 C                    -0.192757
     15 H                     0.117293
     16 H                     0.110752
     17 C                    -0.000548
     18 C                     0.087588
     19 C                    -0.093479
     20 H                     0.101715
     21 C                    -0.095249
     22 H                     0.085455
     23 C                    -0.074267
     24 H                     0.087181
     25 C                    -0.094131
     26 H                     0.100343
     27 C                    -0.110452
     28 H                     0.093839
     29 C                    -0.008948
     30 C                     0.008018
     31 C                    -0.024529
     32 C                    -0.068538
     33 C                    -0.015505
     34 C                    -0.017240
     35 C                    -0.008636
     36 C                     0.012850
     37 C                     0.010062
     38 C                     0.023777
     39 C                    -0.070631
     40 C                    -0.002258
     41 C                     0.005886
     42 C                     0.033611
     43 C                     0.003560
     44 C                     0.010897
     45 C                    -0.084600
     46 C                     0.040496
     47 C                    -0.011630
     48 C                    -0.023991
     49 C                     0.003701
     50 C                     0.025669
     51 C                     0.004313
     52 C                     0.020552
     53 C                    -0.013357
     54 C                    -0.030285
     55 C                     0.015442
     56 C                    -0.018832
     57 C                    -0.007292
     58 C                     0.000217
     59 C                     0.027100
     60 C                     0.038711
     61 C                     0.001658
     62 C                    -0.013109
     63 C                     0.041094
     64 C                     0.016815
     65 C                    -0.034235
     66 C                    -0.051103
     67 C                     0.013226
     68 C                    -0.034997
     69 C                     0.056952
     70 C                     0.045961
     71 C                    -0.003698
     72 C                    -0.007800
     73 C                     0.031882
     74 C                    -0.034526
     75 C                     0.016680
     76 C                     0.016291
     77 C                     0.009252
     78 C                     0.013331
     79 C                    -0.015343
     80 C                     0.021830
     81 C                    -0.008863
     82 C                    -0.028981
     83 C                    -0.004353
     84 C                    -0.012671
     85 C                    -0.009837
     86 C                    -0.011767
     87 C                    -0.005260
     88 C                    -0.023098
     89 O                    -0.477238
     90 C                    -0.082351
     91 H                     0.130961
     92 H                     0.126077
     93 H                     0.122815
     94 O                    -0.450964
     95 C                     0.567760
     96 C                    -0.234162
     97 H                     0.137600
     98 H                     0.125349
     99 C                    -0.191742
    100 H                     0.124847
    101 H                     0.117630
    102 C                    -0.180260
    103 H                     0.107284
    104 H                     0.112683
    105 C                     0.011854
    106 C                     0.093059
    107 C                    -0.101273
    108 H                     0.087654
    109 C                    -0.088598
    110 H                     0.096457
    111 C                    -0.091148
    112 H                     0.082142
    113 C                    -0.073015
    114 H                     0.093635
    115 C                    -0.115579
    116 H                     0.090252
    117 C                    -0.023547
    118 C                    -0.002529
    119 C                     0.010719
    120 C                    -0.016617
    121 C                     0.000064
    122 C                     0.005183
    123 C                    -0.010904
    124 C                    -0.025867
    125 C                    -0.027075
    126 C                     0.016521
    127 C                    -0.047424
    128 C                    -0.027645
    129 C                    -0.010699
    130 C                    -0.000781
    131 C                     0.011917
    132 C                    -0.020899
    133 C                    -0.089685
    134 C                     0.015987
    135 C                     0.022058
    136 C                    -0.004406
    137 C                     0.002987
    138 C                     0.009846
    139 C                     0.021215
    140 C                     0.022132
    141 C                     0.035499
    142 C                    -0.006149
    143 C                     0.012703
    144 C                    -0.014233
    145 C                     0.028683
    146 C                     0.014480
    147 C                    -0.002536
    148 C                     0.003171
    149 C                    -0.018957
    150 C                    -0.037407
    151 C                     0.013743
    152 C                     0.024197
    153 C                    -0.005611
    154 C                    -0.008514
    155 C                    -0.011441
    156 C                     0.000440
    157 C                     0.008485
    158 C                     0.024863
    159 C                     0.002339
    160 C                     0.001959
    161 C                     0.022739
    162 C                     0.018049
    163 C                    -0.007054
    164 C                     0.007803
    165 C                     0.005833
    166 C                    -0.005407
    167 C                    -0.025479
    168 C                     0.003809
    169 C                    -0.009697
    170 C                    -0.019761
    171 C                     0.003015
    172 C                     0.011565
    173 C                    -0.019629
    174 C                    -0.001302
    175 C                    -0.006518
    176 C                    -0.015166
  ----------------------------------------
  Sum of atomic charges =     0.000000

                    Cartesian Multipole Moments
 -----------------------------------------------------------------
    Charge (ESU x 10^10)
                 0.0000
    Dipole Moment (Debye)
         X       0.9609      Y       0.7659      Z      -0.5750
       Tot       1.3567
    Quadrupole Moments (Debye-Ang)
        XX    -775.9560     XY      24.2285     YY    -809.7122
        XZ       0.4721     YZ       7.2862     ZZ    -827.3768

 Total job time:  838.35s(wall), 7071.63s(cpu)
        *  Thank you very much for using Q-Chem.  Have a nice day.  *
