 Q-Chem 4.4, Q-Chem, Inc., Pleasanton, CA (2016)
 Q-Chem 4.4.2 for Intel X86 Linux

User input:
--------------------------------------------------------------
$comment
SP
$end

$rem
MEM_STATIC 5000
MEM_TOTAL 20000
JOBTYPE SP
EXCHANGE B3LYP
BASIS 6-31g(d,p)
$end

$molecule
0 1
O          16.115000    -15.758000      0.905000
C          17.098000    -15.022000      1.676000
H          18.065000    -15.521000      1.813000
H          16.688000    -14.613000      2.608000
H          17.445000    -14.149000      1.110000
O          17.451000    -17.156000     -0.180000
C          16.375000    -16.608000     -0.113000
C          15.125000    -16.876000     -1.005000
H          14.497000    -17.667000     -0.577000
H          15.484000    -17.191000     -1.993000
C          14.224000    -15.618000     -1.206000
H          13.332000    -15.889000     -1.784000
H          13.768000    -15.292000     -0.263000
C          14.917000    -14.450000     -1.853000
H          15.847000    -14.250000     -1.306000
H          15.216000    -14.731000     -2.871000
C          13.876000    -13.259000     -1.970000
C          13.016000    -13.362000     -3.143000
C          11.632000    -13.684000     -3.027000
H          11.248000    -13.870000     -2.028000
C          10.743000    -13.799000     -4.148000
H           9.715000    -14.135000     -4.047000
C          11.326000    -13.486000     -5.451000
H          10.786000    -13.800000     -6.339000
C          12.640000    -13.061000     -5.522000
H          13.040000    -12.958000     -6.526000
C          13.463000    -12.883000     -4.377000
H          14.516000    -12.630000     -4.464000
C          13.701000     -7.723000     -1.995000
C          11.460000     -8.384000     -1.275000
C          11.897000     -7.035000      3.109000
C          17.193000     -9.987000      0.944000
C          12.553000    -10.273000      4.157000
C          12.587000     -8.609000     -2.025000
C          16.125000    -10.227000      3.462000
C          12.647000     -6.037000      1.020000
C          11.408000    -11.912000      0.649000
C          16.691000    -11.270000      1.325000
C          13.284000    -12.563000     -0.752000
C          12.462000    -12.478000      1.476000
C          15.053000    -12.194000      2.534000
C          15.027000    -10.044000      4.274000
C          11.743000    -10.618000     -1.340000
C          13.518000     -8.060000      4.315000
C          14.368000    -11.840000     -1.537000
C          15.716000    -11.585000     -0.895000
C          12.363000     -8.877000      4.295000
C          16.048000     -6.687000      1.588000
C          14.175000     -6.308000      2.910000
C          13.923000     -5.812000      1.576000
C          12.509000     -6.363000     -0.312000
C          16.169000    -10.308000     -1.188000
C          11.932000    -11.812000     -0.644000
C          11.391000     -7.235000     -0.395000
C          16.169000    -11.358000      2.624000
C          10.927000     -9.616000     -0.870000
C          12.548000    -12.061000      2.807000
C          16.746000     -8.106000     -0.270000
C          11.634000     -6.649000      1.754000
C          13.617000    -12.792000      0.660000
C          14.976000     -6.536000     -0.489000
C          13.892000    -11.901000      3.308000
C          10.604000    -10.895000      1.193000
C          15.825000     -8.027000      3.609000
C          16.643000     -9.005000      3.046000
C          10.765000    -10.476000      2.546000
C          16.859000     -9.519000     -0.307000
C          15.880000    -12.018000      0.438000
C          16.854000     -7.685000      1.063000
C          14.075000    -10.518000     -2.218000
C          10.312000     -8.662000      1.303000
C          14.879000    -12.628000      1.188000
C          11.753000    -11.060000      3.316000
C          15.780000     -7.499000     -1.087000
C          11.357000     -8.267000      3.519000
C          13.703000     -6.642000     -1.086000
C          13.206000     -6.928000      3.669000
C          10.351000     -9.753000      0.413000
C          10.596000     -9.104000      2.600000
C          12.763000    -10.040000     -2.155000
C          15.160000     -9.666000     -2.045000
C          15.464000     -6.864000      2.825000
C          10.897000     -7.410000      0.906000
C          13.889000    -10.849000      4.200000
C          17.134000     -8.856000      1.764000
C          14.785000     -8.661000      4.343000
C          14.998000     -8.246000     -1.970000
C          15.058000     -6.129000      0.848000
O          13.432000     -9.584000     -5.572000
C          12.036000     -9.482000     -5.281000
H          11.831000     -8.625000     -4.628000
H          11.702000    -10.414000     -4.808000
H          11.474000     -9.250000     -6.194000
O          13.720000     -7.337000     -5.831000
C          14.174000     -8.454000     -5.899000
C          15.608000     -8.680000     -6.445000
H          15.909000     -7.922000     -7.179000
H          15.500000     -9.631000     -6.980000
C          16.567000     -8.873000     -5.276000
H          16.471000     -7.959000     -4.677000
H          16.343000     -9.694000     -4.584000
C          17.954000     -9.036000     -5.752000
H          18.060000     -9.757000     -6.572000
H          18.143000     -8.086000     -6.267000
C          19.074000     -9.233000     -4.712000
C          19.447000     -7.893000     -4.099000
C          18.586000     -7.424000     -3.093000
H          17.703000     -8.015000     -2.868000
C          18.833000     -6.264000     -2.431000
H          18.174000     -5.916000     -1.641000
C          20.003000     -5.547000     -2.848000
H          20.279000     -4.630000     -2.335000
C          20.767000     -5.927000     -3.875000
H          21.628000     -5.310000     -4.114000
C          20.497000     -7.109000     -4.515000
H          21.136000     -7.571000     -5.262000
C          23.933000    -11.168000     -3.303000
C          22.660000    -11.365000     -1.205000
C          22.326000    -15.829000     -1.202000
C          21.520000    -13.567000     -7.059000
C          19.056000    -15.773000     -2.510000
C          22.934000    -10.726000     -2.390000
C          20.057000    -15.678000     -5.932000
C          24.241000    -14.442000     -1.715000
C          18.730000    -11.816000     -1.908000
C          20.162000    -13.404000     -6.729000
C          19.078000    -10.498000     -3.961000
C          18.028000    -12.466000     -3.019000
C          18.537000    -13.949000     -5.376000
C          19.800000    -16.357000     -4.728000
C          20.742000    -10.515000     -2.010000
C          21.210000    -16.913000     -2.775000
C          20.221000    -10.164000     -4.847000
C          20.532000    -11.148000     -5.969000
C          20.224000    -16.373000     -1.975000
C          24.104000    -15.188000     -5.230000
C          23.560000    -16.216000     -3.233000
C          24.414000    -15.151000     -2.970000
C          24.270000    -13.067000     -1.788000
C          21.925000    -11.283000     -6.218000
C          19.433000    -10.703000     -2.506000
C          23.340000    -12.536000     -0.876000
C          19.448000    -14.448000     -6.271000
C          21.261000    -11.207000     -0.943000
C          18.064000    -13.843000     -3.002000
C          23.572000    -13.063000     -6.267000
C          23.168000    -14.770000     -0.856000
C          18.283000    -11.722000     -4.229000
C          24.768000    -13.069000     -4.162000
C          18.141000    -14.642000     -4.205000
C          19.307000    -12.625000     -0.875000
C          22.043000    -16.422000     -5.082000
C          21.431000    -15.811000     -6.177000
C          19.232000    -14.038000     -0.921000
C          22.417000    -12.509000     -6.779000
C          19.724000    -12.215000     -6.221000
C          23.496000    -14.454000     -6.278000
C          21.535000    -10.019000     -4.309000
C          21.245000    -13.485000     -0.075000
C          18.670000    -12.550000     -5.332000
C          18.563000    -14.604000     -1.988000
C          24.197000    -12.376000     -5.208000
C          20.932000    -15.728000     -0.960000
C          24.575000    -12.367000     -2.982000
C          22.491000    -16.610000     -2.355000
C          20.553000    -12.289000     -0.373000
C          20.392000    -14.592000     -0.324000
C          21.768000    -10.194000     -2.901000
C          22.522000    -10.575000     -5.172000
C          23.364000    -16.219000     -4.638000
C          22.650000    -13.584000     -0.302000
C          18.807000    -15.772000     -3.872000
C          22.169000    -14.789000     -6.764000
C          20.981000    -16.828000     -4.190000
C          23.695000    -11.130000     -4.665000
C          24.778000    -14.533000     -4.198000
$end

--------------------------------------------------------------

             Standard Nuclear Orientation (Angstroms)
    I     Atom           X                Y                Z
 ----------------------------------------------------------------
    1      O       0.2086801171     5.1111207103     0.8864231549
    2      C       0.0508121178     4.4600041295     2.1723278532
    3      H      -0.8682350835     4.7040481184     2.7188200977
    4      H       0.9522853540     4.5235761090     2.7946698877
    5      H      -0.1240242666     3.3862965620     2.0327631790
    6      O      -1.9027592666     5.6424285042     0.4668272100
    7      C      -0.7872158790     5.4538145281     0.0395606441
    8      C      -0.2789571843     5.7113202739    -1.4114224330
    9      H       0.0947047384     6.7366360420    -1.5225680280
   10      H      -1.1260074843     5.5569650135    -2.0918122058
   11      C       0.8646233186     4.7444783971    -1.8498359575
   12      H       1.2207644361     5.0204121122    -2.8499424965
   13      H       1.7744912948     4.8986262175    -1.2566751737
   14      C       0.4948238240     3.2865289678    -1.8231190116
   15      H       0.0659900348     3.0537780000    -0.8402469099
   16      H      -0.3033663160     3.1068097337    -2.5547469890
   17      C       1.7607406662     2.4458601715    -2.2776314135
   18      C       1.8989693074     2.3550002823    -3.7263464729
   19      C       2.9334337546     3.0471644236    -4.4216076533
   20      H       3.6036951972     3.6628885566    -3.8285761276
   21      C       3.1128678334     2.9927977657    -5.8446447849
   22      H       3.8487379290     3.5992501269    -6.3648291138
   23      C       2.2008972693     2.1048516082    -6.5626477874
   24      H       2.1211754407     2.2194999511    -7.6393279570
   25      C       1.2838664668     1.3539411206    -5.8502925763
   26      H       0.5651333235     0.8070087542    -6.4527148995
   27      C       1.1933741725     1.3772108798    -4.4320867863
   28      H       0.4100880304     0.8438130672    -3.9007332382
   29      C       4.1194342072    -2.5006016242    -1.4728789771
   30      C       5.9706223656    -1.0688441714    -2.1803922270
   31      C       8.0764263152    -0.8708844878     1.9130937800
   32      C       1.6818709998    -0.3522522529     2.4514504674
   33      C       6.7026361681     2.2373664891     2.5948272299
   34      C       4.6458593744    -1.4221669540    -2.2388732366
   35      C       3.5439498004     1.0198923851     3.9307846531
   36      C       6.9626802786    -2.6928404253     0.7458443090
   37      C       5.4321787026     2.7906441799    -1.1976958913
   38      C       1.7355598124     1.0666483637     2.2868523157
   39      C       3.0490648820     2.3982572501    -1.4674717522
   40      C       4.7174510331     3.3125248618    -0.0435702862
   41      C       3.2092598280     2.7477594431     2.2628772659
   42      C       4.8555445644     1.4250301150     4.0491890223
   43      C       4.8151431156     0.8455699997    -2.4541733156
   44      C       6.8862313514     0.0478987153     3.6077841275
   45      C       2.1252826443     1.1905995286    -1.4205760684
   46      C       1.4237854171     0.8321147192    -0.1268669505
   47      C       7.4777879271     1.0784228623     2.8396729376
   48      C       4.2128398489    -2.7992547867     2.9227638285
   49      C       6.4495364755    -2.1903069500     3.0834645826
   50      C       6.2694784411    -3.0354387997     1.9248415805
   51      C       6.3608395626    -2.8271200437    -0.4867548702
   52      C       1.4455273407    -0.5379280472     0.0836018290
   53      C       4.4862863546     2.1133512820    -1.9742182647
   54      C       6.8729769253    -1.7786979824    -1.2965224315
   55      C       2.6872942687     1.7347051852     3.0714099031
   56      C       6.0802636007     0.3206097361    -2.3331490218
   57      C       5.3973270231     3.3781354932     1.1755728076
   58      C       2.2686989980    -2.3513860386     1.5182500563
   59      C       7.8517618567    -1.6214303752     0.7129284781
   60      C       3.3055109839     3.0090156222    -0.1566385791
   61      C       4.2291580390    -3.3781220227     0.6532792086
   62      C       4.5992330723     3.0571165623     2.3344213274
   63      C       6.7259959937     2.2748113896    -1.0063993941
   64      C       4.7352224152    -0.8309153700     4.2578767056
   65      C       3.4375471519    -0.3604675578     4.0647581744
   66      C       7.3559446471     2.3266705687     0.2713197923
   67      C       1.5927522321    -1.1218336726     1.3133014070
   68      C       1.6995684198     1.6431969584     0.9944551872
   69      C       2.9333593211    -2.2944326030     2.7514479159
   70      C       2.5958923178    -0.1599890585    -1.9223040861
   71      C       7.9079624503     0.3793208302    -0.7002559075
   72      C       2.5867873656     2.7152402445     0.9815425963
   73      C       6.6621793078     2.8621647401     1.3399804712
   74      C       2.9335024113    -2.9297041063     0.4261517850
   75      C       8.1938824112     0.5221409750     1.7607516468
   76      C       4.9499537112    -3.1577092366    -0.5383775383
   77      C       7.3109146517    -1.1144954053     3.0934223842
   78      C       7.0487279997     1.0413254875    -1.5987924913
   79      C       8.0678606079     1.1545898201     0.4537023120
   80      C       3.8713728792    -0.2252695957    -2.4903575949
   81      C       2.1415502451    -1.1504378779    -1.0587981990
   82      C       5.1515503981    -2.0564572230     3.6080581332
   83      C       7.7680315898    -1.0389489430    -0.5098137775
   84      C       5.4146766147     2.4215024955     3.2473416894
   85      C       2.5427346292    -1.0694106590     3.2878951051
   86      C       5.6371686594     0.2673594145     4.2069113202
   87      C       2.8763292125    -2.3602461049    -0.8472966082
   88      C       4.9108459395    -3.3003740730     1.8736065675
   89      O       2.0247126315    -2.0005737305    -4.8923415995
   90      C       3.3159490298    -1.6260184578    -5.3784670065
   91      H       4.1110383228    -2.1164967055    -4.8038827178
   92      H       3.4159647616    -0.5349830045    -5.3189061716
   93      H       3.4628325104    -2.0058330341    -6.3969968935
   94      O       2.5845724292    -4.1888265081    -4.5806674294
   95      C       1.7399201392    -3.3256976567    -4.5803595221
   96      C       0.2568438951    -3.6873611554    -4.3060743279
   97      H      -0.0006410709    -4.7040181155    -4.6286128804
   98      H      -0.2727518575    -2.9893266599    -4.9652906672
   99      C      -0.0819495222    -3.3573221506    -2.8570110872
  100      H       0.6248168593    -3.9464185449    -2.2596337188
  101      H       0.0698843065    -2.3187126993    -2.5387063652
  102      C      -1.4712840078    -3.7390327026    -2.5392678861
  103      H      -2.2048920551    -3.4032471938    -3.2826011391
  104      H      -1.4657370556    -4.8229807104    -2.7080042121
  105      C      -1.9975427119    -3.4924137653    -1.1120188272
  106      C      -1.4904723158    -4.5827609575    -0.1822228207
  107      C      -0.1696935433    -4.4294996257     0.2709574947
  108      H       0.4010016997    -3.5882326895    -0.1113668203
  109      C       0.3876729505    -5.3077995830     1.1443330019
  110      H       1.4029081175    -5.1736511814     1.5059775264
  111      C      -0.4470269788    -6.4043988338     1.5413520331
  112      H      -0.0758849483    -7.1234180612     2.2662650925
  113      C      -1.6631053648    -6.6197260277     1.0337965596
  114      H      -2.2117465769    -7.4835204844     1.3970911467
  115      C      -2.2012190081    -5.7079464271     0.1627536979
  116      H      -3.2274848962    -5.7192684361    -0.1928080252
  117      C      -6.0704954664    -2.5304701267     2.3267465465
  118      C      -4.2095707318    -1.2896813677     3.3555052101
  119      C      -5.7367790487     2.8172027822     2.4389909787
  120      C      -6.7350931552    -1.0478257155    -2.4738139897
  121      C      -3.6545969802     3.1663974487    -0.3804914062
  122      C      -4.6901718821    -2.3492020219     2.6247107671
  123      C      -5.9158804898     1.6275096081    -2.6694936132
  124      C      -6.9430174857     0.8892272002     3.2648614215
  125      C      -1.5363557948    -0.1008252526     0.6017708296
  126      C      -5.4328402651    -0.7245388169    -2.8972003280
  127      C      -2.1821330615    -2.0931898695    -0.6968792214
  128      C      -1.7183934517     0.2809992230    -0.8020444578
  129      C      -3.7541345246     0.6621402939    -2.7318912829
  130      C      -5.4567640090     2.7252091791    -1.9205118318
  131      C      -2.6757941245    -1.8336290972     1.8060216876
  132      C      -5.9622082682     3.5370942486     0.3591402765
  133      C      -3.3540964583    -3.0012675187    -0.7668633585
  134      C      -4.4903832392    -2.5874978255    -1.6950379070
  135      C      -4.6022293683     3.5873941147     0.5865678807
  136      C      -8.6679590216     0.3726027933     0.1522763351
  137      C      -7.7721932997     2.1356609597     1.3480851297
  138      C      -7.9156387738     1.0452138393     2.1984135801
  139      C      -6.4446424248    -0.3815538028     3.4479814400
  140      C      -5.7741528265    -2.9169366470    -1.1811500695
  141      C      -1.9149479701    -1.4948156385     0.6653378709
  142      C      -5.0844353723    -0.2987948567     3.7966829329
  143      C      -5.0787493856     0.5614630133    -3.0713121943
  144      C      -2.9060377115    -0.9748513518     2.8530186669
  145      C      -2.2943196304     1.5170832086    -0.9972864036
  146      C      -7.8372248442    -1.7623181431    -0.6389324374
  147      C      -5.8367441672     1.7641971860     3.3507734032
  148      C      -2.1523514845    -0.8767798137    -1.5462817371
  149      C      -7.8826993711    -1.3366550183     1.7439691492
  150      C      -3.2032359807     1.7972988110    -2.0867308878
  151      C      -1.8752121564     0.8362700125     1.6320755565
  152      C      -7.4420390297     2.0739244402    -1.0288273130
  153      C      -7.1818124470     1.3026316248    -2.1620878825
  154      C      -2.4038394959     2.1118489463     1.3194071705
  155      C      -6.9085280925    -2.1372958247    -1.5876152515
  156      C      -4.3799476445    -1.5034485107    -2.5120434532
  157      C      -8.3409076881    -0.4940943964    -0.9194500323
  158      C      -4.1179379865    -3.2880544466     0.4041893209
  159      C      -3.4312883960     1.3822488045     3.1864171841
  160      C      -3.2786789506    -0.6166988144    -2.3922760118
  161      C      -2.5593949286     2.4247489759    -0.0163705351
  162      C      -7.6010486726    -2.1754227062     0.6868278863
  163      C      -4.4689500366     3.1750724065     1.9131203405
  164      C      -6.9295545611    -1.5072270283     2.7363769085
  165      C      -6.6874136457     3.0756145111     1.4409367510
  166      C      -2.5231683472     0.3827900298     2.7687042031
  167      C      -3.2994437629     2.5151180145     2.3412643306
  168      C      -3.7610460937    -2.7011506252     1.6673401754
  169      C      -5.5126718953    -3.3461505454     0.1223805792
  170      C      -8.2292060132     1.7003625147     0.0776109492
  171      C      -4.7006121710     1.0249256867     3.7309282894
  172      C      -4.0485839974     2.7563308264    -1.6428960940
  173      C      -7.6203966229    -0.0147621866    -2.0858352335
  174      C      -6.3616091819     3.0277250717    -0.9226213830
  175      C      -6.4584358030    -2.9767206332     1.0763486976
  176      C      -8.4958770403    -0.0339104234     1.4764590250
 ----------------------------------------------------------------

   10   -5804.2385769002      3.39E-06 Convergence criterion met
 Total energy in the final basis set = -5804.2385769002

                    Orbital Energies (a.u.)
 --------------------------------------------------------------

 Alpha MOs
 -- Occupied --
-19.187 -19.187 -19.134 -19.133 -10.320 -10.318 -10.248 -10.243
-10.243 -10.242 -10.242 -10.238 -10.237 -10.236 -10.235 -10.233
-10.232 -10.232 -10.231 -10.231 -10.230 -10.230 -10.228 -10.228
-10.227 -10.227 -10.225 -10.225 -10.224 -10.224 -10.223 -10.223
-10.222 -10.222 -10.222 -10.222 -10.222 -10.221 -10.221 -10.221
-10.221 -10.221 -10.220 -10.220 -10.220 -10.219 -10.219 -10.219
-10.219 -10.219 -10.219 -10.219 -10.219 -10.218 -10.218 -10.218
-10.218 -10.218 -10.218 -10.218 -10.218 -10.218 -10.218 -10.218
-10.217 -10.217 -10.217 -10.217 -10.217 -10.217 -10.217 -10.217
-10.217 -10.217 -10.217 -10.217 -10.216 -10.216 -10.216 -10.216
-10.216 -10.216 -10.215 -10.215 -10.215 -10.215 -10.215 -10.215
-10.215 -10.215 -10.215 -10.214 -10.214 -10.214 -10.214 -10.214
-10.214 -10.214 -10.214 -10.213 -10.213 -10.213 -10.213 -10.213
-10.213 -10.213 -10.213 -10.212 -10.212 -10.212 -10.212 -10.212
-10.212 -10.212 -10.212 -10.212 -10.212 -10.212 -10.211 -10.211
-10.211 -10.211 -10.211 -10.211 -10.210 -10.210 -10.210 -10.210
-10.209 -10.208 -10.208 -10.208 -10.207 -10.206 -10.206 -10.205
-10.205 -10.203 -10.203 -10.202 -10.201 -10.197 -10.195 -10.194
-10.194 -10.191 -10.189 -10.189  -1.094  -1.086  -1.010  -1.007
 -0.987  -0.986  -0.969  -0.968  -0.967  -0.967  -0.964  -0.962
 -0.941  -0.936  -0.932  -0.931  -0.929  -0.927  -0.926  -0.925
 -0.924  -0.921  -0.903  -0.902  -0.894  -0.892  -0.889  -0.886
 -0.877  -0.875  -0.862  -0.852  -0.845  -0.842  -0.841  -0.841
 -0.839  -0.836  -0.827  -0.826  -0.813  -0.808  -0.802  -0.800
 -0.799  -0.798  -0.796  -0.794  -0.793  -0.793  -0.788  -0.787
 -0.775  -0.773  -0.770  -0.769  -0.768  -0.766  -0.766  -0.764
 -0.758  -0.747  -0.743  -0.742  -0.737  -0.734  -0.721  -0.719
 -0.718  -0.717  -0.715  -0.715  -0.713  -0.713  -0.712  -0.711
 -0.710  -0.709  -0.709  -0.706  -0.705  -0.701  -0.674  -0.674
 -0.663  -0.659  -0.659  -0.657  -0.654  -0.648  -0.636  -0.636
 -0.631  -0.629  -0.628  -0.626  -0.626  -0.623  -0.621  -0.619
 -0.618  -0.617  -0.615  -0.615  -0.613  -0.611  -0.610  -0.608
 -0.608  -0.606  -0.604  -0.602  -0.571  -0.570  -0.569  -0.568
 -0.564  -0.563  -0.562  -0.560  -0.559  -0.557  -0.555  -0.555
 -0.542  -0.540  -0.538  -0.537  -0.533  -0.528  -0.527  -0.527
 -0.524  -0.523  -0.522  -0.520  -0.520  -0.518  -0.517  -0.515
 -0.509  -0.508  -0.501  -0.499  -0.495  -0.492  -0.490  -0.488
 -0.486  -0.485  -0.484  -0.482  -0.480  -0.479  -0.478  -0.475
 -0.474  -0.473  -0.472  -0.472  -0.470  -0.469  -0.468  -0.468
 -0.467  -0.466  -0.465  -0.464  -0.463  -0.463  -0.461  -0.460
 -0.458  -0.457  -0.455  -0.455  -0.452  -0.450  -0.449  -0.446
 -0.446  -0.444  -0.442  -0.441  -0.439  -0.439  -0.437  -0.435
 -0.434  -0.434  -0.431  -0.430  -0.430  -0.428  -0.428  -0.428
 -0.426  -0.425  -0.425  -0.423  -0.422  -0.421  -0.420  -0.420
 -0.420  -0.419  -0.418  -0.417  -0.416  -0.415  -0.414  -0.414
 -0.412  -0.411  -0.409  -0.409  -0.406  -0.402  -0.402  -0.396
 -0.396  -0.395  -0.393  -0.393  -0.392  -0.390  -0.388  -0.388
 -0.385  -0.379  -0.377  -0.375  -0.374  -0.372  -0.370  -0.369
 -0.368  -0.367  -0.365  -0.364  -0.364  -0.363  -0.361  -0.360
 -0.359  -0.359  -0.357  -0.356  -0.355  -0.354  -0.353  -0.352
 -0.351  -0.351  -0.350  -0.349  -0.347  -0.346  -0.346  -0.344
 -0.344  -0.343  -0.343  -0.341  -0.340  -0.339  -0.339  -0.336
 -0.335  -0.333  -0.332  -0.331  -0.330  -0.329  -0.326  -0.323
 -0.316  -0.310  -0.293  -0.293  -0.291  -0.287  -0.275  -0.274
 -0.272  -0.270  -0.269  -0.268  -0.267  -0.266  -0.265  -0.265
 -0.264  -0.263  -0.263  -0.262  -0.259  -0.257  -0.255  -0.254
 -0.252  -0.250  -0.246  -0.243  -0.227  -0.220  -0.216  -0.213
 -0.212  -0.210  -0.208  -0.207  -0.205  -0.202

          Ground-State Mulliken Net Atomic Charges

     Atom                 Charge (a.u.)
  ----------------------------------------
      1 O                    -0.460227
      2 C                    -0.100289
      3 H                     0.135513
      4 H                     0.129824
      5 H                     0.121496
      6 O                    -0.468596
      7 C                     0.591137
      8 C                    -0.265331
      9 H                     0.139598
     10 H                     0.133143
     11 C                    -0.185769
     12 H                     0.099564
     13 H                     0.118033
     14 C                    -0.186241
     15 H                     0.118821
     16 H                     0.113617
     17 C                     0.008864
     18 C                     0.099577
     19 C                    -0.115841
     20 H                     0.090764
     21 C                    -0.101638
     22 H                     0.100564
     23 C                    -0.095621
     24 H                     0.095693
     25 C                    -0.086818
     26 H                     0.094180
     27 C                    -0.105840
     28 H                     0.100464
     29 C                     0.008049
     30 C                     0.003365
     31 C                    -0.026894
     32 C                    -0.011457
     33 C                    -0.001436
     34 C                    -0.004133
     35 C                     0.033398
     36 C                     0.007528
     37 C                    -0.014664
     38 C                    -0.021220
     39 C                    -0.086258
     40 C                    -0.015204
     41 C                    -0.016375
     42 C                    -0.003937
     43 C                     0.033680
     44 C                     0.050994
     45 C                    -0.108667
     46 C                     0.031243
     47 C                    -0.037184
     48 C                     0.006963
     49 C                    -0.019219
     50 C                    -0.012642
     51 C                    -0.014410
     52 C                     0.000930
     53 C                     0.014878
     54 C                    -0.024243
     55 C                    -0.012745
     56 C                     0.001109
     57 C                    -0.013212
     58 C                    -0.021263
     59 C                     0.028427
     60 C                     0.057779
     61 C                     0.010941
     62 C                    -0.007518
     63 C                    -0.003779
     64 C                    -0.035918
     65 C                    -0.005895
     66 C                    -0.001869
     67 C                     0.033898
     68 C                     0.009891
     69 C                     0.015027
     70 C                     0.057784
     71 C                    -0.016543
     72 C                     0.021936
     73 C                     0.028803
     74 C                    -0.006754
     75 C                    -0.003524
     76 C                    -0.020495
     77 C                     0.012495
     78 C                    -0.007627
     79 C                     0.015105
     80 C                    -0.016171
     81 C                    -0.019087
     82 C                     0.001229
     83 C                     0.016120
     84 C                    -0.009582
     85 C                     0.009023
     86 C                    -0.003468
     87 C                    -0.005172
     88 C                     0.022104
     89 O                    -0.481716
     90 C                    -0.085724
     91 H                     0.127231
     92 H                     0.136208
     93 H                     0.112160
     94 O                    -0.453547
     95 C                     0.572869
     96 C                    -0.233818
     97 H                     0.136339
     98 H                     0.120272
     99 C                    -0.193659
    100 H                     0.127067
    101 H                     0.116060
    102 C                    -0.180326
    103 H                     0.104396
    104 H                     0.111715
    105 C                     0.011491
    106 C                     0.089687
    107 C                    -0.092462
    108 H                     0.085009
    109 C                    -0.091233
    110 H                     0.093651
    111 C                    -0.092895
    112 H                     0.081909
    113 C                    -0.071862
    114 H                     0.092067
    115 C                    -0.116262
    116 H                     0.086160
    117 C                    -0.019615
    118 C                    -0.002548
    119 C                     0.010648
    120 C                    -0.016746
    121 C                     0.024048
    122 C                     0.005412
    123 C                    -0.012266
    124 C                    -0.025927
    125 C                    -0.029306
    126 C                     0.016889
    127 C                    -0.046116
    128 C                    -0.021718
    129 C                    -0.012221
    130 C                    -0.000406
    131 C                     0.011629
    132 C                    -0.021601
    133 C                    -0.090315
    134 C                     0.017472
    135 C                     0.048580
    136 C                    -0.003503
    137 C                     0.004353
    138 C                     0.010539
    139 C                     0.021560
    140 C                     0.019866
    141 C                     0.039551
    142 C                    -0.004865
    143 C                     0.012510
    144 C                    -0.013270
    145 C                     0.018724
    146 C                     0.010185
    147 C                    -0.002893
    148 C                    -0.005756
    149 C                    -0.013942
    150 C                    -0.043987
    151 C                     0.017053
    152 C                     0.024342
    153 C                    -0.006359
    154 C                    -0.024711
    155 C                    -0.011780
    156 C                     0.001018
    157 C                     0.008803
    158 C                     0.029871
    159 C                     0.001607
    160 C                     0.002220
    161 C                     0.019267
    162 C                     0.012279
    163 C                    -0.006117
    164 C                     0.009108
    165 C                     0.005928
    166 C                    -0.008635
    167 C                    -0.023970
    168 C                     0.004120
    169 C                    -0.015313
    170 C                    -0.019432
    171 C                     0.002810
    172 C                     0.003717
    173 C                    -0.020195
    174 C                    -0.000801
    175 C                    -0.008211
    176 C                    -0.015143
  ----------------------------------------
  Sum of atomic charges =     0.000000

                    Cartesian Multipole Moments
 -----------------------------------------------------------------
    Charge (ESU x 10^10)
                 0.0000
    Dipole Moment (Debye)
         X       1.3820      Y       0.1045      Z      -2.6027
       Tot       2.9487
    Quadrupole Moments (Debye-Ang)
        XX    -828.3680     XY      24.0095     YY    -811.4531
        XZ       3.7912     YZ     -18.0917     ZZ    -790.3835

 Total job time:  999.44s(wall), 8575.04s(cpu)
        *  Thank you very much for using Q-Chem.  Have a nice day.  *
