 Q-Chem 4.4, Q-Chem, Inc., Pleasanton, CA (2016)
 Q-Chem 4.4.2 for Intel X86 Linux

User input:
--------------------------------------------------------------
$comment
SP
$end

$rem
MEM_STATIC 5000
MEM_TOTAL 20000
JOBTYPE SP
EXCHANGE B3LYP
BASIS 6-31g(d,p)
$end

$molecule
0 1
O          11.388000    -20.278000     -9.672000
C          11.540000    -18.800000     -9.751000
H          12.281000    -18.557000    -10.523000
H          12.019000    -18.418000     -8.841000
H          10.567000    -18.323000     -9.923000
O          11.418000    -20.710000    -11.958000
C          11.356000    -21.053000    -10.796000
C          11.159000    -22.507000    -10.420000
H          10.624000    -22.956000    -11.266000
H          10.405000    -22.453000     -9.625000
C          12.475000    -23.246000     -9.997000
H          13.000000    -23.658000    -10.868000
H          13.176000    -22.606000     -9.449000
C          12.134000    -24.336000     -8.934000
H          11.063000    -24.551000     -9.033000
H          12.743000    -25.204000     -9.218000
C          12.402000    -23.972000     -7.469000
C          11.622000    -22.699000     -7.049000
C          10.231000    -22.730000     -6.705000
H           9.704000    -23.678000     -6.654000
C           9.506000    -21.550000     -6.353000
H           8.439000    -21.618000     -6.159000
C          10.182000    -20.370000     -6.185000
H           9.573000    -19.500000     -5.957000
C          11.566000    -20.294000     -6.418000
H          12.062000    -19.353000     -6.198000
C          12.263000    -21.462000     -6.920000
H          13.302000    -21.477000     -7.235000
C          16.221000    -23.411000     -3.611000
C          14.292000    -24.171000     -2.373000
C          15.848000    -28.267000     -1.281000
C          17.297000    -26.590000     -7.293000
C          14.093000    -29.726000     -3.935000
C          14.818000    -23.402000     -3.412000
C          16.567000    -29.190000     -6.500000
C          17.025000    -26.155000     -1.253000
C          12.034000    -26.424000     -4.626000
C          16.102000    -27.127000     -7.755000
C          12.629000    -25.127000     -6.523000
C          12.241000    -27.294000     -5.712000
C          14.333000    -28.453000     -7.194000
C          16.011000    -29.829000     -5.423000
C          12.881000    -24.287000     -4.107000
C          16.326000    -29.613000     -3.073000
C          13.784000    -24.232000     -6.874000
C          14.952000    -24.962000     -7.610000
C          14.955000    -29.667000     -2.848000
C          18.854000    -26.757000     -4.181000
C          18.021000    -27.993000     -2.460000
C          18.067000    -26.694000     -2.044000
C          16.508000    -24.871000     -1.650000
C          16.176000    -24.422000     -7.053000
C          12.267000    -25.134000     -5.026000
C          15.140000    -24.835000     -1.442000
C          15.702000    -28.430000     -7.346000
C          13.052000    -24.708000     -2.742000
C          12.750000    -28.591000     -5.380000
C          18.129000    -25.115000     -5.838000
C          15.871000    -26.911000     -0.851000
C          12.709000    -26.568000     -6.812000
C          18.114000    -24.558000     -3.381000
C          13.802000    -29.186000     -6.167000
C          12.123000    -26.860000     -3.246000
C          17.941000    -28.927000     -4.688000
C          17.764000    -28.569000     -5.994000
C          12.617000    -28.137000     -2.914000
C          17.335000    -25.264000     -6.976000
C          14.921000    -26.363000     -7.890000
C          18.710000    -26.381000     -5.520000
C          14.496000    -23.470000     -5.836000
C          13.504000    -26.707000     -1.424000
C          13.840000    -27.147000     -7.444000
C          12.984000    -28.946000     -3.969000
C          17.811000    -24.250000     -4.761000
C          14.678000    -28.826000     -1.731000
C          17.006000    -24.077000     -2.648000
C          16.841000    -28.771000     -2.108000
C          12.705000    -25.957000     -2.309000
C          13.485000    -28.048000     -1.772000
C          13.956000    -23.473000     -4.515000
C          15.908000    -23.459000     -6.046000
C          18.517000    -28.052000     -3.760000
C          14.715000    -26.151000     -1.038000
C          14.579000    -29.858000     -5.197000
C          18.119000    -27.248000     -6.380000
C          16.889000    -29.771000     -4.318000
C          16.745000    -23.470000     -4.888000
C          18.574000    -25.876000     -3.113000
O          18.732000    -10.818000     -8.901000
C          20.125000    -10.604000     -9.377000
H          20.829000    -11.239000     -8.825000
H          20.406000     -9.574000     -9.126000
H          20.143000    -10.734000    -10.466000
O          18.787000    -13.087000     -9.279000
C          18.220000    -12.071000     -8.877000
C          16.760000    -12.004000     -8.342000
H          16.201000    -11.438000     -9.097000
H          16.696000    -11.550000     -7.345000
C          16.021000    -13.367000     -8.163000
H          16.831000    -14.016000     -7.806000
H          15.322000    -13.381000     -7.318000
C          15.437000    -13.941000     -9.421000
H          14.444000    -13.510000     -9.599000
H          15.996000    -13.768000    -10.349000
C          15.187000    -15.428000     -9.179000
C          13.892000    -15.664000     -8.384000
C          12.657000    -15.584000     -9.047000
H          12.636000    -15.409000    -10.118000
C          11.497000    -15.775000     -8.317000
H          10.600000    -15.742000     -8.930000
C          11.605000    -16.179000     -7.015000
H          10.706000    -16.461000     -6.475000
C          12.834000    -16.327000     -6.340000
H          12.924000    -16.507000     -5.273000
C          13.996000    -16.042000     -7.021000
H          14.962000    -16.145000     -6.535000
C          17.292000    -20.287000     -7.712000
C          15.407000    -20.888000     -9.119000
C          17.930000    -22.340000    -12.722000
C          20.288000    -17.078000    -10.146000
C          17.548000    -19.343000    -14.340000
C          15.960000    -20.049000     -8.196000
C          20.259000    -17.626000    -12.870000
C          18.194000    -22.636000    -10.309000
C          14.623000    -18.061000    -11.925000
C          19.525000    -16.256000    -11.002000
C          15.381000    -16.445000    -10.298000
C          15.491000    -17.196000    -12.627000
C          18.175000    -16.341000    -12.790000
C          19.768000    -18.422000    -13.926000
C          14.731000    -18.773000     -9.635000
C          19.256000    -20.812000    -13.770000
C          16.292000    -16.419000     -9.120000
C          17.702000    -16.174000     -9.359000
C          17.975000    -20.614000    -14.186000
C          20.962000    -20.534000    -10.119000
C          19.989000    -21.841000    -11.675000
C          19.551000    -22.241000    -10.391000
C          17.454000    -22.171000     -9.268000
C          18.514000    -16.961000     -8.490000
C          14.637000    -17.720000    -10.565000
C          16.120000    -22.022000     -9.659000
C          19.430000    -16.595000    -12.357000
C          14.635000    -20.113000    -10.026000
C          16.316000    -17.580000    -13.653000
C          20.256000    -18.726000     -8.569000
C          17.393000    -22.683000    -11.452000
C          16.063000    -16.262000    -11.655000
C          19.354000    -20.995000     -8.372000
C          17.624000    -17.159000    -13.748000
C          14.588000    -19.381000    -12.351000
C          20.946000    -19.719000    -12.451000
C          21.048000    -18.420000    -12.010000
C          15.392000    -19.779000    -13.459000
C          19.790000    -17.424000     -8.858000
C          18.226000    -15.850000    -10.610000
C          21.005000    -19.146000     -9.670000
C          16.383000    -17.616000     -8.239000
C          15.256000    -21.581000    -11.897000
C          17.416000    -15.875000    -11.729000
C          16.226000    -18.926000    -14.093000
C          19.442000    -19.638000     -7.880000
C          17.165000    -21.488000    -13.491000
C          18.035000    -21.370000     -8.262000
C          19.240000    -21.845000    -12.830000
C          14.579000    -20.451000    -11.392000
C          15.839000    -21.063000    -13.048000
C          15.565000    -18.740000     -8.524000
C          17.728000    -17.863000     -7.830000
C          20.868000    -20.737000    -11.498000
C          16.058000    -22.325000    -11.021000
C          18.370000    -18.219000    -14.231000
C          21.088000    -18.137000    -10.618000
C          20.169000    -19.733000    -13.580000
C          18.177000    -19.218000     -7.512000
C          20.119000    -21.423000     -9.440000
$end

--------------------------------------------------------------

             Standard Nuclear Orientation (Angstroms)
    I     Atom           X                Y                Z
 ----------------------------------------------------------------
    1      O      -1.3740401700    -4.0658377731    -2.7556096443
    2      C      -2.6700957380    -4.4615211760    -2.1411964206
    3      H      -3.4141770171    -3.6799846046    -2.3403386754
    4      H      -2.5951118889    -4.4372883308    -1.0470048508
    5      H      -2.9786624935    -5.4511978763    -2.5005967355
    6      O      -2.2258484126    -3.2339355870    -4.7545297204
    7      C      -1.3174102493    -3.4878998964    -3.9916540863
    8      C       0.1234926717    -3.2246185223    -4.3773776795
    9      H       0.1480869095    -3.2913353464    -5.4721315280
   10      H       0.6355883147    -4.1350998730    -4.0423571390
   11      C       0.7190552949    -1.9046220190    -3.7775273705
   12      H       0.5058970827    -1.0413412553    -4.4204269735
   13      H       0.3485240239    -1.6786238599    -2.7710799505
   14      C       2.2462913541    -2.0981420471    -3.5236572893
   15      H       2.5684262694    -2.9364186366    -4.1534099835
   16      H       2.7055931272    -1.1555957073    -3.8486331017
   17      C       2.6673197039    -2.4099997708    -2.0828155600
   18      C       1.9748557906    -3.6933116394    -1.5546741237
   19      C       2.4362973915    -5.0079367835    -1.8908442880
   20      H       3.3463249076    -5.1338134053    -2.4696698197
   21      C       1.7751168834    -6.1887361224    -1.4320608347
   22      H       2.1289491969    -7.1609440385    -1.7642708013
   23      C       0.7607219284    -6.0795614981    -0.5173566330
   24      H       0.2702452880    -7.0070798960    -0.2364522242
   25      C       0.3217173143    -4.8192061327    -0.0765615541
   26      H      -0.4339993473    -4.7944512985     0.7032951798
   27      C       0.8990017614    -3.6253806880    -0.6627018742
   28      H       0.5554001275    -2.6128183561    -0.4739521959
   29      C       3.5366332205    -0.3313645526     2.8878197755
   30      C       5.1726688808    -2.1008930439     2.7347144641
   31      C       8.8629691498     0.4971212259     2.5836456746
   32      C       4.0375323801     2.8446425630    -0.9178365192
   33      C       8.9959986646     0.2389346582    -0.9046296649
   34      C       3.8906500122    -1.6306944767     2.4467927250
   35      C       6.7467856880     2.9476267460    -1.6735413370
   36      C       6.9096728221     0.7402447846     3.9879894329
   37      C       6.2679980646    -2.6198850343    -0.9776275586
   38      C       4.4582591344     2.1193561503    -2.0254405179
   39      C       4.0829504721    -2.0442999874    -1.7050283230
   40      C       6.3797862077    -1.8059366766    -2.1196155104
   41      C       6.1779492228     0.8934313284    -2.8869115451
   42      C       7.9464301911     2.3916351632    -1.3142191612
   43      C       4.6130928714    -2.8160573914     0.6886089815
   44      C       8.9481331766     1.9273100613     0.7951348462
   45      C       2.9439340203    -1.2591108596    -1.1181973797
   46      C       2.9482401534     0.2532185032    -1.5076346093
   47      C       9.3622855303     0.6724766150     0.3626387769
   48      C       5.5315529458     3.4063966749     2.1787772550
   49      C       7.6167431464     2.6472640708     2.6878209827
   50      C       6.7495215420     2.0853456156     3.5793070110
   51      C       5.7293750833    -0.0845999476     3.9789111342
   52      C       2.5697898230     0.9762512340    -0.3101271908
   53      C       4.9439680925    -2.7833102579    -0.6635800634
   54      C       6.0593262478    -1.3656225548     3.5713607581
   55      C       5.8283650576     2.1375165263    -2.4095888745
   56      C       5.6506419645    -2.8921466390     1.6822936929
   57      C       7.5380775190    -0.9649938431    -2.1714844700
   58      C       3.4280987373     2.6189041772     1.2181660127
   59      C       7.9600275959    -0.1103659979     3.5000630595
   60      C       5.1119114266    -1.3537447884    -2.4992416894
   61      C       4.2635501096     1.7053800100     3.4124352761
   62      C       7.4246808859     0.4087426606    -2.5958513183
   63      C       7.3408991582    -2.7670628296    -0.0134497015
   64      C       7.2322411668     3.5531915389     0.4800633760
   65      C       6.2791704484     3.6308984330    -0.4949991063
   66      C       8.4853355491    -1.9468495111    -0.0634942727
   67      C       3.0971878040     2.2934536705    -0.0979878240
   68      C       3.9690492836     0.8281951955    -2.3258720584
   69      C       4.5401153753     3.5158377557     1.1989266575
   70      C       2.7283974857    -1.2070113697     0.3364027872
   71      C       7.9216358445    -2.1170262292     2.1056188012
   72      C       5.0524807665     0.0401661540    -2.7586762310
   73      C       8.5335741309    -1.0230262856    -1.0864403550
   74      C       3.3360180866     1.7112626047     2.3030558363
   75      C       9.3037063551    -0.2012312146     1.4873174460
   76      C       4.4533385668     0.3399622463     3.7221588177
   77      C       8.6637586807     1.7959812151     2.1394926409
   78      C       6.9788881805    -2.8540856730     1.3625870265
   79      C       8.8546154929    -1.5347083645     1.2628846318
   80      C       3.5258892911    -2.0552453036     1.1617245510
   81      C       2.3503386880     0.0958978750     0.7807720542
   82      C       6.8898217666     3.4738639372     1.8347002594
   83      C       7.4421582144    -1.3632899801     3.1670498490
   84      C       8.3515182800     1.0732694670    -1.7618311936
   85      C       4.9144785479     3.5597640815    -0.1043356695
   86      C       8.3201076223     2.8346202422    -0.0260412243
   87      C       2.8167130143     0.5135013331     2.0652004638
   88      C       5.4145001004     2.5288945576     3.2794468992
   89      O     -10.1618857212    -1.3275492771     4.9447750008
   90      C     -10.8451391777    -0.0423517471     5.2517815530
   91      H     -10.1559660010     0.6615865892     5.7345404486
   92      H     -11.6190573102    -0.2495926888     6.0007567970
   93      H     -11.3145039735     0.3289040458     4.3325368496
   94      O      -8.4880884420    -0.3246265895     3.7254232259
   95      C      -9.0157072358    -1.3185975299     4.2244113802
   96      C      -8.5223104322    -2.7846253060     4.0522598369
   97      H      -9.2877311231    -3.2774513281     3.4406098735
   98      H      -8.3619147251    -3.2916829768     5.0121487553
   99      C      -7.1616303598    -2.9788471132     3.3128285486
  100      H      -6.5830008098    -2.1210677885     3.6790968572
  101      H      -6.5768068621    -3.8293981467     3.6834583046
  102      C      -7.2414808564    -2.9260996700     1.8148507098
  103      H      -7.5113758195    -3.9145729350     1.4229689507
  104      H      -7.9764013848    -2.2353050096     1.3832391319
  105      C      -5.8341224533    -2.6595786139     1.2851886931
  106      C      -4.9824042890    -3.9398102785     1.2670488617
  107      C      -5.1723587493    -4.8743728198     0.2366585671
  108      H      -5.8782285117    -4.6566202098    -0.5586015661
  109      C      -4.4169362774    -6.0338016412     0.2431928657
  110      H      -4.6033505562    -6.6661780053    -0.6209927919
  111      C      -3.4151777827    -6.1541725045     1.1662718297
  112      H      -2.7321088032    -6.9954150220     1.0951888093
  113      C      -3.1613669046    -5.2028840688     2.1755291558
  114      H      -2.4660755549    -5.3566624724     2.9952310172
  115      C      -3.9693417670    -4.0906150724     2.2480846616
  116      H      -3.8043889178    -3.3353274085     3.0111653272
  117      C      -1.4133593506     0.6030814372     1.3551742725
  118      C      -1.3113861979    -0.4418743036    -0.8338309756
  119      C      -2.4667670990     3.3453623689    -3.2374481164
  120      C      -5.9073693411     2.7373993345     2.0234663631
  121      C      -5.7369376490     2.3437030783    -3.4577212178
  122      C      -1.6223572412    -0.5266680305     0.4919767156
  123      C      -6.8829660298     3.6838895301    -0.4001029903
  124      C      -0.9976142338     3.0095321914    -1.3116524496
  125      C      -4.9930871242    -1.4006201813    -2.2502015598
  126      C      -6.9011707360     1.9970822689     1.3490196047
  127      C      -5.6153515720    -1.7928950077     0.0502454441
  128      C      -6.2397110677    -0.7589819193    -2.0808437013
  129      C      -7.5260917350     1.3394554031    -0.7012656561
  130      C      -6.6891191599     3.8448749668    -1.7880295302
  131      C      -3.2149845189    -1.6842246246    -0.6625530958
  132      C      -4.5297532364     4.2414928918    -2.8735768713
  133      C      -5.1826773744    -1.3293530875     1.3979111768
  134      C      -5.7698556658    -0.1074783178     1.9151052421
  135      C      -4.6790424082     3.1526056385    -3.6768565814
  136      C      -3.1482152283     4.6168112105     0.9037250616
  137      C      -2.7056519537     4.6836171530    -1.3043937563
  138      C      -1.6168392044     4.0842919604    -0.6292670198
  139      C      -0.6995199334     1.8885509390    -0.6030998264
  140      C      -4.8072115580     0.6594025576     2.6355801166
  141      C      -4.5618559184    -1.8987789333    -1.0124800624
  142      C      -0.7852733328     0.7640914455    -1.4294624599
  143      C      -7.3166119771     2.4215010297     0.0812466397
  144      C      -2.2914151690    -1.1582164192    -1.5725157455
  145      C      -6.6126689908     0.4026265944    -2.7072022636
  146      C      -3.7026481254     2.8806672274     2.5913886041
  147      C      -1.4145317633     2.6411906467    -2.5925752732
  148      C      -6.6071736411    -0.8762852930    -0.6682095747
  149      C      -1.5507637953     2.8758581143     1.4208568009
  150      C      -7.2513616468     1.4280293311    -2.0455747864
  151      C      -4.1157196416    -0.8183165615    -3.1536669963
  152      C      -5.0507619973     4.9550656564    -0.6353021382
  153      C      -5.9150493916     4.4355949625     0.3003492382
  154      C      -4.5164363547     0.3530638142    -3.8606168751
  155      C      -4.8502901994     2.0637444218     2.6983269018
  156      C      -6.7939308982     0.5869517952     1.2719958140
  157      C      -4.0713580245     4.0096896689     1.8572473799
  158      C      -3.7415748100    -1.0498397397     1.6476043627
  159      C      -2.1727925197     0.4661902332    -3.4133138590
  160      C      -7.2148112562     0.1956751218     0.0155531018
  161      C      -5.7110431610     0.9499826401    -3.6563535805
  162      C      -2.4337461121     2.3079758487     2.4153963730
  163      C      -3.4392465199     2.5675600172    -3.8305731265
  164      C      -0.9403296862     1.8193202229     0.7855742789
  165      C      -3.1740911508     4.3485439356    -2.5547267750
  166      C      -2.7206168447    -0.6966061551    -2.8318957063
  167      C      -3.3159571784     1.1121018709    -3.8704645118
  168      C      -2.8093494248    -1.2724734940     0.6011269178
  169      C      -3.5670143625     0.1158890606     2.4525391516
  170      C      -3.6893574555     4.9980568761    -0.3265199678
  171      C      -1.2403165348     1.2061942959    -2.6737203729
  172      C      -6.7626561454     2.6194512439    -2.5506349399
  173      C      -5.4235725144     3.9730716540     1.5508993845
  174      C      -5.4920775391     4.5916596605    -1.8809917764
  175      C      -2.3569928643     0.9294226447     2.3395741954
  176      C      -1.8983678937     4.0127137774     0.7167519849
 ----------------------------------------------------------------

    9   -5804.2312653206      9.92E-06 Convergence criterion met
 Total energy in the final basis set = -5804.2312653206

                    Orbital Energies (a.u.)
 --------------------------------------------------------------

 Alpha MOs
 -- Occupied --
-19.203 -19.183 -19.145 -19.124 -10.329 -10.303 -10.258 -10.239
-10.239 -10.238 -10.238 -10.237 -10.236 -10.233 -10.232 -10.230
-10.230 -10.226 -10.226 -10.225 -10.224 -10.224 -10.223 -10.222
-10.220 -10.220 -10.219 -10.219 -10.218 -10.218 -10.218 -10.218
-10.218 -10.218 -10.217 -10.217 -10.217 -10.217 -10.217 -10.217
-10.216 -10.216 -10.216 -10.216 -10.216 -10.215 -10.215 -10.215
-10.215 -10.214 -10.214 -10.214 -10.214 -10.214 -10.213 -10.213
-10.213 -10.213 -10.213 -10.213 -10.212 -10.212 -10.212 -10.212
-10.212 -10.212 -10.212 -10.212 -10.212 -10.211 -10.211 -10.211
-10.211 -10.211 -10.211 -10.211 -10.211 -10.211 -10.211 -10.210
-10.210 -10.210 -10.210 -10.210 -10.210 -10.210 -10.209 -10.209
-10.209 -10.209 -10.209 -10.209 -10.209 -10.208 -10.208 -10.208
-10.208 -10.208 -10.208 -10.208 -10.208 -10.208 -10.208 -10.208
-10.208 -10.208 -10.207 -10.207 -10.207 -10.207 -10.207 -10.207
-10.207 -10.207 -10.207 -10.207 -10.207 -10.207 -10.206 -10.206
-10.206 -10.206 -10.206 -10.206 -10.205 -10.205 -10.205 -10.205
-10.205 -10.205 -10.205 -10.204 -10.203 -10.203 -10.203 -10.203
-10.203 -10.202 -10.201 -10.200 -10.199 -10.199 -10.197 -10.197
-10.195 -10.194 -10.193 -10.189  -1.095  -1.073  -1.012  -1.000
 -0.982  -0.980  -0.966  -0.963  -0.962  -0.960  -0.959  -0.958
 -0.937  -0.932  -0.926  -0.925  -0.925  -0.922  -0.921  -0.920
 -0.919  -0.917  -0.899  -0.893  -0.888  -0.887  -0.884  -0.884
 -0.879  -0.867  -0.865  -0.846  -0.841  -0.841  -0.838  -0.835
 -0.834  -0.833  -0.822  -0.816  -0.807  -0.798  -0.796  -0.795
 -0.795  -0.794  -0.791  -0.790  -0.788  -0.788  -0.783  -0.779
 -0.771  -0.771  -0.770  -0.767  -0.764  -0.764  -0.763  -0.762
 -0.757  -0.750  -0.739  -0.735  -0.734  -0.728  -0.715  -0.714
 -0.713  -0.712  -0.711  -0.710  -0.710  -0.709  -0.708  -0.707
 -0.705  -0.704  -0.704  -0.700  -0.699  -0.693  -0.674  -0.670
 -0.659  -0.656  -0.654  -0.653  -0.647  -0.642  -0.631  -0.631
 -0.627  -0.626  -0.626  -0.623  -0.619  -0.618  -0.618  -0.615
 -0.614  -0.613  -0.613  -0.612  -0.610  -0.609  -0.608  -0.606
 -0.603  -0.600  -0.600  -0.597  -0.570  -0.564  -0.561  -0.560
 -0.557  -0.557  -0.556  -0.555  -0.553  -0.552  -0.551  -0.550
 -0.540  -0.533  -0.530  -0.528  -0.527  -0.526  -0.525  -0.522
 -0.519  -0.519  -0.518  -0.516  -0.516  -0.513  -0.510  -0.509
 -0.507  -0.503  -0.501  -0.494  -0.491  -0.488  -0.487  -0.484
 -0.483  -0.482  -0.479  -0.479  -0.477  -0.475  -0.475  -0.473
 -0.472  -0.471  -0.468  -0.467  -0.467  -0.466  -0.465  -0.464
 -0.463  -0.462  -0.461  -0.460  -0.460  -0.459  -0.458  -0.455
 -0.454  -0.453  -0.451  -0.450  -0.449  -0.447  -0.445  -0.443
 -0.443  -0.442  -0.439  -0.437  -0.437  -0.435  -0.435  -0.434
 -0.431  -0.429  -0.428  -0.428  -0.427  -0.424  -0.422  -0.421
 -0.421  -0.420  -0.418  -0.417  -0.416  -0.416  -0.415  -0.415
 -0.414  -0.414  -0.413  -0.412  -0.412  -0.411  -0.411  -0.410
 -0.409  -0.408  -0.406  -0.406  -0.402  -0.400  -0.396  -0.396
 -0.394  -0.391  -0.388  -0.388  -0.387  -0.385  -0.382  -0.381
 -0.379  -0.377  -0.376  -0.372  -0.369  -0.369  -0.366  -0.365
 -0.363  -0.363  -0.361  -0.361  -0.360  -0.359  -0.358  -0.357
 -0.355  -0.355  -0.354  -0.354  -0.353  -0.352  -0.350  -0.348
 -0.348  -0.347  -0.345  -0.345  -0.343  -0.343  -0.341  -0.340
 -0.338  -0.338  -0.338  -0.336  -0.334  -0.333  -0.332  -0.331
 -0.329  -0.328  -0.327  -0.326  -0.324  -0.323  -0.320  -0.318
 -0.315  -0.309  -0.307  -0.293  -0.285  -0.284  -0.279  -0.275
 -0.269  -0.269  -0.267  -0.265  -0.264  -0.263  -0.263  -0.260
 -0.260  -0.259  -0.258  -0.257  -0.254  -0.253  -0.253  -0.251
 -0.250  -0.244  -0.240  -0.238  -0.220  -0.219  -0.212  -0.208
 -0.205  -0.204  -0.202  -0.199  -0.198  -0.194

          Ground-State Mulliken Net Atomic Charges

     Atom                 Charge (a.u.)
  ----------------------------------------
      1 O                    -0.472907
      2 C                    -0.085868
      3 H                     0.129402
      4 H                     0.136877
      5 H                     0.113500
      6 O                    -0.476985
      7 C                     0.588705
      8 C                    -0.245611
      9 H                     0.124033
     10 H                     0.128406
     11 C                    -0.199185
     12 H                     0.119784
     13 H                     0.124019
     14 C                    -0.175647
     15 H                     0.110033
     16 H                     0.102562
     17 C                    -0.002902
     18 C                     0.107988
     19 C                    -0.135714
     20 H                     0.085674
     21 C                    -0.075567
     22 H                     0.089524
     23 C                    -0.080294
     24 H                     0.082476
     25 C                    -0.096457
     26 H                     0.092935
     27 C                    -0.101971
     28 H                     0.090847
     29 C                    -0.009606
     30 C                     0.000014
     31 C                     0.002318
     32 C                     0.019157
     33 C                     0.028873
     34 C                    -0.030355
     35 C                    -0.013463
     36 C                    -0.003220
     37 C                     0.032564
     38 C                    -0.005477
     39 C                    -0.090015
     40 C                    -0.021608
     41 C                     0.018250
     42 C                    -0.003696
     43 C                    -0.020143
     44 C                     0.027977
     45 C                    -0.074137
     46 C                     0.011944
     47 C                    -0.018549
     48 C                     0.010895
     49 C                    -0.014528
     50 C                    -0.002330
     51 C                     0.033091
     52 C                    -0.003775
     53 C                     0.032193
     54 C                    -0.021886
     55 C                    -0.008146
     56 C                     0.018250
     57 C                    -0.033457
     58 C                    -0.024740
     59 C                    -0.021048
     60 C                     0.036312
     61 C                    -0.049740
     62 C                    -0.023607
     63 C                    -0.006733
     64 C                     0.012496
     65 C                    -0.011790
     66 C                    -0.023990
     67 C                     0.001906
     68 C                    -0.011896
     69 C                    -0.024671
     70 C                     0.028574
     71 C                     0.022651
     72 C                     0.017066
     73 C                     0.025422
     74 C                     0.026089
     75 C                    -0.010905
     76 C                     0.001049
     77 C                     0.009471
     78 C                    -0.015512
     79 C                    -0.008182
     80 C                     0.015428
     81 C                    -0.003368
     82 C                     0.005451
     83 C                     0.007749
     84 C                     0.004853
     85 C                     0.018699
     86 C                    -0.017356
     87 C                     0.027642
     88 C                     0.009553
     89 O                    -0.466629
     90 C                    -0.088695
     91 H                     0.140884
     92 H                     0.130743
     93 H                     0.138560
     94 O                    -0.475473
     95 C                     0.599263
     96 C                    -0.265492
     97 H                     0.133448
     98 H                     0.131488
     99 C                    -0.188324
    100 H                     0.121311
    101 H                     0.107371
    102 C                    -0.177158
    103 H                     0.107261
    104 H                     0.117141
    105 C                     0.012560
    106 C                     0.075372
    107 C                    -0.107941
    108 H                     0.100835
    109 C                    -0.083128
    110 H                     0.097507
    111 C                    -0.098936
    112 H                     0.089613
    113 C                    -0.094065
    114 H                     0.099736
    115 C                    -0.099700
    116 H                     0.103008
    117 C                    -0.027398
    118 C                    -0.025475
    119 C                    -0.033712
    120 C                    -0.010188
    121 C                     0.025258
    122 C                    -0.002981
    123 C                     0.010231
    124 C                    -0.004794
    125 C                     0.011038
    126 C                    -0.018703
    127 C                    -0.103000
    128 C                     0.005079
    129 C                    -0.000043
    130 C                    -0.068356
    131 C                     0.009224
    132 C                     0.013510
    133 C                    -0.062186
    134 C                     0.073183
    135 C                    -0.000316
    136 C                    -0.024877
    137 C                     0.002553
    138 C                    -0.012139
    139 C                     0.012436
    140 C                    -0.005570
    141 C                     0.018457
    142 C                     0.001735
    143 C                     0.020034
    144 C                     0.004476
    145 C                    -0.006995
    146 C                     0.013092
    147 C                     0.008675
    148 C                    -0.001179
    149 C                     0.003044
    150 C                     0.010489
    151 C                     0.022287
    152 C                     0.038793
    153 C                    -0.012293
    154 C                     0.013117
    155 C                    -0.007976
    156 C                     0.027145
    157 C                    -0.005287
    158 C                    -0.015778
    159 C                    -0.024156
    160 C                    -0.016391
    161 C                    -0.022890
    162 C                    -0.025928
    163 C                    -0.003716
    164 C                     0.016289
    165 C                     0.001929
    166 C                     0.013324
    167 C                     0.017219
    168 C                     0.004114
    169 C                     0.002247
    170 C                    -0.001605
    171 C                    -0.008861
    172 C                     0.006534
    173 C                    -0.002309
    174 C                    -0.002928
    175 C                     0.014928
    176 C                     0.021367
  ----------------------------------------
  Sum of atomic charges =     0.000000

                    Cartesian Multipole Moments
 -----------------------------------------------------------------
    Charge (ESU x 10^10)
                 0.0000
    Dipole Moment (Debye)
         X      -5.1010      Y      -4.6706      Z       3.4578
       Tot       7.7325
    Quadrupole Moments (Debye-Ang)
        XX    -776.1254     XY      16.6219     YY    -786.5644
        XZ     -39.0195     YZ      -5.3485     ZZ    -806.0170

 Total job time:  883.35s(wall), 7529.14s(cpu)
        *  Thank you very much for using Q-Chem.  Have a nice day.  *
