 Q-Chem 4.4, Q-Chem, Inc., Pleasanton, CA (2016)
 Q-Chem 4.4.2 for Intel X86 Linux

User input:
--------------------------------------------------------------
$comment
SP
$end

$rem
MEM_STATIC 5000
MEM_TOTAL 20000
JOBTYPE SP
EXCHANGE B3LYP
BASIS 6-31g(d,p)
$end

$molecule
0 1
O          -8.316000     32.225000    -13.060000
C          -8.637000     33.632000    -12.636000
H          -7.814000     34.253000    -13.012000
H          -8.740000     33.663000    -11.544000
H          -9.586000     34.031000    -13.015000
O          -6.364000     32.137000    -11.856000
C          -7.172000     31.600000    -12.613000
C          -6.954000     30.199000    -13.205000
H          -6.068000     29.829000    -12.674000
H          -6.621000     30.329000    -14.242000
C          -8.176000     29.251000    -13.034000
H          -8.948000     29.560000    -13.750000
H          -7.876000     28.246000    -13.356000
C          -8.699000     29.359000    -11.562000
H          -7.882000     29.259000    -10.837000
H          -9.082000     30.373000    -11.393000
C          -9.797000     28.285000    -11.181000
C         -10.812000     28.247000    -12.282000
C         -10.770000     27.253000    -13.238000
H         -10.109000     26.394000    -13.180000
C         -11.723000     27.246000    -14.292000
H         -11.752000     26.437000    -15.015000
C         -12.654000     28.284000    -14.371000
H         -13.470000     28.314000    -15.087000
C         -12.678000     29.289000    -13.415000
H         -13.367000     30.125000    -13.487000
C         -11.700000     29.338000    -12.377000
H         -11.789000     30.085000    -11.594000
C         -13.635000     26.710000     -7.454000
C         -13.033000     24.651000     -8.661000
C         -10.683000     22.724000     -5.295000
C          -9.325000     28.827000     -5.746000
C          -7.575000     23.581000     -6.536000
C         -13.246000     26.028000     -8.713000
C          -7.449000     26.889000     -4.986000
C         -12.775000     23.948000     -5.226000
C          -9.196000     24.751000    -10.036000
C          -8.261000     28.571000     -6.606000
C          -9.445000     27.109000    -10.281000
C          -8.030000     25.355000     -9.530000
C          -7.067000     26.887000     -7.446000
C          -7.252000     25.471000     -4.989000
C         -11.481000     25.573000    -10.096000
C          -8.818000     23.643000     -4.496000
C         -10.289000     28.216000     -9.732000
C          -9.760000     28.872000     -8.484000
C          -8.517000     23.007000     -5.673000
C         -11.331000     26.720000     -3.714000
C         -10.957000     24.459000     -3.716000
C         -12.260000     24.718000     -4.153000
C         -13.521000     24.525000     -6.244000
C         -10.807000     28.983000     -7.567000
C         -10.101000     25.785000    -10.339000
C         -13.231000     23.901000     -7.491000
C          -7.383000     27.531000     -6.273000
C         -11.935000     24.403000     -9.520000
C          -7.291000     24.773000     -8.463000
C         -11.554000     28.524000     -5.318000
C         -11.999000     23.004000     -5.843000
C          -8.140000     26.744000     -9.630000
C         -13.238000     26.780000     -5.215000
C          -6.767000     25.521000     -7.407000
C          -9.658000     23.580000     -9.484000
C          -8.981000     25.952000     -3.650000
C          -8.514000     27.177000     -4.165000
C          -8.939000     22.957000     -8.421000
C         -10.587000     29.069000     -6.224000
C          -8.492000     28.562000     -7.971000
C         -10.866000     27.939000     -4.271000
C         -11.684000     27.881000     -9.317000
C         -11.178000     22.593000     -8.034000
C          -7.731000     27.489000     -8.526000
C          -7.727000     23.528000     -7.966000
C         -12.790000     27.968000     -5.782000
C          -9.691000     22.439000     -6.183000
C         -13.754000     25.946000     -6.233000
C         -10.188000     23.448000     -4.265000
C         -11.044000     23.364000     -9.196000
C          -9.883000     22.331000     -7.540000
C         -12.303000     26.597000     -9.594000
C         -11.980000     28.412000     -8.078000
C         -10.370000     25.735000     -3.436000
C         -12.263000     22.874000     -7.217000
C          -6.926000     24.802000     -6.209000
C          -9.506000     28.178000     -4.536000
C          -8.215000     24.948000     -4.136000
C         -12.968000     27.900000     -7.182000
C         -12.477000     26.120000     -4.176000
O          -9.974000     11.456000     -6.512000
C         -10.506000     10.709000     -7.635000
H          -9.862000     10.764000     -8.521000
H         -11.525000     11.021000     -7.897000
H         -10.486000      9.627000     -7.456000
O         -11.914000     11.121000     -5.393000
C         -10.823000     11.660000     -5.457000
C         -10.285000     12.541000     -4.371000
H          -9.192000     12.466000     -4.420000
H         -10.567000     12.078000     -3.418000
C         -10.801000     13.998000     -4.322000
H         -11.853000     14.050000     -4.018000
H         -10.258000     14.604000     -3.586000
C         -10.472000     14.703000     -5.636000
H          -9.376000     14.740000     -5.685000
H         -10.787000     14.043000     -6.454000
C         -11.189000     16.095000     -5.854000
C         -10.551000     17.132000     -5.089000
C          -9.672000     18.046000     -5.741000
H          -9.441000     18.021000     -6.802000
C          -9.178000     19.181000     -5.114000
H          -8.595000     19.930000     -5.641000
C          -9.403000     19.340000     -3.750000
H          -9.117000     20.211000     -3.168000
C         -10.238000     18.458000     -3.109000
H         -10.467000     18.562000     -2.052000
C         -10.772000     17.355000     -3.733000
H         -11.425000     16.679000     -3.189000
C         -15.778000     19.222000     -6.026000
C         -14.315000     20.292000     -7.551000
C         -16.544000     19.175000    -11.297000
C         -16.381000     14.287000     -7.180000
C         -14.426000     16.458000    -12.062000
C         -14.475000     19.602000     -6.335000
C         -16.192000     14.070000     -9.987000
C         -17.398000     19.854000     -9.167000
C         -11.765000     17.698000     -9.263000
C         -15.190000     13.955000     -7.812000
C         -11.816000     16.481000     -7.205000
C         -11.953000     16.330000     -9.592000
C         -13.768000     14.140000     -9.588000
C         -15.984000     14.763000    -11.149000
C         -12.497000     18.966000     -7.301000
C         -16.821000     16.959000    -11.821000
C         -12.758000     16.265000     -6.058000
C         -13.855000     15.217000     -6.234000
C         -15.539000     17.392000    -12.154000
C         -18.623000     16.625000     -8.261000
C         -18.264000     17.819000    -10.145000
C         -18.235000     18.728000     -9.114000
C         -16.746000     20.329000     -7.967000
C         -15.049000     15.686000     -5.703000
C         -11.799000     17.880000     -7.843000
C         -15.404000     20.596000     -8.336000
C         -15.077000     13.788000     -9.230000
C         -13.096000     19.950000     -8.139000
C         -12.710000     15.979000    -10.696000
C         -17.338000     16.042000     -6.323000
C         -16.503000     20.090000    -10.226000
C         -12.024000     15.575000     -8.435000
C         -17.718000     18.379000     -6.849000
C         -13.612000     14.913000    -10.710000
C         -12.364000     18.732000    -10.058000
C         -17.974000     15.434000    -10.212000
C         -17.385000     14.473000     -9.391000
C         -13.096000     18.344000    -11.237000
C         -16.307000     15.170000     -6.128000
C         -13.941000     14.417000     -7.390000
C         -18.127000     15.636000     -7.386000
C         -13.580000     17.472000     -5.600000
C         -14.046000     20.181000    -10.274000
C         -13.017000     14.519000     -8.455000
C         -13.224000     16.989000    -11.546000
C         -17.195000     17.395000     -6.057000
C         -15.345000     18.766000    -11.872000
C         -16.893000     19.503000     -6.836000
C         -17.431000     18.047000    -11.282000
C         -12.934000     19.858000     -9.482000
C         -14.135000     19.289000    -11.363000
C         -13.406000     18.738000     -6.191000
C         -14.927000     17.058000     -5.370000
C         -18.503000     16.536000     -9.623000
C         -15.290000     20.513000     -9.693000
C         -14.729000     15.257000    -11.490000
C         -17.482000     14.525000     -7.949000
C         -17.058000     15.647000    -11.278000
C         -15.974000     17.924000     -5.591000
C         -18.364000     18.020000     -7.975000
$end

--------------------------------------------------------------

             Standard Nuclear Orientation (Angstroms)
    I     Atom           X                Y                Z
 ----------------------------------------------------------------
    1      O     -11.6100710577     3.3273889437     2.1499895124
    2      C     -12.7658223426     3.3734552364     1.1884371923
    3      H     -13.6706224758     3.2899944766     1.8038370789
    4      H     -12.6596170123     2.5592836802     0.4605092392
    5      H     -12.8325684388     4.2829709352     0.5787084393
    6      O     -12.1159231908     1.2204087513     2.9065687138
    7      C     -11.3965789877     2.2182744944     2.9395819860
    8      C     -10.2248016713     2.3675812404     3.9221472084
    9      H     -10.1488743822     1.3763552009     4.3864348190
   10      H     -10.5577882160     3.0279139236     4.7322328265
   11      C      -8.8920937889     2.7991939011     3.2447778769
   12      H      -8.9686020449     3.8646496029     2.9936372103
   13      H      -8.0934966743     2.7408811592     3.9948120579
   14      C      -8.6735143121     1.9328481476     1.9588365689
   15      H      -8.8065942794     0.8641653417     2.1669730208
   16      H      -9.4646566781     2.1633635717     1.2346802350
   17      C      -7.2489505187     2.1059906181     1.2918428032
   18      C      -6.9507852207     3.5714544831     1.2059177452
   19      C      -6.1274896851     4.1733604464     2.1352345224
   20      H      -5.5591818414     3.6221505244     2.8777705934
   21      C      -5.8760294550     5.5697062489     2.0567478837
   22      H      -5.1784745870     6.0517604457     2.7343111334
   23      C      -6.5164018677     6.3192563466     1.0675341433
   24      H      -6.3177744249     7.3700865712     0.8785500749
   25      C      -7.3563451222     5.7085423602     0.1477185335
   26      H      -7.8945406641     6.2838661031    -0.5993752689
   27      C      -7.6572168571     4.3166606685     0.2397541544
   28      H      -8.2496378362     3.8455537459    -0.5387795000
   29      C      -4.0802226170     1.0977751687    -3.1852168449
   30      C      -2.4888579760     1.4256606453    -1.3362215249
   31      C      -1.2318986725    -2.9130963483    -0.9349409993
   32      C      -7.4320082419    -2.4587399171    -1.7389158495
   33      C      -3.2488427147    -3.5855806855     1.7879059569
   34      C      -3.6980742162     1.7878490562    -1.9285201314
   35      C      -6.2303906967    -4.4301776545    -0.1507192236
   36      C      -1.6179066753    -1.5860043112    -2.9272325310
   37      C      -4.0738777330     0.3317419018     2.2574184338
   38      C      -7.6507845356    -2.4178552902    -0.3649808508
   39      C      -6.1998749297     1.0105761280     1.4198564880
   40      C      -5.0057819161    -0.6612507380     2.6122820851
   41      C      -6.5862024866    -2.6728538541     1.5763415833
   42      C      -4.9822937327    -4.7447904817     0.4760301180
   43      C      -4.0288511565     1.8162632548     0.3352639239
   44      C      -2.6796077846    -4.4998130413    -0.3453178462
   45      C      -6.8789014194     1.2148680053     0.1021410956
   46      C      -7.5652150838     0.0002458536    -0.4647341838
   47      C      -2.3014733744    -3.8183020553     0.7829477005
   48      C      -4.5744324896    -3.2373711718    -3.6935266007
   49      C      -2.6054462970    -3.7758106774    -2.6518081781
   50      C      -2.4209918229    -2.6354871349    -3.4401594737
   51      C      -1.9800894092    -0.2542855525    -3.0725522301
   52      C      -7.2125323386    -0.1170744339    -1.8105684349
   53      C      -4.7399667442     1.2458289484     1.4203041642
   54      C      -1.6154929276     0.4915781349    -1.9152960936
   55      C      -6.9667873818    -3.3413465993     0.4366953280
   56      C      -2.7271077241     1.4472713148     0.0593998552
   57      C      -4.6320424115    -2.0290472286     2.7253552603
   58      C      -6.3168688292    -1.5602565438    -3.5257078682
   59      C      -1.0723290350    -1.6730085012    -1.6747245233
   60      C      -6.2672072606    -0.3181745002     2.1198130046
   61      C      -4.0853259004    -0.9215613004    -4.2330165303
   62      C      -5.4194091904    -3.0732087285     2.2364827641
   63      C      -2.7705121572    -0.0134799280     1.9901188565
   64      C      -4.6924928271    -4.7548679307    -1.7442484411
   65      C      -6.0445258490    -4.4345372811    -1.5133069280
   66      C      -2.3518744578    -1.3724005699     2.1047319697
   67      C      -7.2500564673    -1.3115435122    -2.4672879800
   68      C      -7.6829216155    -1.1883070428     0.2705073988
   69      C      -5.9239537534    -2.8829760541    -3.4373402251
   70      C      -6.0325739916     1.6380167882    -1.0533458115
   71      C      -1.1801353304    -0.4439287454     0.3553453663
   72      C      -7.0064550268    -1.3350093870     1.5192453124
   73      C      -3.2740859225    -2.3556591353     2.5345442635
   74      C      -5.4008580038    -0.5537626972    -3.9729464003
   75      C      -1.4005533803    -2.8123144242     0.4123643088
   76      C      -3.2174185758     0.0750960936    -3.7314720011
   77      C      -1.9889469018    -3.9230616081    -1.4217152307
   78      C      -2.0494863908     0.5236593693     0.8755789427
   79      C      -1.3538160932    -1.6258987870     1.1053365751
   80      C      -4.6427709747     2.0337496658    -0.9105555325
   81      C      -6.3092692219     0.8887100510    -2.1788133424
   82      C      -3.9761289601    -4.1566398359    -2.8171659388
   83      C      -0.9809893129    -0.4345364557    -1.0172170726
   84      C      -4.5862579703    -4.0478614890     1.6591119639
   85      C      -6.6550255838    -3.4203090917    -2.3632111894
   86      C      -4.0757616836    -4.9500405330    -0.5557542880
   87      C      -5.4001804499     0.6648868904    -3.2579633771
   88      C      -3.6494188781    -2.2907235448    -4.0609066340
   89      O       8.8839745081    -3.9596038663     4.1173382694
   90      C       9.6672326802    -2.8568103593     4.6393680739
   91      H       9.3066822714    -2.5080881316     5.6146389135
   92      H       9.7168830281    -2.0134596637     3.9389086196
   93      H      10.6823799929    -3.1674523426     4.9153073640
   94      O       9.9880204932    -3.7880692226     2.1476569934
   95      C       9.0919928642    -4.2887898432     2.8043999783
   96      C       8.1786560600    -5.3460771245     2.2631417342
   97      H       7.8542318444    -5.9480688120     3.1204806034
   98      H       8.7955553971    -6.0160503850     1.6526722116
   99      C       7.0121867964    -4.8788029879     1.3617481807
  100      H       7.3663341565    -4.5088040491     0.3924678123
  101      H       6.3212854328    -5.6969889497     1.1229846204
  102      C       6.1209909754    -3.9109717199     2.1369479260
  103      H       5.6913467791    -4.4986319962     2.9585605259
  104      H       6.7734225519    -3.1661468560     2.6097247868
  105      C       5.0626055553    -3.1223601718     1.2667817760
  106      C       3.9396461523    -3.9568656302     0.9348166887
  107      C       2.7175664856    -3.8086931357     1.6543354168
  108      H       2.5629283907    -3.0924402829     2.4560684837
  109      C       1.5424021392    -4.4350976011     1.2644685106
  110      H       0.5905623752    -4.2403122977     1.7489050382
  111      C       1.5975689178    -5.3792284975     0.2436965101
  112      H       0.7380219338    -5.8872998999    -0.1831564300
  113      C       2.7732110375    -5.5393539262    -0.4478636488
  114      H       2.8533127717    -6.2422147599    -1.2725310732
  115      C       3.9331519848    -4.8876933807    -0.0999893437
  116      H       4.8436000406    -5.0452903491    -0.6705754750
  117      C       3.7756926208     0.1121393904    -3.0631722286
  118      C       2.1217072668     0.6476845547    -1.4543161674
  119      C       3.6180456464     4.7856230740    -0.5124657206
  120      C       8.4759518251     0.6802076394    -1.1567588744
  121      C       5.3204866133     3.7890466011     2.4135841914
  122      C       2.9298680050    -0.3367055155    -2.0528213144
  123      C       8.3576562857     2.7970666881     0.7052220421
  124      C       3.4829116608     3.6630667775    -2.6216985591
  125      C       3.4704702654     0.1809497856     2.3040447824
  126      C       8.3030864243     0.4535885497     0.2022445625
  127      C       4.8056243286    -1.6189378561     1.4692860717
  128      C       4.7800130533     0.3577708117     2.8225435880
  129      C       7.4640985656     1.0876904907     2.2282009048
  130      C       7.5344504881     3.7107722800     1.3062472546
  131      C       2.7289898038    -0.7924429345     0.1837133607
  132      C       5.7303368556     5.0489740533     0.3424220553
  133      C       5.4456511032    -2.0286733748     0.1761845550
  134      C       6.7955385932    -1.4045113645    -0.1715431391
  135      C       4.8405548223     4.6391442928     1.3334969771
  136      C       7.0039855600     3.1782911356    -2.9607165127
  137      C       5.5960524576     4.6572631241    -1.9941042657
  138      C       4.8332329664     3.9418963174    -2.8865390003
  139      C       2.9167301371     2.3901140715    -3.0086854976
  140      C       6.8329835879    -1.0753024523    -1.5197928803
  141      C       3.4411809196    -0.9151130752     1.3829213707
  142      C       2.1566772002     1.9508056167    -1.8961471321
  143      C       8.2904362460     1.5046133420     1.1751622665
  144      C       1.9521173223     0.3680968489    -0.0972093310
  145      C       5.2769698002     1.6318984875     3.0339641580
  146      C       7.2623637155     0.7949759706    -2.9579682266
  147      C       2.8489684199     4.0320301784    -1.4216219048
  148      C       5.6115700211    -0.6398518363     2.3461224912
  149      C       5.1773123722     1.7723264681    -3.7195402197
  150      C       6.5886434857     2.0107090979     2.7404157562
  151      C       2.6509730839     1.3140851872     1.9809185978
  152      C       7.7044502487     4.2017709666    -0.9339157688
  153      C       8.4619703109     3.0639686765    -0.6581399468
  154      C       3.1666701445     2.6287874988     2.2673158280
  155      C       7.7231538073    -0.0817373597    -2.0196632508
  156      C       7.4660707563    -0.5401158842     0.7155527248
  157      C       7.8255675216     2.0467122068    -2.7755295577
  158      C       4.6575963500    -1.7495631065    -1.1057531050
  159      C       1.8838753365     2.6660453569     0.3811855746
  160      C       6.9458544529    -0.2022778120     1.9858461692
  161      C       4.4445288955     2.7567728949     2.8137467485
  162      C       5.9771449632     0.6926241710    -3.4674295771
  163      C       3.5190619876     4.4975132459     0.8449958672
  164      C       3.8390714326     1.4470651058    -3.5016268562
  165      C       4.9846356299     5.1235693165    -0.7910373524
  166      C       1.8590022428     1.3413004778     0.8422379951
  167      C       2.6470606719     3.4651049186     1.2578599502
  168      C       3.3650771498    -1.1931889968    -1.0593314823
  169      C       5.5436164012    -1.2166856697    -2.0904942416
  170      C       6.9213472575     4.1914353688    -2.0419811462
  171      C       2.0710490907     2.9642518337    -0.9867909906
  172      C       6.5968516421     3.3317016910     2.2615251683
  173      C       8.5780154490     1.9679219680    -1.5944583427
  174      C       7.0837763831     4.5609478475     0.2934948882
  175      C       5.0917707196    -0.3106953443    -3.0232444817
  176      C       5.6401460771     2.9989520290    -3.4109179671
 ----------------------------------------------------------------

    9   -5804.2563631293      8.76E-06 Convergence criterion met
 Total energy in the final basis set = -5804.2563631293

                    Orbital Energies (a.u.)
 --------------------------------------------------------------

 Alpha MOs
 -- Occupied --
-19.196 -19.193 -19.135 -19.133 -10.320 -10.316 -10.256 -10.244
-10.243 -10.243 -10.242 -10.242 -10.240 -10.240 -10.231 -10.229
-10.228 -10.228 -10.227 -10.226 -10.226 -10.224 -10.223 -10.223
-10.222 -10.221 -10.221 -10.221 -10.220 -10.220 -10.219 -10.219
-10.219 -10.219 -10.219 -10.219 -10.219 -10.218 -10.218 -10.218
-10.218 -10.218 -10.217 -10.217 -10.217 -10.217 -10.217 -10.216
-10.216 -10.216 -10.216 -10.216 -10.216 -10.216 -10.216 -10.216
-10.216 -10.216 -10.216 -10.216 -10.215 -10.215 -10.215 -10.215
-10.215 -10.215 -10.215 -10.214 -10.214 -10.214 -10.214 -10.214
-10.214 -10.214 -10.214 -10.213 -10.213 -10.213 -10.213 -10.213
-10.213 -10.213 -10.213 -10.212 -10.212 -10.212 -10.212 -10.212
-10.212 -10.211 -10.211 -10.211 -10.211 -10.210 -10.210 -10.210
-10.210 -10.210 -10.210 -10.210 -10.210 -10.210 -10.209 -10.209
-10.209 -10.209 -10.208 -10.208 -10.208 -10.208 -10.208 -10.208
-10.208 -10.208 -10.207 -10.207 -10.207 -10.207 -10.206 -10.206
-10.206 -10.205 -10.205 -10.205 -10.205 -10.205 -10.205 -10.204
-10.204 -10.204 -10.204 -10.204 -10.204 -10.203 -10.202 -10.202
-10.202 -10.202 -10.202 -10.201 -10.200 -10.198 -10.198 -10.193
-10.192 -10.192 -10.189 -10.188  -1.094  -1.079  -1.007  -0.999
 -0.984  -0.983  -0.968  -0.966  -0.964  -0.962  -0.959  -0.958
 -0.935  -0.931  -0.928  -0.928  -0.926  -0.926  -0.923  -0.921
 -0.920  -0.920  -0.900  -0.894  -0.891  -0.889  -0.887  -0.882
 -0.877  -0.873  -0.856  -0.852  -0.845  -0.842  -0.841  -0.838
 -0.837  -0.832  -0.822  -0.820  -0.809  -0.805  -0.799  -0.799
 -0.796  -0.794  -0.793  -0.792  -0.792  -0.791  -0.785  -0.782
 -0.773  -0.771  -0.768  -0.767  -0.766  -0.765  -0.764  -0.764
 -0.751  -0.751  -0.741  -0.740  -0.732  -0.730  -0.717  -0.717
 -0.716  -0.715  -0.714  -0.713  -0.711  -0.710  -0.709  -0.708
 -0.706  -0.706  -0.704  -0.703  -0.701  -0.699  -0.673  -0.671
 -0.661  -0.658  -0.656  -0.656  -0.649  -0.648  -0.632  -0.630
 -0.629  -0.627  -0.627  -0.625  -0.624  -0.621  -0.620  -0.617
 -0.615  -0.614  -0.614  -0.613  -0.613  -0.611  -0.608  -0.608
 -0.606  -0.604  -0.602  -0.600  -0.569  -0.565  -0.563  -0.562
 -0.562  -0.560  -0.559  -0.558  -0.558  -0.553  -0.552  -0.550
 -0.539  -0.535  -0.534  -0.530  -0.528  -0.527  -0.526  -0.526
 -0.525  -0.522  -0.521  -0.518  -0.515  -0.514  -0.513  -0.512
 -0.506  -0.503  -0.500  -0.493  -0.490  -0.490  -0.486  -0.485
 -0.483  -0.482  -0.482  -0.481  -0.478  -0.477  -0.476  -0.475
 -0.471  -0.471  -0.469  -0.469  -0.468  -0.467  -0.466  -0.465
 -0.464  -0.464  -0.463  -0.462  -0.461  -0.460  -0.459  -0.458
 -0.456  -0.455  -0.452  -0.450  -0.449  -0.447  -0.446  -0.444
 -0.444  -0.442  -0.440  -0.439  -0.437  -0.437  -0.436  -0.431
 -0.431  -0.430  -0.429  -0.428  -0.426  -0.425  -0.425  -0.424
 -0.423  -0.422  -0.420  -0.419  -0.419  -0.418  -0.418  -0.417
 -0.416  -0.416  -0.415  -0.414  -0.414  -0.413  -0.412  -0.412
 -0.411  -0.411  -0.410  -0.408  -0.405  -0.402  -0.398  -0.397
 -0.395  -0.394  -0.391  -0.389  -0.389  -0.388  -0.387  -0.382
 -0.382  -0.376  -0.374  -0.373  -0.371  -0.368  -0.368  -0.366
 -0.365  -0.364  -0.362  -0.362  -0.361  -0.359  -0.358  -0.358
 -0.357  -0.357  -0.356  -0.355  -0.355  -0.353  -0.353  -0.351
 -0.351  -0.349  -0.349  -0.347  -0.345  -0.344  -0.344  -0.343
 -0.342  -0.342  -0.341  -0.339  -0.338  -0.335  -0.335  -0.334
 -0.332  -0.330  -0.330  -0.328  -0.328  -0.328  -0.325  -0.325
 -0.313  -0.301  -0.300  -0.299  -0.290  -0.286  -0.273  -0.271
 -0.270  -0.268  -0.267  -0.267  -0.266  -0.264  -0.263  -0.262
 -0.262  -0.260  -0.259  -0.259  -0.259  -0.257  -0.257  -0.254
 -0.251  -0.245  -0.243  -0.239  -0.223  -0.219  -0.214  -0.211
 -0.209  -0.208  -0.206  -0.206  -0.198  -0.195

          Ground-State Mulliken Net Atomic Charges

     Atom                 Charge (a.u.)
  ----------------------------------------
      1 O                    -0.484959
      2 C                    -0.085925
      3 H                     0.139297
      4 H                     0.135060
      5 H                     0.129742
      6 O                    -0.471691
      7 C                     0.585280
      8 C                    -0.258621
      9 H                     0.137957
     10 H                     0.130024
     11 C                    -0.184337
     12 H                     0.135228
     13 H                     0.106766
     14 C                    -0.183455
     15 H                     0.113063
     16 H                     0.124724
     17 C                    -0.004568
     18 C                     0.086241
     19 C                    -0.107905
     20 H                     0.094797
     21 C                    -0.095568
     22 H                     0.094418
     23 C                    -0.075278
     24 H                     0.090464
     25 C                    -0.092182
     26 H                     0.089161
     27 C                    -0.097534
     28 H                     0.095367
     29 C                    -0.031869
     30 C                     0.019159
     31 C                     0.024979
     32 C                     0.017955
     33 C                    -0.012122
     34 C                    -0.016781
     35 C                    -0.010558
     36 C                     0.009460
     37 C                     0.006355
     38 C                    -0.005724
     39 C                    -0.082289
     40 C                     0.018965
     41 C                     0.007867
     42 C                    -0.022580
     43 C                     0.013718
     44 C                    -0.019550
     45 C                    -0.090277
     46 C                     0.030530
     47 C                     0.007520
     48 C                     0.001799
     49 C                     0.001367
     50 C                    -0.010555
     51 C                     0.001563
     52 C                     0.006793
     53 C                     0.036417
     54 C                    -0.012495
     55 C                     0.010508
     56 C                    -0.003757
     57 C                     0.002766
     58 C                    -0.016437
     59 C                    -0.008672
     60 C                    -0.003345
     61 C                     0.000388
     62 C                    -0.018395
     63 C                    -0.012754
     64 C                     0.021690
     65 C                    -0.016358
     66 C                     0.002041
     67 C                    -0.009773
     68 C                    -0.011568
     69 C                     0.010282
     70 C                     0.026430
     71 C                     0.012331
     72 C                     0.016121
     73 C                    -0.028577
     74 C                    -0.007359
     75 C                     0.004224
     76 C                    -0.006618
     77 C                    -0.002303
     78 C                    -0.012014
     79 C                    -0.006266
     80 C                    -0.020312
     81 C                     0.037843
     82 C                    -0.013161
     83 C                    -0.003072
     84 C                     0.018419
     85 C                    -0.012535
     86 C                     0.007579
     87 C                     0.007431
     88 C                     0.008653
     89 O                    -0.467527
     90 C                    -0.088661
     91 H                     0.120221
     92 H                     0.137882
     93 H                     0.124337
     94 O                    -0.466436
     95 C                     0.595885
     96 C                    -0.255291
     97 H                     0.121170
     98 H                     0.136512
     99 C                    -0.184293
    100 H                     0.121269
    101 H                     0.113448
    102 C                    -0.189592
    103 H                     0.119869
    104 H                     0.110705
    105 C                     0.009411
    106 C                     0.096081
    107 C                    -0.122806
    108 H                     0.090047
    109 C                    -0.084182
    110 H                     0.093161
    111 C                    -0.085302
    112 H                     0.088889
    113 C                    -0.083934
    114 H                     0.084305
    115 C                    -0.100249
    116 H                     0.086258
    117 C                     0.006059
    118 C                     0.016833
    119 C                    -0.021718
    120 C                     0.009549
    121 C                    -0.048226
    122 C                    -0.013657
    123 C                     0.009813
    124 C                    -0.014162
    125 C                    -0.018264
    126 C                     0.009559
    127 C                    -0.091620
    128 C                     0.015794
    129 C                    -0.034609
    130 C                    -0.001350
    131 C                    -0.002219
    132 C                     0.026477
    133 C                    -0.092534
    134 C                     0.022504
    135 C                    -0.021794
    136 C                     0.001872
    137 C                    -0.012639
    138 C                     0.027224
    139 C                    -0.065960
    140 C                     0.001428
    141 C                     0.018003
    142 C                     0.025507
    143 C                    -0.006383
    144 C                     0.007470
    145 C                     0.015964
    146 C                     0.036234
    147 C                     0.005451
    148 C                     0.021439
    149 C                     0.013368
    150 C                    -0.009849
    151 C                    -0.012037
    152 C                    -0.027640
    153 C                     0.019002
    154 C                     0.008370
    155 C                    -0.012668
    156 C                     0.009078
    157 C                    -0.032693
    158 C                     0.017633
    159 C                    -0.022080
    160 C                    -0.006408
    161 C                     0.000196
    162 C                     0.000874
    163 C                     0.014385
    164 C                     0.004417
    165 C                    -0.012480
    166 C                     0.006290
    167 C                    -0.007662
    168 C                     0.020366
    169 C                     0.002230
    170 C                     0.038208
    171 C                     0.026763
    172 C                     0.050067
    173 C                    -0.010470
    174 C                    -0.020652
    175 C                    -0.010139
    176 C                    -0.008336
  ----------------------------------------
  Sum of atomic charges =     0.000000

                    Cartesian Multipole Moments
 -----------------------------------------------------------------
    Charge (ESU x 10^10)
                 0.0000
    Dipole Moment (Debye)
         X      -3.0807      Y       1.9616      Z       1.8887
       Tot       4.1116
    Quadrupole Moments (Debye-Ang)
        XX    -812.2446     XY     -46.5422     YY    -784.8541
        XZ      19.0050     YZ       3.3647     ZZ    -797.6763

 Total job time:  846.26s(wall), 7162.45s(cpu)
        *  Thank you very much for using Q-Chem.  Have a nice day.  *
