 Q-Chem 4.4, Q-Chem, Inc., Pleasanton, CA (2016)
 Q-Chem 4.4.2 for Intel X86 Linux

User input:
--------------------------------------------------------------
$comment
SP
$end

$rem
MEM_STATIC 5000
MEM_TOTAL 20000
JOBTYPE SP
EXCHANGE B3LYP
BASIS 6-31g(d,p)
$end

$molecule
0 1
O          11.756000      9.007000      7.440000
C          11.755000      9.075000      8.947000
H          11.087000      8.301000      9.345000
H          11.478000     10.084000      9.277000
H          12.710000      8.784000      9.402000
O           9.537000      9.285000      7.293000
C          10.612000      9.060000      6.719000
C          10.755000      8.900000      5.235000
H          11.782000      8.576000      5.029000
H          10.799000      9.946000      4.907000
C           9.662000      7.972000      4.593000
H           9.944000      6.934000      4.807000
H           8.694000      8.237000      5.036000
C           9.757000      8.315000      3.114000
H           9.715000      9.400000      2.958000
H          10.723000      7.986000      2.713000
C           8.532000      7.612000      2.350000
C           7.309000      8.447000      2.420000
C           7.034000      9.453000      1.538000
H           7.708000      9.546000      0.691000
C           5.961000     10.270000      1.737000
H           5.745000     10.996000      0.959000
C           4.951000      9.957000      2.691000
H           4.088000     10.603000      2.823000
C           5.175000      8.955000      3.592000
H           4.488000      8.779000      4.414000
C           6.414000      8.261000      3.501000
H           6.577000      7.389000      4.126000
C           5.741000      2.965000      1.670000
C           5.488000      4.120000     -0.466000
C           8.158000      1.353000     -2.976000
C          10.558000      2.473000      2.823000
C          10.953000      3.516000     -2.732000
C           5.645000      4.140000      0.921000
C          12.010000      2.246000      0.414000
C           6.441000      0.909000     -1.233000
C           8.699000      6.458000     -1.201000
C          11.249000      3.550000      2.351000
C           8.882000      6.832000      1.131000
C          10.053000      6.361000     -0.889000
C          11.930000      4.693000      0.445000
C          11.951000      2.215000     -0.974000
C           6.736000      5.962000      0.075000
C          10.369000      1.141000     -2.311000
C           8.462000      6.082000      2.342000
C           9.397000      5.074000      2.931000
C          10.230000      2.367000     -3.020000
C           8.852000     -0.135000      1.165000
C           8.666000     -0.158000     -1.104000
C           7.357000      0.065000     -0.573000
C           5.608000      1.707000     -0.452000
C           8.719000      3.941000      3.393000
C           7.956000      6.665000     -0.023000
C           5.474000      2.894000     -1.136000
C          12.008000      3.450000      1.155000
C           6.233000      5.195000     -0.974000
C          10.864000      5.439000     -1.565000
C           8.575000      1.550000      2.942000
C           6.846000      1.522000     -2.397000
C          10.193000      6.454000      0.506000
C           6.721000      0.937000      1.560000
C          11.796000      4.642000     -0.930000
C           8.173000      5.771000     -2.251000
C          10.823000      0.393000     -0.121000
C          11.376000      1.147000      0.949000
C           8.985000      4.883000     -2.953000
C           9.322000      2.687000      3.374000
C          10.698000      4.905000      2.351000
C           9.385000      0.634000      2.186000
C           7.260000      5.241000      2.282000
C           6.981000      3.878000     -2.782000
C          11.141000      5.569000      1.170000
C          10.344000      4.772000     -2.691000
C           7.244000      1.665000      2.695000
C           8.873000      2.464000     -3.371000
C           5.764000      1.748000      0.945000
C           9.058000      0.496000     -2.311000
C           6.916000      5.129000     -2.176000
C           8.256000      3.726000     -3.354000
C           6.394000      5.259000      1.257000
C           7.370000      4.071000      3.056000
C           9.582000     -0.236000     -0.046000
C           6.224000      2.744000     -2.367000
C          11.843000      3.433000     -1.625000
C          10.628000      1.251000      2.123000
C          11.249000      1.043000     -1.245000
C           6.655000      2.906000      2.688000
C           7.552000      0.090000      0.801000
O          15.449000      0.393000     -0.827000
C          15.410000      1.207000      0.360000
H          14.401000      1.613000      0.499000
H          16.135000      2.017000      0.215000
H          15.802000      0.555000      1.151000
O          15.127000      2.053000     -2.318000
C          15.180000      0.894000     -2.118000
C          14.985000     -0.109000     -3.195000
H          15.449000     -1.066000     -2.925000
H          15.526000      0.332000     -4.041000
C          13.536000     -0.404000     -3.542000
H          12.829000     -0.629000     -2.734000
H          13.120000      0.522000     -3.957000
C          13.579000     -1.488000     -4.648000
H          14.239000     -1.168000     -5.464000
H          13.968000     -2.432000     -4.248000
C          12.204000     -1.965000     -5.031000
C          11.676000     -3.005000     -4.150000
C          10.648000     -2.663000     -3.222000
H          10.369000     -1.613000     -3.201000
C          10.104000     -3.498000     -2.286000
H           9.393000     -3.176000     -1.531000
C          10.449000     -4.875000     -2.444000
H           9.991000     -5.605000     -1.783000
C          11.388000     -5.342000     -3.443000
H          11.769000     -6.359000     -3.454000
C          11.923000     -4.377000     -4.336000
H          12.658000     -4.696000     -5.069000
C           9.204000     -3.957000     -9.318000
C           7.552000     -2.992000     -7.858000
C           6.448000      0.597000    -10.464000
C          12.732000     -0.502000    -10.391000
C           8.499000      2.756000     -8.694000
C           8.747000     -3.673000     -7.986000
C          11.565000      2.028000    -10.453000
C           6.897000     -1.745000    -11.086000
C           9.038000      0.067000     -5.790000
C          12.857000      0.364000     -9.280000
C          11.124000     -1.054000     -5.700000
C          10.051000      1.005000     -6.085000
C          11.817000      1.935000     -7.994000
C          10.312000      2.722000    -10.253000
C           8.937000     -2.204000     -6.277000
C           8.086000      2.014000    -10.959000
C          11.818000     -2.068000     -6.496000
C          12.633000     -1.555000     -7.714000
C           7.596000      2.349000     -9.727000
C           9.997000     -1.073000    -12.337000
C           8.066000     -0.035000    -12.226000
C           7.802000     -1.391000    -12.076000
C           7.191000     -2.886000    -10.283000
C          12.376000     -2.338000     -8.875000
C           9.656000     -1.162000     -5.654000
C           6.760000     -2.601000     -8.970000
C          12.218000      1.599000     -9.281000
C           7.660000     -2.107000     -6.732000
C           9.679000      2.123000     -6.896000
C          11.676000     -2.352000    -11.216000
C           6.310000     -0.804000    -10.206000
C          11.282000      0.376000     -6.128000
C           9.375000     -3.175000    -11.418000
C          10.592000      2.545000     -7.821000
C           7.693000      0.236000     -6.218000
C          10.070000      1.336000    -11.997000
C          11.385000      1.184000    -11.524000
C           7.394000      1.279000     -7.106000
C          12.536000     -1.856000    -10.216000
C          12.763000     -0.179000     -7.975000
C          11.331000     -1.244000    -12.006000
C          10.986000     -3.102000     -7.180000
C           6.261000     -0.387000     -7.849000
C          12.129000      0.756000     -7.175000
C           8.371000      2.182000     -7.427000
C          10.671000     -3.301000    -10.882000
C           6.475000      1.537000     -9.382000
C           8.465000     -3.610000    -10.437000
C           7.385000      0.923000    -11.459000
C           6.998000     -0.859000     -6.745000
C           6.453000      1.007000     -8.059000
C           9.626000     -3.141000     -6.964000
C          11.409000     -3.288000     -8.534000
C           9.412000      0.180000    -12.495000
C           6.124000     -1.318000     -8.913000
C           9.823000      2.866000     -8.939000
C          12.024000     -0.082000    -11.501000
C           9.420000      2.275000    -11.258000
C          10.517000     -3.752000     -9.562000
C           9.047000     -2.053000    -12.124000
$end

--------------------------------------------------------------

             Standard Nuclear Orientation (Angstroms)
    I     Atom           X                Y                Z
 ----------------------------------------------------------------
    1      O     -12.7792636512    -1.6773001220     2.5457305035
    2      C     -14.1090554225    -2.2278852000     2.0938633582
    3      H     -14.0974037658    -2.3568827092     1.0044011599
    4      H     -14.9213605134    -1.5736084490     2.4341461411
    5      H     -14.2961140278    -3.2565979626     2.4262639151
    6      O     -12.9247306271     0.1248910272     1.2214192030
    7      C     -12.2538583095    -0.5476990364     2.0172074536
    8      C     -10.8887560398    -0.1608713119     2.5021457019
    9      H     -10.4867170114    -1.0009839422     3.0806924918
   10      H     -11.1354291832     0.5438415695     3.3059915299
   11      C      -9.9300872749     0.3316092019     1.3591609502
   12      H      -9.5703061783    -0.5563435676     0.8254368251
   13      H     -10.5023836433     1.0024505829     0.7065150216
   14      C      -8.8275347644     1.0428639334     2.1289724001
   15      H      -9.2469019966     1.7641533729     2.8411505161
   16      H      -8.2589537349     0.3198128275     2.7257225248
   17      C      -7.8860397612     1.8080251623     1.0770002271
   18      C      -8.4422205878     3.1380753346     0.7313364785
   19      C      -8.2112223376     4.2643261765     1.4687534905
   20      H      -7.4908083062     4.1695406745     2.2764374212
   21      C      -8.8603018304     5.4263353415     1.1740510768
   22      H      -8.5730278940     6.3070983833     1.7403956270
   23      C      -9.5807413790     5.5911095869    -0.0433236826
   24      H     -10.0730392189     6.5302478949    -0.2782089208
   25      C      -9.8331030154     4.4961182299    -0.8200401899
   26      H     -10.4906480214     4.5617727002    -1.6814071591
   27      C      -9.3295323359     3.2447787126    -0.3666044356
   28      H      -9.4142897977     2.3770115521    -1.0126495794
   29      C      -5.1061443331     1.3668097087    -3.6053282890
   30      C      -3.8717546691     3.0555130642    -2.3463234698
   31      C      -0.1522284046     0.5275835344    -1.4189693518
   32      C      -5.5636712661    -2.8075470107    -0.9331798865
   33      C      -1.2957739047    -0.3058365496     1.8287751968
   34      C      -5.0647350851     2.4113716184    -2.6790358455
   35      C      -3.2924845440    -3.0308819894     0.7266232226
   36      C      -1.5258795983     0.8113539240    -3.4722181833
   37      C      -4.2382668873     2.4107461807     1.6244364650
   38      C      -5.6642343677    -2.4899654810     0.3894020711
   39      C      -6.4216671883     1.5831881986     1.2250620645
   40      C      -4.3774476112     1.2661109818     2.4057865705
   41      C      -4.5664397258    -1.5647422779     2.2174761803
   42      C      -2.0872893425    -2.4626533980     1.1210934929
   43      C      -5.1986281333     3.0228977545    -0.4804477902
   44      C      -0.4859464785    -1.4336401771    -0.2282032955
   45      C      -7.1063413622     0.9724770038     0.0572974854
   46      C      -7.0456474941    -0.5109333449    -0.1244165530
   47      C      -0.5073451431    -0.3444612849     0.6873891018
   48      C      -2.9147677497    -2.4551737982    -3.2397373386
   49      C      -0.9639299152    -1.4463126637    -2.6398065469
   50      C      -1.6106060114    -0.5910843197    -3.5861497754
   51      C      -2.6513855999     1.5629419253    -3.8023783213
   52      C      -6.9072873257    -0.8663939499    -1.4702698965
   53      C      -5.3995653535     2.5992356598     0.8508476927
   54      C      -2.6741718861     2.6161016465    -2.9163103855
   55      C      -4.5408590029    -2.6206676130     1.2481463535
   56      C      -3.9371826081     3.3475209733    -0.9754972351
   57      C      -3.2805118118     0.4170357799     2.6072416609
   58      C      -5.3139845928    -1.9755470168    -2.9441029519
   59      C      -0.8129135192     1.3347713914    -2.4175127624
   60      C      -5.6153743763     0.6733599993     2.1050248756
   61      C      -3.9240780899    -0.4670905877    -4.1752520554
   62      C      -3.3666767420    -0.9597189082     2.5425877071
   63      C      -3.0179404728     2.7986343336     1.1645547160
   64      C      -1.9615907597    -3.0505268727    -1.1056264365
   65      C      -3.2315398029    -3.4266046485    -0.5908255679
   66      C      -1.9158653304     1.9787857571     1.3968706477
   67      C      -6.2186685921    -2.0174668667    -1.8408388913
   68      C      -6.3847505144    -1.3098814458     0.8667742028
   69      C      -4.1513979243    -2.7890613900    -2.7132813695
   70      C      -6.6984729189     1.3650880557    -1.2973924773
   71      C      -1.6704666219     2.7577564550    -0.6979482289
   72      C      -5.6808346515    -0.7772889286     1.9860389921
   73      C      -2.0046695426     0.8420538301     2.1892091725
   74      C      -5.2384550482    -0.8623483994    -3.7192668869
   75      C      -0.3348222028     0.8176034685    -0.0832601984
   76      C      -3.8636833946     0.9277903909    -4.1257087795
   77      C      -0.2355925731    -0.8729504049    -1.5539845374
   78      C      -2.8303901908     3.2931388828    -0.1462191556
   79      C      -1.0266086814     1.9840948647     0.2832794185
   80      C      -5.8776529300     2.3952056209    -1.5543308895
   81      C      -6.7630834216     0.3036413239    -2.2189304952
   82      C      -1.7797000085    -2.5598867903    -2.3969571703
   83      C      -1.4958550463     2.4765015000    -2.0841792515
   84      C      -2.1526490434    -1.4229751036     2.0342124082
   85      C      -4.3373907417    -3.2928023246    -1.4321261320
   86      C      -1.3005554945    -2.5362831104    -0.0258404712
   87      C      -5.8973022021     0.2813789456    -3.3386631716
   88      C      -2.7927153785    -1.2543356598    -3.8848822713
   89      O      -1.0824719806    -6.0740764614     2.3561086857
   90      C      -2.5182981407    -6.0388237988     2.4573336213
   91      H      -2.9033339618    -5.1376610972     1.9655092607
   92      H      -2.7623178048    -6.0287671697     3.5264936971
   93      H      -2.8439612188    -7.0072676181     2.0566977162
   94      O      -0.6629366362    -4.2957032596     3.6766176217
   95      C      -0.2431602573    -5.0850690745     2.9106023465
   96      C       1.1803249619    -5.1062740826     2.4896472675
   97      H       1.4615588427    -6.0989800000     2.1161670593
   98      H       1.7153329324    -4.9044469952     3.4255480626
   99      C       1.5430539538    -4.1078156746     1.4040398404
  100      H       0.9212464221    -4.0508633766     0.5021253049
  101      H       1.4050092283    -3.1105144714     1.8388857486
  102      C       3.0466072917    -4.3344927691     1.1072472279
  103      H       3.6242818889    -4.2996015948     2.0394117335
  104      H       3.2050948463    -5.3171052965     0.6470175938
  105      C       3.5370540374    -3.4804206263    -0.0306744586
  106      C       3.2769064296    -4.0531428197    -1.3500900532
  107      C       2.2451398850    -3.4849097960    -2.1547645391
  108      H       1.6774692758    -2.6842553409    -1.6884121799
  109      C       1.8326798658    -3.9487148403    -3.3729675655
  110      H       0.9784179825    -3.5504333330    -3.9122619894
  111      C       2.6880343614    -4.9326688914    -3.9563380415
  112      H       2.4636684062    -5.2890359047    -4.9574611458
  113      C       3.8390585596    -5.4821724303    -3.2700435305
  114      H       4.3873819315    -6.3403506009    -3.6474593586
  115      C       4.1480172380    -4.9532998767    -1.9895212319
  116      H       4.9832605713    -5.3755860034    -1.4387780964
  117      C       8.0564815114    -0.8164433908    -1.9862903707
  118      C       6.2143841898     0.3502469147    -3.0048384496
  119      C       6.5666179061     4.2440019290    -0.6372286216
  120      C       7.4319085298    -0.9061064785     3.0273916217
  121      C       4.0697710964     3.3408085890     1.5878061645
  122      C       6.7405629353    -0.8476461026    -2.5617151632
  123      C       6.1317410549     1.4201964612     3.8425677805
  124      C       8.3169164222     2.8072819816    -1.6097202138
  125      C       2.9711306760     0.2560358044    -0.6994682165
  126      C       6.0446501989    -0.9278601574     3.3011489976
  127      C       3.5858375260    -1.9185380442     0.0143252171
  128      C       2.8079855218     0.1937720697     0.7014403765
  129      C       4.0803974393     0.2223899798     3.1525800966
  130      C       5.5336653276     2.6387924514     3.3435945978
  131      C       4.5369685993    -0.7999855214    -2.0551162377
  132      C       6.3689199504     4.0924546481     1.5704640518
  133      C       4.8257383564    -2.6905317362     0.1149217889
  134      C       5.6600332943    -2.4965306102     1.4100022960
  135      C       5.1111061958     4.1536191699     1.0372544682
  136      C       9.2333547990     1.4763811971     1.3928501523
  137      C       8.4971701371     3.4133685331     0.6685310213
  138      C       9.0412948073     2.7553438072    -0.4277644696
  139      C       8.2234877258     1.6200385034    -2.3938439300
  140      C       7.0403454499    -2.3127961981     1.1132885975
  141      C       3.5147214575    -0.9519835784    -1.0945115470
  142      C       6.9249217034     1.5783160438    -2.9442442587
  143      C       5.3807495389     0.2457016620     3.6410542338
  144      C       4.8035848545     0.3457762548    -2.7357840896
  145      C       2.9153774056     1.4264408954     1.4190917887
  146      C       9.0182337299    -0.9037787997     1.3836678184
  147      C       7.0481903564     3.4276095752    -1.7096093841
  148      C       3.2368238619    -1.0329255503     1.1748974781
  149      C       9.4743042362     0.3390142041    -0.6803571918
  150      C       3.5498312113     1.3828075965     2.6285720505
  151      C       3.1739762279     1.4815435272    -1.3906660921
  152      C       7.7221313914     2.6901577625     2.8649779530
  153      C       7.4702113943     1.4782850666     3.5312803499
  154      C       3.3899294565     2.6487584816    -0.6444975768
  155      C       7.9575344536    -1.6212836162     1.9716473109
  156      C       5.1932633994    -1.6877747314     2.4618752892
  157      C       9.1142446201     0.2955867466     2.1069196385
  158      C       5.8896974005    -2.4293557713    -0.8994816159
  159      C       4.8078096406     2.7807408210    -2.2518215782
  160      C       3.9935737663    -1.0060381594     2.3515982261
  161      C       3.2647840216     2.6020430394     0.7175359351
  162      C       9.1539168982    -0.8689005701    -0.0314489919
  163      C       5.1609367041     4.3465124982    -0.3753031711
  164      C       8.7984989241     0.3510029924    -1.9143869521
  165      C       7.3113960610     4.1549317667     0.5508967952
  166      C       4.1420421418     1.5480017447    -2.3997303576
  167      C       4.2917169765     3.5357248253    -1.1619374030
  168      C       5.6437931379    -1.5664219812    -1.9447822270
  169      C       7.1727573607    -2.3083533142    -0.2782276067
  170      C       8.6984275000     2.6834213307     1.8334235295
  171      C       6.1869744325     2.7548781068    -2.5907339518
  172      C       4.3024259724     2.5561640218     2.6626576017
  173      C       8.1309459932     0.2780937232     3.1644336121
  174      C       6.5718954722     3.4095463871     2.7660874225
  175      C       8.2393877306    -1.5384562371    -0.8590047970
  176      C       9.4920122529     1.5014519273     0.0361126022
 ----------------------------------------------------------------

    9   -5804.2248363299      9.22E-06 Convergence criterion met
 Total energy in the final basis set = -5804.2248363299

                    Orbital Energies (a.u.)
 --------------------------------------------------------------

 Alpha MOs
 -- Occupied --
-19.189 -19.168 -19.132 -19.122 -10.312 -10.308 -10.253 -10.243
-10.240 -10.239 -10.239 -10.238 -10.237 -10.236 -10.236 -10.229
-10.227 -10.227 -10.226 -10.224 -10.223 -10.223 -10.223 -10.223
-10.222 -10.222 -10.221 -10.221 -10.221 -10.220 -10.220 -10.220
-10.220 -10.219 -10.219 -10.219 -10.219 -10.219 -10.218 -10.218
-10.218 -10.218 -10.218 -10.218 -10.217 -10.217 -10.217 -10.217
-10.217 -10.217 -10.217 -10.217 -10.216 -10.216 -10.216 -10.216
-10.216 -10.216 -10.216 -10.216 -10.216 -10.215 -10.215 -10.215
-10.215 -10.215 -10.215 -10.215 -10.215 -10.214 -10.214 -10.214
-10.214 -10.214 -10.213 -10.213 -10.213 -10.213 -10.213 -10.213
-10.212 -10.212 -10.212 -10.212 -10.212 -10.211 -10.211 -10.211
-10.211 -10.211 -10.211 -10.211 -10.211 -10.210 -10.210 -10.210
-10.210 -10.210 -10.210 -10.210 -10.210 -10.209 -10.209 -10.209
-10.209 -10.209 -10.209 -10.208 -10.208 -10.208 -10.208 -10.208
-10.208 -10.207 -10.207 -10.207 -10.207 -10.207 -10.207 -10.207
-10.207 -10.207 -10.206 -10.206 -10.206 -10.206 -10.206 -10.206
-10.205 -10.205 -10.205 -10.205 -10.204 -10.204 -10.204 -10.203
-10.203 -10.203 -10.202 -10.201 -10.200 -10.200 -10.199 -10.199
-10.198 -10.197 -10.195 -10.194  -1.086  -1.079  -1.007  -0.989
 -0.986  -0.982  -0.972  -0.969  -0.967  -0.966  -0.963  -0.958
 -0.939  -0.936  -0.933  -0.930  -0.927  -0.927  -0.926  -0.924
 -0.919  -0.919  -0.901  -0.896  -0.892  -0.891  -0.889  -0.886
 -0.882  -0.873  -0.862  -0.849  -0.847  -0.845  -0.843  -0.839
 -0.836  -0.834  -0.826  -0.825  -0.812  -0.810  -0.803  -0.799
 -0.798  -0.798  -0.795  -0.793  -0.792  -0.791  -0.788  -0.782
 -0.776  -0.774  -0.773  -0.770  -0.770  -0.767  -0.764  -0.761
 -0.754  -0.752  -0.744  -0.739  -0.738  -0.732  -0.719  -0.718
 -0.718  -0.715  -0.713  -0.713  -0.712  -0.711  -0.710  -0.708
 -0.708  -0.707  -0.705  -0.704  -0.702  -0.700  -0.681  -0.669
 -0.665  -0.663  -0.658  -0.654  -0.653  -0.648  -0.636  -0.631
 -0.630  -0.628  -0.627  -0.625  -0.624  -0.622  -0.621  -0.619
 -0.617  -0.616  -0.615  -0.613  -0.613  -0.612  -0.610  -0.609
 -0.608  -0.605  -0.603  -0.601  -0.571  -0.568  -0.566  -0.565
 -0.560  -0.559  -0.558  -0.557  -0.556  -0.556  -0.550  -0.550
 -0.541  -0.536  -0.535  -0.533  -0.530  -0.530  -0.528  -0.525
 -0.523  -0.522  -0.519  -0.518  -0.517  -0.516  -0.514  -0.511
 -0.510  -0.509  -0.500  -0.498  -0.495  -0.492  -0.490  -0.487
 -0.486  -0.484  -0.483  -0.480  -0.477  -0.477  -0.476  -0.475
 -0.474  -0.471  -0.470  -0.469  -0.469  -0.468  -0.466  -0.465
 -0.465  -0.464  -0.463  -0.462  -0.461  -0.460  -0.459  -0.458
 -0.458  -0.456  -0.455  -0.453  -0.451  -0.450  -0.448  -0.447
 -0.444  -0.441  -0.440  -0.439  -0.437  -0.436  -0.434  -0.432
 -0.432  -0.432  -0.431  -0.429  -0.429  -0.428  -0.427  -0.425
 -0.424  -0.423  -0.422  -0.422  -0.421  -0.420  -0.419  -0.419
 -0.418  -0.417  -0.417  -0.417  -0.416  -0.414  -0.414  -0.412
 -0.411  -0.411  -0.410  -0.406  -0.403  -0.401  -0.399  -0.396
 -0.396  -0.395  -0.392  -0.390  -0.389  -0.388  -0.388  -0.385
 -0.384  -0.382  -0.374  -0.372  -0.371  -0.370  -0.368  -0.367
 -0.366  -0.365  -0.363  -0.362  -0.361  -0.360  -0.359  -0.358
 -0.357  -0.356  -0.355  -0.352  -0.352  -0.351  -0.350  -0.350
 -0.350  -0.349  -0.349  -0.347  -0.346  -0.346  -0.345  -0.343
 -0.341  -0.341  -0.341  -0.340  -0.339  -0.337  -0.336  -0.336
 -0.335  -0.334  -0.332  -0.329  -0.329  -0.326  -0.325  -0.322
 -0.314  -0.307  -0.292  -0.292  -0.290  -0.287  -0.275  -0.270
 -0.269  -0.268  -0.266  -0.266  -0.265  -0.265  -0.264  -0.263
 -0.261  -0.261  -0.260  -0.259  -0.258  -0.257  -0.254  -0.253
 -0.250  -0.248  -0.247  -0.242  -0.227  -0.221  -0.213  -0.213
 -0.209  -0.208  -0.206  -0.203  -0.201  -0.196

          Ground-State Mulliken Net Atomic Charges

     Atom                 Charge (a.u.)
  ----------------------------------------
      1 O                    -0.480478
      2 C                    -0.082827
      3 H                     0.135498
      4 H                     0.138042
      5 H                     0.127154
      6 O                    -0.494519
      7 C                     0.580378
      8 C                    -0.264351
      9 H                     0.125767
     10 H                     0.139919
     11 C                    -0.175354
     12 H                     0.120244
     13 H                     0.145065
     14 C                    -0.183316
     15 H                     0.119389
     16 H                     0.112189
     17 C                    -0.005441
     18 C                     0.109660
     19 C                    -0.093352
     20 H                     0.088235
     21 C                    -0.099590
     22 H                     0.088544
     23 C                    -0.085069
     24 H                     0.092786
     25 C                    -0.081576
     26 H                     0.099051
     27 C                    -0.121819
     28 H                     0.090490
     29 C                    -0.007869
     30 C                     0.018503
     31 C                     0.011055
     32 C                     0.010644
     33 C                    -0.028751
     34 C                    -0.006708
     35 C                    -0.024327
     36 C                     0.006794
     37 C                     0.016424
     38 C                    -0.009411
     39 C                    -0.098630
     40 C                    -0.001392
     41 C                    -0.025730
     42 C                     0.041073
     43 C                    -0.001501
     44 C                    -0.015256
     45 C                    -0.056021
     46 C                     0.012521
     47 C                     0.040723
     48 C                    -0.024567
     49 C                    -0.013869
     50 C                    -0.011471
     51 C                     0.011304
     52 C                     0.012628
     53 C                     0.033519
     54 C                    -0.027314
     55 C                    -0.009790
     56 C                     0.000623
     57 C                    -0.006387
     58 C                    -0.012848
     59 C                     0.023039
     60 C                     0.021124
     61 C                    -0.018448
     62 C                     0.043408
     63 C                     0.003600
     64 C                     0.023810
     65 C                    -0.012289
     66 C                     0.000804
     67 C                     0.002707
     68 C                    -0.022893
     69 C                     0.034341
     70 C                     0.051298
     71 C                     0.008314
     72 C                    -0.002361
     73 C                    -0.006033
     74 C                    -0.023556
     75 C                     0.005574
     76 C                    -0.000305
     77 C                    -0.033944
     78 C                    -0.020063
     79 C                    -0.008056
     80 C                    -0.010940
     81 C                    -0.005977
     82 C                     0.006656
     83 C                    -0.022025
     84 C                     0.005331
     85 C                    -0.005455
     86 C                    -0.023386
     87 C                     0.015117
     88 C                     0.027936
     89 O                    -0.506232
     90 C                    -0.075381
     91 H                     0.120521
     92 H                     0.121579
     93 H                     0.122577
     94 O                    -0.439062
     95 C                     0.573148
     96 C                    -0.238938
     97 H                     0.121609
     98 H                     0.136623
     99 C                    -0.191564
    100 H                     0.121863
    101 H                     0.126169
    102 C                    -0.189531
    103 H                     0.113957
    104 H                     0.118810
    105 C                     0.013128
    106 C                     0.087796
    107 C                    -0.109041
    108 H                     0.088871
    109 C                    -0.080286
    110 H                     0.100577
    111 C                    -0.105198
    112 H                     0.087507
    113 C                    -0.085402
    114 H                     0.098969
    115 C                    -0.113938
    116 H                     0.088588
    117 C                     0.012895
    118 C                    -0.006216
    119 C                    -0.011620
    120 C                     0.012675
    121 C                    -0.009227
    122 C                    -0.029466
    123 C                    -0.022910
    124 C                     0.013802
    125 C                     0.004611
    126 C                    -0.011580
    127 C                    -0.080445
    128 C                     0.002640
    129 C                    -0.021963
    130 C                    -0.044378
    131 C                     0.051446
    132 C                     0.032731
    133 C                    -0.089389
    134 C                     0.002955
    135 C                    -0.012863
    136 C                     0.037814
    137 C                    -0.007221
    138 C                    -0.030436
    139 C                    -0.015932
    140 C                     0.006966
    141 C                     0.020092
    142 C                     0.003878
    143 C                     0.038393
    144 C                    -0.002916
    145 C                    -0.025394
    146 C                    -0.021938
    147 C                     0.011327
    148 C                     0.033543
    149 C                    -0.032468
    150 C                     0.009246
    151 C                    -0.006121
    152 C                     0.003251
    153 C                     0.018859
    154 C                     0.027808
    155 C                     0.010289
    156 C                     0.006084
    157 C                    -0.035656
    158 C                     0.014944
    159 C                    -0.000856
    160 C                    -0.019404
    161 C                     0.003465
    162 C                     0.000494
    163 C                    -0.048512
    164 C                    -0.009027
    165 C                     0.015803
    166 C                    -0.020969
    167 C                     0.020047
    168 C                     0.008790
    169 C                     0.003011
    170 C                    -0.008556
    171 C                    -0.013115
    172 C                     0.034222
    173 C                    -0.021716
    174 C                    -0.000475
    175 C                     0.006300
    176 C                     0.048652
  ----------------------------------------
  Sum of atomic charges =     0.000000

                    Cartesian Multipole Moments
 -----------------------------------------------------------------
    Charge (ESU x 10^10)
                 0.0000
    Dipole Moment (Debye)
         X      -4.3437      Y      -2.4387      Z      -0.1198
       Tot       4.9829
    Quadrupole Moments (Debye-Ang)
        XX    -792.2950     XY      -2.8277     YY    -782.7917
        XZ     -15.9183     YZ       6.5316     ZZ    -810.0209

 Total job time:  869.50s(wall), 7331.98s(cpu)
        *  Thank you very much for using Q-Chem.  Have a nice day.  *
