 Q-Chem 4.4, Q-Chem, Inc., Pleasanton, CA (2016)
 Q-Chem 4.4.2 for Intel X86 Linux

User input:
--------------------------------------------------------------
$comment
SP
$end

$rem
MEM_STATIC 5000
MEM_TOTAL 20000
JOBTYPE SP
EXCHANGE B3LYP
BASIS 6-31g(d,p)
$end

$molecule
0 1
O          11.756000      9.007000      7.440000
C          11.755000      9.075000      8.947000
H          11.087000      8.301000      9.345000
H          11.478000     10.084000      9.277000
H          12.710000      8.784000      9.402000
O           9.537000      9.285000      7.293000
C          10.612000      9.060000      6.719000
C          10.755000      8.900000      5.235000
H          11.782000      8.576000      5.029000
H          10.799000      9.946000      4.907000
C           9.662000      7.972000      4.593000
H           9.944000      6.934000      4.807000
H           8.694000      8.237000      5.036000
C           9.757000      8.315000      3.114000
H           9.715000      9.400000      2.958000
H          10.723000      7.986000      2.713000
C           8.532000      7.612000      2.350000
C           7.309000      8.447000      2.420000
C           7.034000      9.453000      1.538000
H           7.708000      9.546000      0.691000
C           5.961000     10.270000      1.737000
H           5.745000     10.996000      0.959000
C           4.951000      9.957000      2.691000
H           4.088000     10.603000      2.823000
C           5.175000      8.955000      3.592000
H           4.488000      8.779000      4.414000
C           6.414000      8.261000      3.501000
H           6.577000      7.389000      4.126000
C           5.741000      2.965000      1.670000
C           5.488000      4.120000     -0.466000
C           8.158000      1.353000     -2.976000
C          10.558000      2.473000      2.823000
C          10.953000      3.516000     -2.732000
C           5.645000      4.140000      0.921000
C          12.010000      2.246000      0.414000
C           6.441000      0.909000     -1.233000
C           8.699000      6.458000     -1.201000
C          11.249000      3.550000      2.351000
C           8.882000      6.832000      1.131000
C          10.053000      6.361000     -0.889000
C          11.930000      4.693000      0.445000
C          11.951000      2.215000     -0.974000
C           6.736000      5.962000      0.075000
C          10.369000      1.141000     -2.311000
C           8.462000      6.082000      2.342000
C           9.397000      5.074000      2.931000
C          10.230000      2.367000     -3.020000
C           8.852000     -0.135000      1.165000
C           8.666000     -0.158000     -1.104000
C           7.357000      0.065000     -0.573000
C           5.608000      1.707000     -0.452000
C           8.719000      3.941000      3.393000
C           7.956000      6.665000     -0.023000
C           5.474000      2.894000     -1.136000
C          12.008000      3.450000      1.155000
C           6.233000      5.195000     -0.974000
C          10.864000      5.439000     -1.565000
C           8.575000      1.550000      2.942000
C           6.846000      1.522000     -2.397000
C          10.193000      6.454000      0.506000
C           6.721000      0.937000      1.560000
C          11.796000      4.642000     -0.930000
C           8.173000      5.771000     -2.251000
C          10.823000      0.393000     -0.121000
C          11.376000      1.147000      0.949000
C           8.985000      4.883000     -2.953000
C           9.322000      2.687000      3.374000
C          10.698000      4.905000      2.351000
C           9.385000      0.634000      2.186000
C           7.260000      5.241000      2.282000
C           6.981000      3.878000     -2.782000
C          11.141000      5.569000      1.170000
C          10.344000      4.772000     -2.691000
C           7.244000      1.665000      2.695000
C           8.873000      2.464000     -3.371000
C           5.764000      1.748000      0.945000
C           9.058000      0.496000     -2.311000
C           6.916000      5.129000     -2.176000
C           8.256000      3.726000     -3.354000
C           6.394000      5.259000      1.257000
C           7.370000      4.071000      3.056000
C           9.582000     -0.236000     -0.046000
C           6.224000      2.744000     -2.367000
C          11.843000      3.433000     -1.625000
C          10.628000      1.251000      2.123000
C          11.249000      1.043000     -1.245000
C           6.655000      2.906000      2.688000
C           7.552000      0.090000      0.801000
O          22.576000      5.348000      5.445000
C          22.604000      5.683000      6.895000
H          23.624000      5.791000      7.283000
H          21.998000      5.035000      7.540000
H          22.136000      6.673000      6.953000
O          23.750000      3.378000      5.757000
C          23.212000      4.195000      5.042000
C          23.105000      3.995000      3.506000
H          23.531000      3.009000      3.284000
H          23.662000      4.753000      2.942000
C          21.689000      3.967000      3.032000
H          21.140000      4.899000      3.211000
H          21.611000      3.856000      1.944000
C          20.926000      2.783000      3.793000
H          21.431000      1.888000      3.408000
H          21.137000      2.849000      4.868000
C          19.401000      2.700000      3.506000
C          19.102000      2.302000      2.051000
C          19.063000      0.983000      1.681000
H          19.280000      0.289000      2.487000
C          18.900000      0.679000      0.309000
H          18.813000     -0.361000      0.009000
C          18.772000      1.676000     -0.687000
H          18.652000      1.475000     -1.748000
C          18.808000      3.037000     -0.276000
H          18.628000      3.828000     -0.998000
C          18.993000      3.284000      1.088000
H          19.101000      4.347000      1.282000
C          14.556000      5.055000      3.764000
C          14.051000      2.768000      4.258000
C          13.226000      3.140000      8.650000
C          18.256000      6.632000      6.899000
C          16.326000      2.000000      9.619000
C          14.731000      3.692000      3.521000
C          18.034000      5.175000      9.363000
C          12.558000      4.604000      6.816000
C          17.166000      0.730000      5.837000
C          19.040000      5.480000      7.193000
C          18.578000      2.274000      4.670000
C          18.117000      1.187000      6.785000
C          19.176000      3.437000      8.178000
C          17.202000      4.267000     10.066000
C          16.144000      1.968000      3.977000
C          14.835000      3.887000     10.125000
C          18.486000      3.678000      4.154000
C          18.870000      4.787000      4.942000
C          15.052000      2.510000      9.759000
C          14.873000      7.112000      7.627000
C          13.712000      5.510000      8.756000
C          13.173000      5.671000      7.492000
C          12.813000      4.479000      5.442000
C          18.012000      5.795000      4.604000
C          17.286000      1.479000      4.603000
C          13.015000      3.101000      5.194000
C          18.974000      4.803000      8.440000
C          14.882000      1.680000      4.521000
C          17.886000      1.306000      8.156000
C          16.436000      7.331000      5.795000
C          12.618000      3.321000      7.437000
C          18.908000      2.161000      6.156000
C          14.117000      6.548000      5.442000
C          18.432000      2.438000      8.867000
C          15.840000      0.496000      6.361000
C          15.883000      6.039000      9.586000
C          17.185000      6.273000      9.145000
C          15.601000      0.638000      7.735000
C          17.709000      6.835000      5.599000
C          19.339000      4.551000      6.219000
C          16.224000      7.357000      7.169000
C          17.179000      4.063000      3.490000
C          13.753000      1.336000      6.618000
C          19.450000      3.266000      6.821000
C          16.598000      1.033000      8.639000
C          15.420000      6.895000      4.950000
C          14.029000      2.058000      8.955000
C          13.650000      5.440000      4.753000
C          13.799000      4.261000      9.309000
C          14.720000      0.930000      5.682000
C          14.268000      1.085000      7.925000
C          16.063000      3.225000      3.376000
C          16.981000      5.401000      3.772000
C          14.795000      6.345000      8.832000
C          12.868000      2.399000      6.384000
C          17.424000      2.878000      9.792000
C          17.311000      6.939000      7.890000
C          15.953000      4.781000     10.197000
C          15.652000      5.906000      3.933000
C          13.894000      6.639000      6.811000
$end

--------------------------------------------------------------

             Standard Nuclear Orientation (Angstroms)
    I     Atom           X                Y                Z
 ----------------------------------------------------------------
    1      O       0.9667529742     6.1612604808    -1.4010055072
    2      C       1.7426704028     7.2287729976    -0.6702229332
    3      H       1.3880190734     7.2902342246     0.3661886415
    4      H       1.6601738926     8.1841027758    -1.2033733252
    5      H       2.7998441503     6.9784369502    -0.5171003326
    6      O      -1.0136911983     7.1174403927    -0.9692476402
    7      C      -0.3858849858     6.1597085947    -1.4428879706
    8      C      -1.0269041830     4.9946339775    -2.1357086727
    9      H      -0.2487315162     4.2455646372    -2.3240791167
   10      H      -1.1747018785     5.3969644540    -3.1456205644
   11      C      -2.2799149090     4.4233994911    -1.3796317705
   12      H      -1.9119067138     3.8183651056    -0.5422146936
   13      H      -2.8843236917     5.2739055664    -1.0407697939
   14      C      -2.9672409767     3.5901035299    -2.4507600157
   15      H      -3.1005128982     4.1677429921    -3.3737422726
   16      H      -2.3418767878     2.7296257229    -2.7166464106
   17      C      -4.3997420523     3.1268492118    -1.8923102819
   18      C      -5.4238631439     4.1757297647    -2.1133975390
   19      C      -6.1301645017     4.3038153698    -3.2754291521
   20      H      -5.9915866496     3.5158216546    -4.0104094808
   21      C      -6.9589703006     5.3695534227    -3.4643798080
   22      H      -7.5567354571     5.3727241850    -4.3708469966
   23      C      -7.3266553317     6.2291478856    -2.3900939628
   24      H      -8.0075607190     7.0603954038    -2.5479052968
   25      C      -6.6542836938     6.1367951508    -1.2046116335
   26      H      -6.8156136865     6.8619407095    -0.4129263727
   27      C      -5.6294812433     5.1539254785    -1.1108825303
   28      H      -5.1538142234     4.9780480234    -0.1515150267
   29      C      -7.0689327945     0.9208810703     2.3333039149
   30      C      -8.4059413537     0.2786123071     0.3941213685
   31      C      -7.3721579154    -4.1953769989     0.3948233514
   32      C      -2.3411070208    -0.5189058089     1.7420009509
   33      C      -4.8861485064    -3.8147200961    -2.1001691418
   34      C      -7.5559129165     1.1719369052     1.0485224827
   35      C      -2.3375412820    -2.8767436182     0.1916132088
   36      C      -7.9360291041    -2.5974454138     2.2146964051
   37      C      -6.0716952245    -0.0651906212    -2.8846107881
   38      C      -2.0096416852    -0.4536162511     0.4206145558
   39      C      -4.7171241340     1.6783324874    -2.0262091743
   40      C      -4.7496422585    -0.4527388186    -3.0896750459
   41      C      -2.4279085903    -1.3194055287    -1.6956339463
   42      C      -3.1039920679    -3.8166089260    -0.4867616108
   43      C      -7.0864655486     1.2811866689    -1.1860612946
   44      C      -5.1322242587    -4.7553618581     0.1831533934
   45      C      -4.4401453015     2.2087428411    -0.6670297957
   46      C      -3.3198427752     1.6167682768     0.1277647467
   47      C      -5.6361713721    -4.4285832049    -1.1069361456
   48      C      -4.6174766114    -2.5696345517     3.4952029102
   49      C      -5.9475303312    -4.0533152747     2.3937790069
   50      C      -6.7978887239    -3.0327124066     2.9233367370
   51      C      -8.2586191555    -1.2431656994     2.2648572849
   52      C      -3.6444704051     1.5050617688     1.4838457023
   53      C      -6.1031606117     1.1599614473    -2.1913616710
   54      C      -8.7447775180    -0.9253485596     1.0168896122
   55      C      -1.9754204840    -1.6316183571    -0.3716208559
   56      C      -8.0467825635     0.2966354503    -0.9621212830
   57      C      -4.3897788406    -1.8030340259    -2.9802119305
   58      C      -3.9635744861    -0.2142359363     3.1818462872
   59      C      -8.1994751284    -3.1741170654     0.9929206489
   60      C      -3.9111722787     0.4976888402    -2.4831032378
   61      C      -6.2550962296    -0.7916818821     3.5539931382
   62      C      -3.2515673528    -2.2327995126    -2.3268864101
   63      C      -7.0534624541    -0.9920649549    -2.7167356070
   64      C      -3.6015118860    -3.9063346741     1.7635939879
   65      C      -2.5873365954    -2.9354356666     1.5444397110
   66      C      -6.7066883917    -2.3395465895    -2.6479388485
   67      C      -3.1184888086     0.4806474989     2.2651297502
   68      C      -2.5024617008     0.5992165217    -0.4672466860
   69      C      -3.6459516126    -1.6148727671     3.2452827001
   70      C      -5.4874510590     2.1304516164     0.3589848895
   71      C      -8.3190314492    -2.0415303623    -1.1094921664
   72      C      -2.7429293746     0.0271712676    -1.7505414787
   73      C      -5.4059441040    -2.7717145228    -2.8696169379
   74      C      -5.2326603576     0.2194256901     3.3989951868
   75      C      -6.9809229624    -4.0663723536    -0.9211796931
   76      C      -7.4046105631    -0.3297284299     2.9082294003
   77      C      -6.2449375103    -4.6288507789     1.1215617089
   78      C      -8.0812678568    -0.8342259884    -1.7593741733
   79      C      -7.5200497010    -3.0328152740    -1.7052231376
   80      C      -6.7583856491     1.7896416455     0.0953965144
   81      C      -4.9756556599     1.8938933047     1.6482411226
   82      C      -4.6158166042    -3.7468870972     2.7054588450
   83      C      -8.7355549810    -2.1543110555     0.2488224741
   84      C      -3.5513319157    -3.4676549558    -1.7505286729
   85      C      -2.6235548075    -1.7743310658     2.3184683585
   86      C      -3.8269010477    -4.4414235599     0.5265686810
   87      C      -5.7598714280     1.2125731148     2.6098452136
   88      C      -5.9221056819    -2.1603191453     3.5545736662
   89      O       9.2595112400    -1.7622229351    -3.1007928185
   90      C      10.0267122395    -0.5809187273    -2.6197190246
   91      H      11.0987949876    -0.6574802466    -2.8373997885
   92      H       9.8506930848    -0.2986824574    -1.5744798438
   93      H       9.6405536910     0.2538723952    -3.2167896714
   94      O      10.4563968324    -3.2294135715    -1.7698771505
   95      C       9.6139917187    -2.9989715902    -2.6097629271
   96      C       8.7326611658    -4.1242761563    -3.2161382978
   97      H       8.9981432958    -5.0514317664    -2.6937804575
   98      H       8.9068241515    -4.2642297676    -4.2899116636
   99      C       7.2758326156    -3.8990572410    -2.9764655720
  100      H       6.8836591513    -2.9852827335    -3.4382903476
  101      H       6.6491912137    -4.6764141467    -3.4294399582
  102      C       7.0335295753    -3.8047762661    -1.3967357424
  103      H       7.2811253766    -4.8184054127    -1.0568427117
  104      H       7.7680536718    -3.1169900042    -0.9586416775
  105      C       5.5807268872    -3.4426547665    -0.9806643918
  106      C       4.5798454147    -4.5579732531    -1.3258179107
  107      C       4.3758815834    -5.6050239127    -0.4654309793
  108      H       4.9884599901    -5.5698709412     0.4300426184
  109      C       3.5328509867    -6.6603425680    -0.8861101313
  110      H       3.3195951137    -7.4690982432    -0.1935747960
  111      C       2.8937341057    -6.6739983131    -2.1485490933
  112      H       2.2464537056    -7.4715579734    -2.5027364335
  113      C       3.1156408642    -5.5720356946    -3.0197401045
  114      H       2.5766030903    -5.5051672872    -3.9601293295
  115      C       3.9742641917    -4.5659786513    -2.5654877441
  116      H       4.1504368096    -3.8235801608    -3.3381951208
  117      C       1.5283758547     0.1136047886    -1.1151377613
  118      C       1.3862696776    -0.7547887467     1.1108740317
  119      C       2.9409097893     2.7912061500     3.3731046378
  120      C       6.2906266025     1.7398861716    -1.9405653344
  121      C       6.1134150997     1.5128760943     3.7599422314
  122      C       1.5739045437    -0.9594663338    -0.2241335497
  123      C       7.3948294986     2.6091607623     0.5631372538
  124      C       1.3996046214     2.7099376787     1.4834354035
  125      C       4.9003603629    -2.1761397665     2.5182964750
  126      C       7.1315842916     0.9189205930    -1.1362011856
  127      C       5.4833198745    -2.5842574107     0.2306847955
  128      C       6.1969939710    -1.6296159386     2.3393914948
  129      C       7.7880576560     0.2788564037     0.9427241511
  130      C       7.0592310371     2.8611838784     1.9176685460
  131      C       3.0459794314    -2.2728033271     0.9093665458
  132      C       5.0685505375     3.6120493504     3.0239967936
  133      C       5.1164833075    -2.0354912459    -1.1147603463
  134      C       5.8348888117    -0.9707894935    -1.7051709746
  135      C       5.0867776327     2.4299304093     3.8482762256
  136      C       3.7618744372     3.8799553493    -0.8312459931
  137      C       3.3751460755     4.1264241889     1.4000451769
  138      C       2.2586719645     3.5804590523     0.7921425291
  139      C       0.9107322269     1.5965366029     0.7835298197
  140      C       4.9100778806    -0.2387632026    -2.3946158608
  141      C       4.3546167364    -2.6031257335     1.2462886613
  142      C       0.9770340883     0.5000703029     1.6749094897
  143      C       7.7291674388     1.3774706281     0.0680912405
  144      C       2.2504858717    -1.5762517133     1.8332333359
  145      C       6.7049634886    -0.5315195502     3.0345995866
  146      C       4.1514101186     2.1445887741    -2.4695130052
  147      C       1.7913604161     2.3197630460     2.7985860235
  148      C       6.5346549209    -1.7743602792     0.9847579064
  149      C       1.9954195892     2.3482436821    -1.2754910139
  150      C       7.5220010837     0.4303024492     2.3328809752
  151      C       4.0389012531    -1.4344647907     3.4101565719
  152      C       5.6545242678     4.1501987475     0.7030144555
  153      C       6.5382704356     3.4745690412    -0.1377936147
  154      C       4.5412124463    -0.3169960442     4.0914113449
  155      C       5.1480706753     1.1984397078    -2.5976952151
  156      C       6.8992876925    -0.4341599038    -1.0084144132
  157      C       4.6786378102     3.1799728948    -1.7056369133
  158      C       3.6485416901    -1.7291301165    -1.3353510677
  159      C       2.3713234156     0.0894178897     3.5656677681
  160      C       7.3249422641    -0.8588378767     0.2817083735
  161      C       5.8554877541     0.1431242157     3.9234239594
  162      C       2.8519506092     1.7069848720    -2.2322688096
  163      C       3.8027329412     2.0131779263     4.1217640650
  164      C       1.2570185050     1.3846263480    -0.6071501785
  165      C       3.7544000014     3.7001148933     2.6441536304
  166      C       2.7225993505    -1.1827908756     3.0818175070
  167      C       3.4908313389     0.6188848538     4.2747811183
  168      C       2.6469651025    -1.8766271652    -0.3679912795
  169      C       3.6038329649    -0.6357178546    -2.1788098725
  170      C       4.3288956949     4.2593887148     0.4260985159
  171      C       1.4762185027     0.9367860616     2.8958137720
  172      C       7.1294106616     1.7322865124     2.7976381803
  173      C       5.9881101395     2.9798761654    -1.3572441496
  174      C       6.0492954906     3.7646000102     1.9899698920
  175      C       2.5410118515     0.3144930083    -2.0575762268
  176      C       2.5096409303     3.4245742517    -0.5618665208
 ----------------------------------------------------------------

    9   -5804.2621590807      8.15E-06 Convergence criterion met
 Total energy in the final basis set = -5804.2621590807

                    Orbital Energies (a.u.)
 --------------------------------------------------------------

 Alpha MOs
 -- Occupied --
-19.198 -19.187 -19.141 -19.120 -10.320 -10.309 -10.250 -10.249
-10.241 -10.240 -10.238 -10.237 -10.236 -10.234 -10.234 -10.233
-10.229 -10.229 -10.225 -10.225 -10.224 -10.223 -10.223 -10.223
-10.222 -10.222 -10.221 -10.220 -10.220 -10.220 -10.219 -10.219
-10.219 -10.219 -10.219 -10.218 -10.218 -10.218 -10.218 -10.218
-10.218 -10.217 -10.217 -10.217 -10.217 -10.217 -10.217 -10.217
-10.216 -10.216 -10.216 -10.216 -10.216 -10.216 -10.216 -10.216
-10.216 -10.215 -10.215 -10.215 -10.215 -10.215 -10.215 -10.215
-10.215 -10.215 -10.215 -10.215 -10.214 -10.214 -10.214 -10.214
-10.214 -10.214 -10.214 -10.213 -10.213 -10.213 -10.213 -10.213
-10.213 -10.213 -10.213 -10.213 -10.213 -10.213 -10.212 -10.212
-10.212 -10.212 -10.212 -10.212 -10.212 -10.212 -10.212 -10.211
-10.211 -10.211 -10.211 -10.211 -10.211 -10.211 -10.211 -10.210
-10.210 -10.210 -10.210 -10.210 -10.210 -10.210 -10.209 -10.209
-10.209 -10.209 -10.209 -10.209 -10.208 -10.208 -10.208 -10.208
-10.208 -10.207 -10.207 -10.207 -10.207 -10.206 -10.205 -10.205
-10.205 -10.205 -10.204 -10.204 -10.204 -10.204 -10.203 -10.202
-10.202 -10.202 -10.202 -10.201 -10.198 -10.198 -10.198 -10.197
-10.196 -10.195 -10.195 -10.192  -1.087  -1.077  -1.013  -0.987
 -0.985  -0.983  -0.973  -0.968  -0.965  -0.965  -0.963  -0.962
 -0.941  -0.935  -0.931  -0.929  -0.927  -0.926  -0.926  -0.923
 -0.923  -0.923  -0.901  -0.897  -0.893  -0.888  -0.888  -0.885
 -0.878  -0.877  -0.859  -0.859  -0.844  -0.843  -0.842  -0.842
 -0.839  -0.839  -0.825  -0.822  -0.809  -0.807  -0.801  -0.799
 -0.799  -0.798  -0.796  -0.794  -0.794  -0.792  -0.787  -0.785
 -0.773  -0.772  -0.771  -0.770  -0.769  -0.768  -0.767  -0.766
 -0.752  -0.752  -0.741  -0.740  -0.735  -0.731  -0.719  -0.718
 -0.715  -0.715  -0.715  -0.714  -0.714  -0.711  -0.711  -0.710
 -0.709  -0.707  -0.707  -0.705  -0.703  -0.701  -0.677  -0.672
 -0.664  -0.661  -0.659  -0.659  -0.649  -0.648  -0.633  -0.632
 -0.629  -0.627  -0.626  -0.624  -0.623  -0.620  -0.620  -0.619
 -0.618  -0.615  -0.615  -0.614  -0.614  -0.612  -0.611  -0.610
 -0.610  -0.609  -0.606  -0.605  -0.569  -0.568  -0.564  -0.563
 -0.563  -0.561  -0.561  -0.559  -0.556  -0.556  -0.554  -0.553
 -0.540  -0.537  -0.533  -0.532  -0.530  -0.528  -0.527  -0.526
 -0.525  -0.524  -0.522  -0.520  -0.519  -0.517  -0.514  -0.513
 -0.508  -0.506  -0.500  -0.497  -0.491  -0.490  -0.488  -0.487
 -0.486  -0.484  -0.483  -0.482  -0.480  -0.479  -0.477  -0.474
 -0.473  -0.472  -0.471  -0.469  -0.468  -0.468  -0.467  -0.466
 -0.465  -0.465  -0.464  -0.462  -0.461  -0.461  -0.460  -0.459
 -0.456  -0.454  -0.454  -0.454  -0.449  -0.448  -0.446  -0.444
 -0.443  -0.443  -0.442  -0.440  -0.440  -0.437  -0.436  -0.434
 -0.433  -0.431  -0.430  -0.428  -0.428  -0.427  -0.426  -0.424
 -0.423  -0.422  -0.422  -0.421  -0.420  -0.419  -0.418  -0.418
 -0.417  -0.417  -0.417  -0.416  -0.415  -0.414  -0.414  -0.413
 -0.412  -0.412  -0.409  -0.408  -0.402  -0.399  -0.397  -0.396
 -0.396  -0.394  -0.392  -0.392  -0.390  -0.389  -0.388  -0.384
 -0.383  -0.379  -0.378  -0.375  -0.371  -0.370  -0.368  -0.367
 -0.366  -0.366  -0.364  -0.362  -0.361  -0.360  -0.359  -0.358
 -0.357  -0.357  -0.356  -0.355  -0.354  -0.353  -0.353  -0.351
 -0.349  -0.348  -0.348  -0.347  -0.346  -0.346  -0.345  -0.344
 -0.342  -0.342  -0.341  -0.340  -0.339  -0.338  -0.336  -0.334
 -0.334  -0.333  -0.332  -0.331  -0.330  -0.329  -0.327  -0.326
 -0.311  -0.307  -0.305  -0.291  -0.288  -0.288  -0.273  -0.272
 -0.272  -0.271  -0.270  -0.268  -0.266  -0.266  -0.264  -0.264
 -0.262  -0.261  -0.261  -0.260  -0.258  -0.257  -0.256  -0.256
 -0.254  -0.248  -0.246  -0.245  -0.223  -0.222  -0.212  -0.211
 -0.210  -0.209  -0.207  -0.205  -0.204  -0.200

          Ground-State Mulliken Net Atomic Charges

     Atom                 Charge (a.u.)
  ----------------------------------------
      1 O                    -0.480474
      2 C                    -0.086269
      3 H                     0.136482
      4 H                     0.136680
      5 H                     0.127783
      6 O                    -0.495036
      7 C                     0.583580
      8 C                    -0.269497
      9 H                     0.127347
     10 H                     0.138004
     11 C                    -0.177061
     12 H                     0.123197
     13 H                     0.144071
     14 C                    -0.184397
     15 H                     0.118193
     16 H                     0.113090
     17 C                    -0.005847
     18 C                     0.110311
     19 C                    -0.093896
     20 H                     0.087442
     21 C                    -0.099225
     22 H                     0.087373
     23 C                    -0.085355
     24 H                     0.091915
     25 C                    -0.081821
     26 H                     0.098655
     27 C                    -0.121410
     28 H                     0.091110
     29 C                    -0.008688
     30 C                     0.016545
     31 C                     0.003722
     32 C                     0.014401
     33 C                    -0.027716
     34 C                    -0.005544
     35 C                     0.009467
     36 C                     0.005150
     37 C                     0.016851
     38 C                    -0.008116
     39 C                    -0.098050
     40 C                    -0.003450
     41 C                    -0.029544
     42 C                     0.023302
     43 C                    -0.001246
     44 C                    -0.018579
     45 C                    -0.055284
     46 C                     0.010085
     47 C                     0.035304
     48 C                    -0.023277
     49 C                    -0.012577
     50 C                    -0.011260
     51 C                     0.009906
     52 C                     0.013171
     53 C                     0.032041
     54 C                    -0.026194
     55 C                    -0.009035
     56 C                     0.001121
     57 C                    -0.005865
     58 C                    -0.013173
     59 C                     0.031145
     60 C                     0.020706
     61 C                    -0.018681
     62 C                     0.038464
     63 C                     0.001217
     64 C                     0.022849
     65 C                    -0.021692
     66 C                    -0.000151
     67 C                     0.002160
     68 C                    -0.016534
     69 C                     0.034819
     70 C                     0.051823
     71 C                     0.007411
     72 C                    -0.004661
     73 C                    -0.008933
     74 C                    -0.023531
     75 C                    -0.000953
     76 C                    -0.000570
     77 C                    -0.030059
     78 C                    -0.021420
     79 C                    -0.004688
     80 C                    -0.011650
     81 C                    -0.007598
     82 C                     0.007689
     83 C                    -0.024377
     84 C                    -0.015802
     85 C                    -0.007092
     86 C                    -0.017509
     87 C                     0.014872
     88 C                     0.028184
     89 O                    -0.471692
     90 C                    -0.094886
     91 H                     0.133250
     92 H                     0.134801
     93 H                     0.128428
     94 O                    -0.464052
     95 C                     0.597429
     96 C                    -0.239633
     97 H                     0.128514
     98 H                     0.122224
     99 C                    -0.194900
    100 H                     0.114551
    101 H                     0.108285
    102 C                    -0.195544
    103 H                     0.111722
    104 H                     0.123947
    105 C                     0.013407
    106 C                     0.105627
    107 C                    -0.099760
    108 H                     0.097033
    109 C                    -0.107827
    110 H                     0.091160
    111 C                    -0.080671
    112 H                     0.094174
    113 C                    -0.095680
    114 H                     0.097120
    115 C                    -0.111390
    116 H                     0.086964
    117 C                    -0.010015
    118 C                     0.038936
    119 C                     0.034710
    120 C                    -0.034733
    121 C                     0.002437
    122 C                    -0.007779
    123 C                    -0.002924
    124 C                    -0.023442
    125 C                    -0.033076
    126 C                    -0.017064
    127 C                    -0.110070
    128 C                     0.045873
    129 C                    -0.024186
    130 C                     0.022551
    131 C                     0.024178
    132 C                    -0.037904
    133 C                    -0.101568
    134 C                     0.085068
    135 C                     0.010471
    136 C                    -0.033997
    137 C                     0.000723
    138 C                     0.001751
    139 C                    -0.006940
    140 C                    -0.018057
    141 C                     0.026847
    142 C                    -0.000593
    143 C                     0.012221
    144 C                    -0.018548
    145 C                    -0.021459
    146 C                     0.011129
    147 C                    -0.011780
    148 C                     0.047236
    149 C                    -0.033893
    150 C                    -0.005762
    151 C                    -0.004680
    152 C                     0.012410
    153 C                    -0.025300
    154 C                     0.018304
    155 C                    -0.030371
    156 C                     0.022462
    157 C                     0.000693
    158 C                     0.054700
    159 C                     0.008172
    160 C                    -0.021157
    161 C                     0.002590
    162 C                    -0.007203
    163 C                     0.000857
    164 C                     0.012877
    165 C                     0.013637
    166 C                     0.004983
    167 C                    -0.036226
    168 C                    -0.016465
    169 C                    -0.006280
    170 C                    -0.004700
    171 C                    -0.005928
    172 C                    -0.018305
    173 C                     0.026531
    174 C                    -0.012603
    175 C                     0.003616
    176 C                     0.070592
  ----------------------------------------
  Sum of atomic charges =     0.000000

                    Cartesian Multipole Moments
 -----------------------------------------------------------------
    Charge (ESU x 10^10)
                 0.0000
    Dipole Moment (Debye)
         X       0.7481      Y      -0.1863      Z      -3.3735
       Tot       3.4604
    Quadrupole Moments (Debye-Ang)
        XX    -826.9701     XY       0.6093     YY    -798.1672
        XZ      -4.4595     YZ       2.3095     ZZ    -793.9605

 Total job time:  856.45s(wall), 7248.24s(cpu)
        *  Thank you very much for using Q-Chem.  Have a nice day.  *
