 Q-Chem 4.4, Q-Chem, Inc., Pleasanton, CA (2016)
 Q-Chem 4.4.2 for Intel X86 Linux

User input:
--------------------------------------------------------------
$comment
SP
$end

$rem
MEM_STATIC 5000
MEM_TOTAL 20000
JOBTYPE SP
EXCHANGE B3LYP
BASIS 6-31g(d,p)
$end

$molecule
0 1
O           9.874000     13.023000      9.933000
C          11.151000     13.707000      9.711000
H          11.616000     13.472000      8.745000
H          11.884000     13.514000     10.503000
H          11.018000     14.794000      9.652000
O           9.105000     13.671000      7.911000
C           8.956000     13.063000      8.926000
C           7.675000     12.364000      9.270000
H           7.098000     12.232000      8.346000
H           7.035000     13.013000      9.880000
C           7.798000     10.976000      9.947000
H           8.532000     10.326000      9.457000
H           8.242000     11.275000     10.905000
C           6.455000     10.292000     10.033000
H           5.710000     11.055000     10.291000
H           6.287000      9.951000      9.004000
C           6.492000      9.089000     11.015000
C           6.448000      9.531000     12.454000
C           5.127000      9.842000     12.950000
H           4.290000      9.890000     12.261000
C           5.029000     10.275000     14.261000
H           4.061000     10.560000     14.664000
C           6.214000     10.487000     15.010000
H           6.116000     10.898000     16.011000
C           7.495000     10.164000     14.516000
H           8.368000     10.181000     15.163000
C           7.612000      9.654000     13.255000
H           8.599000      9.351000     12.918000
C           8.385000      4.098000     12.160000
C           6.126000      4.007000     13.088000
C           4.588000      1.235000      9.790000
C           8.618000      5.646000      7.279000
C           3.231000      3.855000      7.898000
C           7.292000      4.736000     12.836000
C           6.297000      4.751000      6.017000
C           6.684000      1.239000     10.910000
C           3.845000      6.439000     10.838000
C           7.539000      6.520000      7.058000
C           5.736000      7.840000     10.551000
C           3.858000      6.860000      9.522000
C           5.262000      6.698000      7.069000
C           5.127000      4.007000      6.286000
C           5.619000      6.149000     12.459000
C           4.659000      1.961000      7.568000
C           7.228000      7.818000     10.610000
C           7.898000      7.423000      9.268000
C           3.603000      2.584000      8.253000
C           8.608000      2.168000      8.216000
C           6.695000      1.039000      8.523000
C           7.336000      1.057000      9.746000
C           7.132000      1.982000     12.000000
C           8.971000      6.506000      9.559000
C           4.965000      6.962000     11.462000
C           6.041000      2.671000     12.644000
C           6.408000      6.091000      6.432000
C           5.100000      4.878000     12.731000
C           3.381000      6.012000      8.516000
C           9.611000      4.300000      8.902000
C           5.276000      1.298000     11.017000
C           4.981000      7.639000      9.280000
C           9.037000      2.576000     10.593000
C           4.020000      5.940000      7.277000
C           3.251000      5.201000     11.194000
C           6.786000      2.614000      6.708000
C           7.354000      3.876000      6.293000
C           2.813000      4.375000     10.230000
C           9.322000      5.611000      8.538000
C           7.139000      7.329000      8.132000
C           9.085000      3.508000      7.928000
C           7.828000      6.796000     11.513000
C           3.825000      3.048000     11.792000
C           5.733000      7.428000      8.126000
C           2.826000      4.780000      8.864000
C           9.541000      3.883000     10.256000
C           3.521000      2.128000      9.601000
C           8.348000      2.712000     11.836000
C           5.264000      1.172000      8.515000
C           3.927000      4.393000     12.145000
C           3.106000      3.032000     10.567000
C           7.012000      6.010000     12.439000
C           8.853000      6.096000     10.906000
C           7.423000      1.736000      7.570000
C           4.859000      2.177000     12.036000
C           3.959000      4.562000      6.862000
C           8.485000      4.283000      6.897000
C           5.420000      2.679000      6.612000
C           9.162000      4.755000     11.264000
C           8.555000      1.740000      9.583000
O          22.576000      5.348000      5.445000
C          22.604000      5.683000      6.895000
H          23.624000      5.791000      7.283000
H          21.998000      5.035000      7.540000
H          22.136000      6.673000      6.953000
O          23.750000      3.378000      5.757000
C          23.212000      4.195000      5.042000
C          23.105000      3.995000      3.506000
H          23.531000      3.009000      3.284000
H          23.662000      4.753000      2.942000
C          21.689000      3.967000      3.032000
H          21.140000      4.899000      3.211000
H          21.611000      3.856000      1.944000
C          20.926000      2.783000      3.793000
H          21.431000      1.888000      3.408000
H          21.137000      2.849000      4.868000
C          19.401000      2.700000      3.506000
C          19.102000      2.302000      2.051000
C          19.063000      0.983000      1.681000
H          19.280000      0.289000      2.487000
C          18.900000      0.679000      0.309000
H          18.813000     -0.361000      0.009000
C          18.772000      1.676000     -0.687000
H          18.652000      1.475000     -1.748000
C          18.808000      3.037000     -0.276000
H          18.628000      3.828000     -0.998000
C          18.993000      3.284000      1.088000
H          19.101000      4.347000      1.282000
C          14.556000      5.055000      3.764000
C          14.051000      2.768000      4.258000
C          13.226000      3.140000      8.650000
C          18.256000      6.632000      6.899000
C          16.326000      2.000000      9.619000
C          14.731000      3.692000      3.521000
C          18.034000      5.175000      9.363000
C          12.558000      4.604000      6.816000
C          17.166000      0.730000      5.837000
C          19.040000      5.480000      7.193000
C          18.578000      2.274000      4.670000
C          18.117000      1.187000      6.785000
C          19.176000      3.437000      8.178000
C          17.202000      4.267000     10.066000
C          16.144000      1.968000      3.977000
C          14.835000      3.887000     10.125000
C          18.486000      3.678000      4.154000
C          18.870000      4.787000      4.942000
C          15.052000      2.510000      9.759000
C          14.873000      7.112000      7.627000
C          13.712000      5.510000      8.756000
C          13.173000      5.671000      7.492000
C          12.813000      4.479000      5.442000
C          18.012000      5.795000      4.604000
C          17.286000      1.479000      4.603000
C          13.015000      3.101000      5.194000
C          18.974000      4.803000      8.440000
C          14.882000      1.680000      4.521000
C          17.886000      1.306000      8.156000
C          16.436000      7.331000      5.795000
C          12.618000      3.321000      7.437000
C          18.908000      2.161000      6.156000
C          14.117000      6.548000      5.442000
C          18.432000      2.438000      8.867000
C          15.840000      0.496000      6.361000
C          15.883000      6.039000      9.586000
C          17.185000      6.273000      9.145000
C          15.601000      0.638000      7.735000
C          17.709000      6.835000      5.599000
C          19.339000      4.551000      6.219000
C          16.224000      7.357000      7.169000
C          17.179000      4.063000      3.490000
C          13.753000      1.336000      6.618000
C          19.450000      3.266000      6.821000
C          16.598000      1.033000      8.639000
C          15.420000      6.895000      4.950000
C          14.029000      2.058000      8.955000
C          13.650000      5.440000      4.753000
C          13.799000      4.261000      9.309000
C          14.720000      0.930000      5.682000
C          14.268000      1.085000      7.925000
C          16.063000      3.225000      3.376000
C          16.981000      5.401000      3.772000
C          14.795000      6.345000      8.832000
C          12.868000      2.399000      6.384000
C          17.424000      2.878000      9.792000
C          17.311000      6.939000      7.890000
C          15.953000      4.781000     10.197000
C          15.652000      5.906000      3.933000
C          13.894000      6.639000      6.811000
$end

--------------------------------------------------------------

             Standard Nuclear Orientation (Angstroms)
    I     Atom           X                Y                Z
 ----------------------------------------------------------------
    1      O       3.9214629042    -7.5124336978    -1.7113036246
    2      C       2.7926946121    -8.4452909152    -1.7707052652
    3      H       1.9668909906    -8.0997447245    -2.4057266891
    4      H       2.3880752893    -8.6920636719    -0.7821768589
    5      H       3.0790837667    -9.3904589716    -2.2475465356
    6      O       3.9768148437    -7.3397078019    -3.9622702897
    7      C       4.3877909022    -7.0138704584    -2.8912806983
    8      C       5.5632914919    -6.0992030111    -2.7195838012
    9      H       5.7203588796    -5.5623833431    -3.6636619123
   10      H       6.4866043591    -6.6787052187    -2.5988711651
   11      C       5.4655063898    -5.0422767148    -1.5911570743
   12      H       4.5012983626    -4.5212554253    -1.5771679357
   13      H       5.4711230110    -5.7038741772    -0.7156239502
   14      C       6.6034960045    -4.0536661618    -1.6719643234
   15      H       7.5103446668    -4.6124346984    -1.9349495435
   16      H       6.3125901195    -3.4129500425    -2.5135120765
   17      C       6.7301256802    -3.2250419673    -0.3641994862
   18      C       7.3850835807    -4.0093978669     0.7420721673
   19      C       8.8279611675    -4.0529404497     0.6789349113
   20      H       9.3409134531    -3.6711710747    -0.1978353534
   21      C       9.4826509576    -4.7788665765     1.6588464058
   22      H      10.5646029506    -4.8739980335     1.6274156761
   23      C       8.7198856972    -5.5152148764     2.6002019916
   24      H       9.2547320827    -6.1367649843     3.3130419507
   25      C       7.3121344814    -5.4497706124     2.6574694585
   26      H       6.7618580008    -5.8901576137     3.4846829037
   27      C       6.6455838305    -4.6720635745     1.7548111660
   28      H       5.5679268104    -4.5837256922     1.8567855031
   29      C       4.5740215027     0.5115138701     2.9815321602
   30      C       6.9639998451     0.9878763040     3.1649125147
   31      C       6.6530406036     4.8699991034     0.7651919226
   32      C       2.8011880491     0.3471712359    -1.8252138331
   33      C       7.6325920480     3.3626251269    -2.2437639865
   34      C       5.9328901214     0.0534758236     3.0299700085
   35      C       4.2892670189     2.1747482958    -3.3172905971
   36      C       5.1632827814     3.9641576977     2.3800309173
   37      C       8.6190223708     0.0141675006    -0.3696138476
   38      C       3.8521608169    -0.0882815993    -2.6515279801
   39      C       7.0300279237    -1.7353031188    -0.5580288123
   40      C       8.1870558402    -0.0192643984    -1.6816935802
   41      C       5.9615983629     0.3948943949    -3.3818349009
   42      C       5.3278008723     3.1194628736    -3.1631516930
   43      C       7.5595476156    -0.6655547575     1.6978260898
   44      C       5.8816081826     4.7856168364    -1.4409750368
   45      C       5.6889146430    -2.1568612981    -0.0543097737
   46      C       4.5079992765    -1.6206765618    -0.9050940152
   47      C       7.2075495816     4.3283646764    -1.3682435558
   48      C       2.5617998604     3.2925356010     0.2344160006
   49      C       4.2251935612     4.7928406431     0.3376883430
   50      C       4.1021055538     4.2613749050     1.6062810719
   51      C       5.2911744439     2.8574737950     3.2165400101
   52      C       3.4812896188    -1.1629898027    -0.0032685835
   53      C       7.9222722727    -0.9555608662     0.3314362186
   54      C       6.6450287395     2.3606742350     3.2191368109
   55      C       4.5743813538     0.7987267103    -3.3909140463
   56      C       7.9152522264     0.5769759689     2.2348341192
   57      C       8.0989414956     1.1694048401    -2.4151581695
   58      C       2.2721021869     0.8604192137     0.3857901614
   59      C       6.4963805549     4.2826727268     2.0353680350
   60      C       7.2074837273    -0.9900673778    -1.8382632159
   61      C       3.1310865710     2.1498196461     2.3250491314
   62      C       7.0404853226     1.3895829707    -3.2982312811
   63      C       9.0801945471     1.2249648368     0.2078859658
   64      C       3.7341917014     3.8118892079    -1.8023542864
   65      C       3.2787568581     2.6024677174    -2.4483974441
   66      C       8.9760600123     2.3708815790    -0.4845350179
   67      C       2.6250435817    -0.1633291863    -0.4871987190
   68      C       4.7580753599    -1.0092984002    -2.1047154956
   69      C       2.2502620788     2.0029108787    -0.3537041286
   70      C       5.3041891583    -1.6338212089     1.2867004301
   71      C       8.4101002570     2.8778027927     1.6713029720
   72      C       6.0539400073    -0.6974453152    -2.5631426641
   73      C       8.5226184204     2.3657296727    -1.8352808047
   74      C       2.7709183168     0.8961245090     1.7131983881
   75      C       7.7083332133     4.4049707713    -0.0359105417
   76      C       4.2476243782     1.8839969763     3.1741354835
   77      C       5.5489461824     5.0811189799    -0.1419871705
   78      C       8.6810657761     1.5165844897     1.5382600493
   79      C       8.6038524998     3.4302315329     0.3770369424
   80      C       6.2589020271    -0.9298732005     2.1435017720
   81      C       4.0224257122    -1.1181209565     1.3011820729
   82      C       3.3252173776     4.2031403987    -0.5376964243
   83      C       7.4092557380     3.3170958044     2.5035678930
   84      C       6.7032667474     2.7862648096    -3.1962828946
   85      C       2.5445096057     1.7416533902    -1.7207260442
   86      C       4.9540599419     4.1680113947    -2.3166455111
   87      C       3.6438463206    -0.0708759444     2.1854227239
   88      C       3.0480981006     3.3299715255     1.5823012232
   89      O     -10.6543320405    -2.8641627332     0.8043179233
   90      C     -10.0792943727    -3.5736997716     1.9796467589
   91      H     -10.8447877200    -4.0693702625     2.5886941296
   92      H      -9.3973373757    -2.9802419590     2.6008612782
   93      H      -9.4605888511    -4.3658727508     1.5412936494
   94      O     -11.9466420361    -1.4731123615     2.1277353702
   95      C     -11.5833490442    -1.8764506481     1.0444558916
   96      C     -12.0953412623    -1.2451117803    -0.2784273997
   97      H     -12.7364856031    -0.4001098568     0.0006096652
   98      H     -12.6833757205    -1.9476841596    -0.8813507181
   99      C     -10.9874501911    -0.6866246334    -1.1098030556
  100      H     -10.2596386479    -1.4352185531    -1.4444125310
  101      H     -11.3428152292    -0.2669839741    -2.0583632312
  102      C     -10.2113748764     0.4128205840    -0.2425814462
  103      H     -10.9698401629     1.1958831082    -0.1168098584
  104      H      -9.9898109571     0.0001181865     0.7499346297
  105      C      -8.9436411602     1.0022027623    -0.9210819050
  106      C      -9.2844889191     1.8483385598    -2.1591073560
  107      C      -9.6147400388     3.1722954027    -2.0316143121
  108      H      -9.6302987887     3.5294743330    -1.0066547339
  109      C     -10.0322329701     3.8706880386    -3.1889026852
  110      H     -10.2444710726     4.9328913134    -3.1124292197
  111      C     -10.1166855666     3.2611815591    -4.4631784051
  112      H     -10.4391827005     3.7682032652    -5.3684112968
  113      C      -9.7611153191     1.8883455808    -4.5700857286
  114      H      -9.7311083232     1.4086455740    -5.5439196383
  115      C      -9.3764836224     1.2382393536    -3.3931616227
  116      H      -9.2190988145     0.1776778488    -3.5655226300
  117      C      -4.0268382028     0.1501087682    -2.9669554356
  118      C      -3.7758430203     2.2622559550    -1.8691095085
  119      C      -1.3158564199     0.9634741074     1.6480348783
  120      C      -5.9526740713    -3.2063143451     0.3542994616
  121      C      -3.9740377330     0.8636489286     3.8326785655
  122      C      -4.5121089950     1.4189650416    -2.6476452174
  123      C      -5.0790198769    -2.4726233191     2.9890394538
  124      C      -1.1415473538     0.3062998695    -0.6952138005
  125      C      -6.3740598199     2.8179712168     1.1788996794
  126      C      -6.7554350490    -2.4509667265     1.2560870129
  127      C      -7.8314219109     1.3126382976     0.0171606648
  128      C      -6.8069068694     1.8691798479     2.1403529389
  129      C      -6.8626209424    -0.8793050571     2.8934509863
  130      C      -4.2142332027    -1.5914339382     3.6865681508
  131      C      -5.9258842407     2.4766064802    -1.2126138093
  132      C      -2.1009706676    -0.5827085531     3.1696885177
  133      C      -7.6988525128     0.1884530569    -0.9649640213
  134      C      -7.5626423649    -1.1544012590    -0.5448805986
  135      C      -2.6729680201     0.7204210487     3.3973862767
  136      C      -2.5150688862    -2.8797555709    -0.1760805513
  137      C      -1.3106206317    -1.3824215245     1.0471369909
  138      C      -1.2649744014    -1.0334643166    -0.2908776909
  139      C      -1.9097998231     0.7214217208    -1.7933886464
  140      C      -6.7337415356    -1.7443269426    -1.4566827170
  141      C      -6.8163035782     2.4302573681    -0.1448281739
  142      C      -2.4241275968     1.9977180389    -1.4651712646
  143      C      -6.3451197442    -2.1483718490     2.5818968374
  144      C      -4.6220049597     2.9537799913    -1.0035007750
  145      C      -6.0626785081     1.4535386717     3.2451287346
  146      C      -4.5872683785    -3.0297535399    -1.4132724821
  147      C      -1.1848033860     1.2998933098     0.3276405347
  148      C      -7.5952620478     0.9189367310     1.4728710054
  149      C      -2.7414170462    -1.5524563188    -2.1384516186
  150      C      -6.0989348259     0.0642172695     3.6369609959
  151      C      -5.0100508247     3.2692021596     1.3321253214
  152      C      -2.8868184979    -2.7135046143     2.2412057052
  153      C      -4.1978881371    -3.1804184436     2.1544366028
  154      C      -4.2534472874     2.8338885876     2.4290365217
  155      C      -5.9059790395    -2.8839066153    -1.0328886402
  156      C      -7.5525654833    -1.4179742577     0.8104104147
  157      C      -3.8752528488    -3.3661482085    -0.2672495711
  158      C      -6.6902418503     0.3877966522    -2.0786680496
  159      C      -2.8675689095     3.0228878123     0.6419670170
  160      C      -7.6497468013    -0.4319382112     1.8322904011
  161      C      -4.7553613696     1.9409034906     3.3871126516
  162      C      -4.0530198487    -2.1096770045    -2.3101641576
  163      C      -2.1197495438     1.6460717748     2.5404329227
  164      C      -2.7647688865    -0.2137110153    -2.4957885797
  165      C      -1.3980755824    -0.4093250568     2.0056847968
  166      C      -4.1689944686     3.3742152832     0.2433675661
  167      C      -2.8907578083     2.7518316482     2.0428473941
  168      C      -5.8604870914     1.5074748052    -2.2147704883
  169      C      -6.1737224635    -0.8621041403    -2.3613829801
  170      C      -2.1250507403    -2.4796094613     1.1407971715
  171      C      -1.9656568965     2.3618802028    -0.2051301799
  172      C      -4.7584124411    -0.3036759330     4.0015749388
  173      C      -4.6677616720    -3.4878525813     0.8432691413
  174      C      -2.9386218577    -1.7430294164     3.2493124962
  175      C      -4.8155403448    -0.9907419091    -2.7926377270
  176      C      -2.0100510244    -1.9441007138    -1.0231537167
 ----------------------------------------------------------------

    9   -5804.2714102939      8.43E-06 Convergence criterion met
 Total energy in the final basis set = -5804.2714102939

                    Orbital Energies (a.u.)
 --------------------------------------------------------------

 Alpha MOs
 -- Occupied --
-19.197 -19.194 -19.140 -19.134 -10.319 -10.313 -10.248 -10.246
-10.241 -10.240 -10.239 -10.236 -10.232 -10.231 -10.231 -10.228
-10.228 -10.227 -10.226 -10.224 -10.223 -10.223 -10.222 -10.222
-10.221 -10.221 -10.221 -10.220 -10.220 -10.220 -10.219 -10.219
-10.219 -10.218 -10.218 -10.218 -10.218 -10.217 -10.217 -10.217
-10.217 -10.217 -10.217 -10.217 -10.216 -10.216 -10.216 -10.216
-10.216 -10.216 -10.216 -10.216 -10.216 -10.215 -10.215 -10.215
-10.215 -10.215 -10.215 -10.215 -10.215 -10.215 -10.215 -10.215
-10.214 -10.214 -10.214 -10.214 -10.214 -10.214 -10.214 -10.214
-10.214 -10.214 -10.213 -10.213 -10.213 -10.213 -10.213 -10.213
-10.213 -10.213 -10.213 -10.213 -10.212 -10.212 -10.212 -10.212
-10.212 -10.212 -10.212 -10.212 -10.212 -10.212 -10.212 -10.211
-10.211 -10.211 -10.211 -10.211 -10.211 -10.211 -10.211 -10.211
-10.211 -10.211 -10.210 -10.210 -10.210 -10.210 -10.210 -10.210
-10.210 -10.209 -10.209 -10.209 -10.209 -10.209 -10.209 -10.209
-10.209 -10.208 -10.208 -10.208 -10.208 -10.208 -10.207 -10.207
-10.206 -10.205 -10.205 -10.204 -10.204 -10.204 -10.203 -10.202
-10.202 -10.201 -10.201 -10.201 -10.201 -10.200 -10.199 -10.199
-10.198 -10.197 -10.194 -10.190  -1.097  -1.085  -1.016  -1.011
 -0.985  -0.982  -0.971  -0.964  -0.963  -0.963  -0.961  -0.959
 -0.939  -0.933  -0.929  -0.926  -0.925  -0.925  -0.924  -0.921
 -0.920  -0.920  -0.899  -0.896  -0.891  -0.889  -0.886  -0.883
 -0.875  -0.873  -0.858  -0.854  -0.845  -0.842  -0.840  -0.839
 -0.837  -0.834  -0.823  -0.819  -0.807  -0.807  -0.801  -0.799
 -0.797  -0.796  -0.796  -0.792  -0.790  -0.789  -0.785  -0.783
 -0.771  -0.771  -0.769  -0.767  -0.766  -0.765  -0.765  -0.761
 -0.759  -0.751  -0.740  -0.739  -0.729  -0.729  -0.719  -0.717
 -0.716  -0.714  -0.713  -0.713  -0.712  -0.711  -0.709  -0.709
 -0.708  -0.705  -0.705  -0.702  -0.701  -0.700  -0.672  -0.670
 -0.662  -0.658  -0.657  -0.656  -0.647  -0.646  -0.632  -0.631
 -0.627  -0.626  -0.625  -0.622  -0.622  -0.621  -0.618  -0.618
 -0.617  -0.614  -0.613  -0.612  -0.612  -0.611  -0.610  -0.608
 -0.606  -0.604  -0.604  -0.603  -0.571  -0.567  -0.563  -0.562
 -0.561  -0.560  -0.559  -0.559  -0.557  -0.556  -0.554  -0.552
 -0.539  -0.538  -0.531  -0.530  -0.528  -0.526  -0.526  -0.525
 -0.523  -0.520  -0.520  -0.519  -0.517  -0.517  -0.515  -0.513
 -0.508  -0.506  -0.498  -0.498  -0.493  -0.489  -0.487  -0.485
 -0.484  -0.483  -0.482  -0.480  -0.478  -0.477  -0.475  -0.475
 -0.472  -0.471  -0.470  -0.469  -0.468  -0.467  -0.467  -0.465
 -0.464  -0.464  -0.463  -0.463  -0.461  -0.460  -0.459  -0.458
 -0.456  -0.453  -0.453  -0.452  -0.447  -0.447  -0.445  -0.444
 -0.442  -0.441  -0.441  -0.440  -0.438  -0.438  -0.435  -0.434
 -0.432  -0.431  -0.429  -0.429  -0.426  -0.426  -0.425  -0.423
 -0.422  -0.422  -0.421  -0.420  -0.420  -0.418  -0.418  -0.417
 -0.416  -0.416  -0.415  -0.415  -0.415  -0.414  -0.413  -0.412
 -0.411  -0.410  -0.409  -0.408  -0.402  -0.400  -0.394  -0.394
 -0.394  -0.393  -0.392  -0.389  -0.388  -0.386  -0.386  -0.384
 -0.382  -0.378  -0.377  -0.373  -0.373  -0.369  -0.369  -0.365
 -0.364  -0.364  -0.363  -0.361  -0.361  -0.360  -0.358  -0.358
 -0.358  -0.357  -0.356  -0.356  -0.355  -0.355  -0.355  -0.352
 -0.351  -0.349  -0.347  -0.346  -0.346  -0.345  -0.343  -0.343
 -0.342  -0.340  -0.339  -0.339  -0.338  -0.337  -0.334  -0.333
 -0.332  -0.332  -0.331  -0.329  -0.328  -0.326  -0.325  -0.323
 -0.309  -0.305  -0.303  -0.302  -0.287  -0.285  -0.274  -0.271
 -0.270  -0.269  -0.269  -0.268  -0.267  -0.266  -0.266  -0.265
 -0.263  -0.263  -0.260  -0.260  -0.259  -0.257  -0.255  -0.254
 -0.252  -0.245  -0.244  -0.242  -0.221  -0.220  -0.212  -0.211
 -0.210  -0.208  -0.208  -0.205  -0.202  -0.193

          Ground-State Mulliken Net Atomic Charges

     Atom                 Charge (a.u.)
  ----------------------------------------
      1 O                    -0.470943
      2 C                    -0.093919
      3 H                     0.133936
      4 H                     0.124629
      5 H                     0.127873
      6 O                    -0.458711
      7 C                     0.606453
      8 C                    -0.275684
      9 H                     0.127016
     10 H                     0.133656
     11 C                    -0.182870
     12 H                     0.107246
     13 H                     0.122114
     14 C                    -0.179326
     15 H                     0.106435
     16 H                     0.111073
     17 C                     0.011587
     18 C                     0.062926
     19 C                    -0.092433
     20 H                     0.099014
     21 C                    -0.089358
     22 H                     0.092612
     23 C                    -0.088002
     24 H                     0.087265
     25 C                    -0.088080
     26 H                     0.094946
     27 C                    -0.088183
     28 H                     0.098143
     29 C                     0.009530
     30 C                    -0.017365
     31 C                    -0.017416
     32 C                    -0.011920
     33 C                    -0.005341
     34 C                    -0.003873
     35 C                     0.009824
     36 C                     0.048611
     37 C                     0.024555
     38 C                     0.003972
     39 C                    -0.091779
     40 C                    -0.002039
     41 C                    -0.034740
     42 C                     0.005953
     43 C                    -0.026097
     44 C                     0.004779
     45 C                    -0.091786
     46 C                     0.001097
     47 C                     0.007263
     48 C                    -0.030562
     49 C                    -0.019907
     50 C                     0.040348
     51 C                    -0.024403
     52 C                    -0.004472
     53 C                     0.035128
     54 C                     0.004367
     55 C                    -0.007203
     56 C                     0.016069
     57 C                     0.012365
     58 C                     0.020873
     59 C                    -0.017108
     60 C                     0.009310
     61 C                     0.003146
     62 C                    -0.023189
     63 C                    -0.016998
     64 C                     0.023279
     65 C                     0.002154
     66 C                     0.023456
     67 C                    -0.020523
     68 C                     0.022015
     69 C                     0.013190
     70 C                     0.046696
     71 C                     0.003900
     72 C                     0.038458
     73 C                    -0.006359
     74 C                    -0.014541
     75 C                     0.002823
     76 C                    -0.040344
     77 C                    -0.003263
     78 C                    -0.008672
     79 C                    -0.009386
     80 C                     0.011430
     81 C                    -0.004859
     82 C                    -0.001709
     83 C                     0.004645
     84 C                    -0.025641
     85 C                    -0.002383
     86 C                    -0.004251
     87 C                     0.016954
     88 C                    -0.016580
     89 O                    -0.471627
     90 C                    -0.095126
     91 H                     0.132887
     92 H                     0.135227
     93 H                     0.128463
     94 O                    -0.464368
     95 C                     0.597748
     96 C                    -0.239314
     97 H                     0.128186
     98 H                     0.121991
     99 C                    -0.195335
    100 H                     0.114794
    101 H                     0.107968
    102 C                    -0.194784
    103 H                     0.111148
    104 H                     0.124072
    105 C                     0.013026
    106 C                     0.106469
    107 C                    -0.099769
    108 H                     0.097120
    109 C                    -0.107878
    110 H                     0.090630
    111 C                    -0.080826
    112 H                     0.093474
    113 C                    -0.095801
    114 H                     0.096798
    115 C                    -0.112062
    116 H                     0.087405
    117 C                    -0.009588
    118 C                     0.035944
    119 C                     0.037498
    120 C                    -0.035666
    121 C                     0.003623
    122 C                    -0.014604
    123 C                    -0.004692
    124 C                    -0.014923
    125 C                    -0.033102
    126 C                    -0.017332
    127 C                    -0.111433
    128 C                     0.045668
    129 C                    -0.023764
    130 C                     0.022104
    131 C                     0.020885
    132 C                    -0.035735
    133 C                    -0.100690
    134 C                     0.085389
    135 C                     0.008862
    136 C                    -0.033412
    137 C                     0.007543
    138 C                     0.004617
    139 C                    -0.012444
    140 C                    -0.018689
    141 C                     0.028351
    142 C                    -0.011320
    143 C                     0.012454
    144 C                    -0.015625
    145 C                    -0.022176
    146 C                     0.009126
    147 C                    -0.006972
    148 C                     0.048258
    149 C                    -0.022302
    150 C                    -0.005603
    151 C                    -0.003863
    152 C                     0.014179
    153 C                    -0.024557
    154 C                     0.017088
    155 C                    -0.029933
    156 C                     0.022729
    157 C                     0.002261
    158 C                     0.053143
    159 C                     0.006472
    160 C                    -0.023149
    161 C                     0.002513
    162 C                    -0.004336
    163 C                     0.000920
    164 C                     0.016204
    165 C                     0.011321
    166 C                     0.004920
    167 C                    -0.035485
    168 C                    -0.012280
    169 C                    -0.006202
    170 C                     0.003416
    171 C                    -0.001064
    172 C                    -0.018309
    173 C                     0.026022
    174 C                    -0.013237
    175 C                     0.004474
    176 C                     0.035085
  ----------------------------------------
  Sum of atomic charges =     0.000000

                    Cartesian Multipole Moments
 -----------------------------------------------------------------
    Charge (ESU x 10^10)
                 0.0000
    Dipole Moment (Debye)
         X      -0.3357      Y      -2.5200      Z      -0.5596
       Tot       2.6031
    Quadrupole Moments (Debye-Ang)
        XX    -777.6511     XY     -18.8605     YY    -786.8631
        XZ      37.4998     YZ     -21.2584     ZZ    -817.0322

 Total job time:  832.36s(wall), 7008.95s(cpu)
        *  Thank you very much for using Q-Chem.  Have a nice day.  *
