 Q-Chem 4.4, Q-Chem, Inc., Pleasanton, CA (2016)
 Q-Chem 4.4.2 for Intel X86 Linux

User input:
--------------------------------------------------------------
$comment
SP
$end

$rem
MEM_STATIC 5000
MEM_TOTAL 20000
JOBTYPE SP
EXCHANGE B3LYP
BASIS 6-31g(d,p)
$end

$molecule
0 1
O          -6.115000      5.315000    -14.128000
C          -5.401000      6.429000    -14.750000
H          -4.724000      6.833000    -13.988000
H          -6.094000      7.219000    -15.064000
H          -4.836000      6.132000    -15.642000
O          -7.348000      4.904000    -16.018000
C          -7.002000      4.636000    -14.893000
C          -7.561000      3.384000    -14.246000
H          -6.779000      2.640000    -14.049000
H          -8.185000      2.986000    -15.055000
C          -8.365000      3.692000    -12.939000
H          -8.912000      4.610000    -13.189000
H          -9.115000      2.897000    -12.851000
C          -7.466000      3.783000    -11.640000
H          -6.887000      2.852000    -11.607000
H          -6.607000      4.445000    -11.808000
C          -8.154000      4.241000    -10.311000
C          -8.548000      5.697000    -10.427000
C          -9.743000      6.128000    -10.972000
H         -10.449000      5.494000    -11.501000
C         -10.082000      7.514000    -10.941000
H         -10.976000      7.955000    -11.371000
C          -9.125000      8.390000    -10.464000
H          -9.424000      9.434000    -10.437000
C          -7.926000      7.978000     -9.890000
H          -7.269000      8.681000     -9.386000
C          -7.682000      6.589000     -9.851000
H          -6.701000      6.278000     -9.504000
C          -9.081000      3.670000     -4.976000
C         -11.385000      4.204000     -5.847000
C         -12.913000     -0.075000     -5.265000
C          -6.928000     -0.199000     -7.285000
C         -12.410000     -1.065000     -8.597000
C          -9.938000      4.299000     -5.922000
C          -8.989000     -2.009000     -8.085000
C         -11.563000      1.245000     -3.761000
C         -11.693000      2.814000     -9.658000
C          -7.334000     -0.200000     -8.584000
C          -9.292000      3.295000     -9.804000
C         -10.981000      1.700000    -10.199000
C          -9.160000     -0.452000     -9.910000
C         -10.404000     -2.300000     -8.085000
C         -10.673000      4.194000     -8.004000
C         -12.054000     -1.925000     -6.344000
C          -8.030000      3.480000     -9.006000
C          -7.116000      2.277000     -8.694000
C         -12.809000     -1.226000     -7.270000
C          -8.646000     -0.617000     -4.298000
C         -10.915000     -1.032000     -4.271000
C         -10.675000      0.169000     -3.583000
C         -11.086000      2.584000     -3.999000
C          -6.730000      2.251000     -7.355000
C         -10.642000      3.697000     -9.330000
C         -11.922000      3.255000     -4.938000
C          -8.318000     -1.107000     -9.026000
C         -11.774000      4.055000     -7.149000
C         -11.399000      0.357000    -10.029000
C          -7.047000      0.894000     -5.326000
C         -12.660000      1.107000     -4.618000
C          -9.595000      1.926000    -10.324000
C          -8.791000      1.733000     -3.909000
C         -10.581000     -0.720000     -9.912000
C         -12.751000      2.553000     -8.816000
C          -9.650000     -2.236000     -5.905000
C          -8.544000     -1.977000     -6.757000
C         -13.191000      1.243000     -8.633000
C          -6.563000      1.012000     -6.628000
C          -7.497000      1.022000     -9.262000
C          -7.538000     -0.462000     -5.138000
C          -8.218000      4.021000     -7.654000
C         -13.330000      2.297000     -6.632000
C          -8.708000      0.851000    -10.090000
C         -12.572000      0.108000     -9.244000
C          -7.706000      1.999000     -4.711000
C         -13.400000     -0.098000     -6.591000
C          -9.688000      2.812000     -3.992000
C         -12.022000     -1.146000     -5.194000
C         -12.812000      3.188000     -7.532000
C         -13.594000      1.120000     -7.275000
C          -9.501000      4.311000     -7.252000
C          -7.409000      3.285000     -6.710000
C          -9.664000     -1.532000     -4.701000
C         -12.902000      2.303000     -5.300000
C         -11.164000     -1.621000     -9.018000
C          -7.481000     -1.080000     -6.397000
C         -10.809000     -2.463000     -6.724000
C          -7.804000      3.195000     -5.369000
C          -9.291000      0.402000     -3.684000
O         -19.652000     -1.537000     -7.233000
C         -19.651000     -2.928000     -7.341000
H         -20.587000     -3.256000     -7.810000
H         -19.681000     -3.418000     -6.360000
H         -18.811000     -3.356000     -7.902000
O         -17.574000     -1.650000     -6.427000
C         -18.553000     -0.976000     -6.680000
C         -18.794000      0.440000     -6.291000
H         -17.907000      0.824000     -5.773000
H         -19.733000      0.398000     -5.725000
C         -19.087000      1.417000     -7.407000
H         -19.692000      0.970000     -8.205000
H         -19.660000      2.280000     -7.044000
C         -17.717000      2.018000     -7.959000
H         -17.201000      2.574000     -7.166000
H         -17.131000      1.187000     -8.369000
C         -17.899000      2.844000     -9.258000
C         -18.241000      1.955000    -10.423000
C         -19.493000      1.634000    -10.794000
H         -20.308000      2.113000    -10.260000
C         -19.653000      0.656000    -11.779000
H         -20.636000      0.304000    -12.077000
C         -18.608000      0.231000    -12.643000
H         -18.864000     -0.360000    -13.517000
C         -17.312000      0.509000    -12.184000
H         -16.460000      0.015000    -12.641000
C         -17.172000      1.310000    -11.014000
H         -16.196000      1.448000    -10.558000
C         -15.166000      6.432000    -12.437000
C         -17.451000      6.958000    -12.878000
C         -17.377000     10.921000    -10.541000
C         -14.083000      6.390000     -7.504000
C         -18.847000      9.646000     -7.600000
C         -16.510000      6.020000    -12.646000
C         -15.690000      8.397000     -6.280000
C         -15.795000      9.962000    -12.003000
C         -19.740000      6.104000     -9.567000
C         -15.271000      6.037000     -6.849000
C         -18.278000      4.295000     -9.164000
C         -19.401000      6.103000     -8.195000
C         -17.335000      6.627000     -6.338000
C         -16.672000      9.379000     -6.445000
C         -18.397000      5.395000    -11.499000
C         -16.933000     10.988000     -8.293000
C         -16.861000      3.945000     -9.532000
C         -15.795000      4.440000     -8.614000
C         -18.300000     10.586000     -8.441000
C         -13.521000      9.299000     -9.468000
C         -15.041000     10.872000     -9.854000
C         -14.746000     10.234000    -11.119000
C         -15.788000      8.714000    -12.737000
C         -14.628000      4.814000     -9.312000
C         -18.951000      5.099000    -10.164000
C         -17.124000      8.289000    -12.906000
C         -16.030000      7.011000     -6.179000
C         -18.618000      6.617000    -12.156000
C         -19.359000      7.362000     -7.499000
C         -13.234000      6.871000     -9.598000
C         -17.082000     10.337000    -11.756000
C         -18.499000      5.114000     -7.920000
C         -13.866000      8.009000    -11.533000
C         -18.355000      7.597000     -6.577000
C         -19.940000      7.330000    -10.234000
C         -14.835000     10.059000     -7.586000
C         -14.572000      8.772000     -6.959000
C         -19.872000      8.569000     -9.490000
C         -13.790000      5.868000     -8.749000
C         -16.118000      5.109000     -7.385000
C         -13.221000      8.071000     -8.846000
C         -16.286000      4.374000    -10.857000
C         -19.107000      8.902000    -11.589000
C         -17.436000      5.481000     -7.104000
C         -19.621000      8.561000     -8.146000
C         -13.503000      6.782000    -10.949000
C         -18.559000     10.568000     -9.848000
C         -14.825000      7.748000    -12.498000
C         -16.386000     11.120000     -9.600000
C         -19.449000      7.570000    -11.538000
C         -19.398000      9.546000    -10.376000
C         -17.073000      5.055000    -11.823000
C         -14.886000      4.778000    -10.688000
C         -14.277000     10.277000     -8.852000
C         -17.926000      9.309000    -12.308000
C         -18.007000      8.966000     -6.650000
C         -13.731000      7.800000     -7.548000
C         -16.176000     10.326000     -7.330000
C         -14.366000      5.806000    -11.466000
C         -13.904000      9.235000    -10.806000
$end

--------------------------------------------------------------

             Standard Nuclear Orientation (Angstroms)
    I     Atom           X                Y                Z
 ----------------------------------------------------------------
    1      O       3.8289406760    -7.4994136020     3.3267167630
    2      C       3.5995167570    -8.9431653943     3.3017883119
    3      H       4.0329490424    -9.3141214250     2.3654565986
    4      H       2.5276041315    -9.1751506368     3.3132412890
    5      H       4.0440841107    -9.4631599029     4.1591468011
    6      O       2.7484762210    -7.2497397099     5.3345936291
    7      C       3.3955740435    -6.8162935541     4.4123388713
    8      C       3.8328956414    -5.3653355103     4.4577764683
    9      H       4.9240024741    -5.2675765368     4.5194048918
   10      H       3.4280519290    -5.0505785523     5.4269465390
   11      C       3.2759913217    -4.5330260463     3.2550098513
   12      H       2.2537353257    -4.9140387020     3.1356154009
   13      H       3.1836204948    -3.5023646821     3.6176029878
   14      C       4.1730382807    -4.6082780705     1.9536540636
   15      H       5.1859730202    -4.3284312871     2.2678832657
   16      H       4.4141852943    -5.6503508103     1.7081311060
   17      C       3.6211717055    -3.9386768674     0.6511846736
   18      C       2.4228316865    -4.7182829128     0.1563881367
   19      C       1.1296474886    -4.4966761349     0.5915617415
   20      H       0.8560209680    -3.8571647353     1.4260596127
   21      C       0.0443647702    -5.2022716137    -0.0094161629
   22      H      -0.9981717102    -5.1250672401     0.2834561160
   23      C       0.3589026415    -6.1799797668    -0.9345684179
   24      H      -0.4918624535    -6.6830534069    -1.3853251880
   25      C       1.6494721973    -6.4047173473    -1.4044026880
   26      H       1.8389210093    -7.0705869985    -2.2414216575
   27      C       2.6761253494    -5.6094940678    -0.8530577496
   28      H       3.6927374591    -5.8617726486    -1.1400182628
   29      C       4.2727446164    -0.7691421546    -3.7279816222
   30      C       1.9915107060    -0.0684831395    -2.9172647846
   31      C       3.4686669835     3.9779647991    -1.3591834605
   32      C       7.8117103151    -0.4663173437    -0.2179859075
   33      C       3.8064074092     2.9462518913     1.9810010974
   34      C       3.0469321236    -1.0548830240    -3.0640976806
   35      C       7.1326049629     1.6824658955     1.5385355161
   36      C       4.0229221636     2.8876296404    -3.4402616515
   37      C       1.8438676918    -0.5317798128     1.1218245599
   38      C       7.2447934827    -0.7550838885     0.9851172418
   39      C       3.3979270723    -2.3938268355     0.7541857054
   40      C       2.9585059908    -0.4498935514     2.0114857891
   41      C       5.7168571527    -0.0120811787     2.4915745245
   42      C       6.2045807895     2.7491342514     1.8350076940
   43      C       2.1343972359    -1.3965942337    -1.0800393327
   44      C       5.0329746503     4.2382311477     0.3170697875
   45      C       4.4245375405    -2.9637871073    -0.1864998081
   46      C       5.9146641799    -2.5924799546    -0.0395215893
   47      C       3.8486661380     3.8511064340     0.9201036206
   48      C       7.3016605773     2.1128865042    -2.4842545976
   49      C       5.7879499808     3.7999966855    -2.0557053402
   50      C       5.3910624480     3.1343173007    -3.2273265430
   51      C       3.5489775606     1.5988948876    -3.8780210033
   52      C       6.4898671040    -2.2567065798    -1.2638544023
   53      C       2.1985797238    -1.6339936909     0.3148685876
   54      C       2.3157997979     1.2750189292    -3.2414403178
   55      C       6.9345114804     0.2745440088     1.8960840206
   56      C       1.5255941152    -0.2699448241    -1.6479890383
   57      C       3.4676158389     0.7769120772     2.5044646041
   58      C       7.4457510427    -0.3105167964    -2.4289338943
   59      C       3.0853080119     3.2999553986    -2.4874924393
   60      C       3.8785588996    -1.5071265989     1.8583259759
   61      C       5.8612791408     0.7914481898    -3.8531768374
   62      C       4.7700450559     1.0420643820     2.7803529693
   63      C       1.3388532749     0.6446018066     0.6143447829
   64      C       7.1753492637     3.1472809280    -0.2202537963
   65      C       7.7169953214     1.9385045114     0.2913125464
   66      C       1.8136512614     1.8682844657     1.0837663652
   67      C       7.5001798829    -1.2285938539    -1.3812908167
   68      C       6.2572259310    -1.7539314909     1.0660542429
   69      C       7.9092661814     0.9774491135    -1.9375495934
   70      C       4.2168810562    -2.6482798153    -1.6053947771
   71      C       1.4635282164     2.0799518840    -1.1448764410
   72      C       5.2561615041    -1.2372286007     2.0211637321
   73      C       2.8548671889     1.9924518617     2.0559591702
   74      C       6.3920726497    -0.3883004595    -3.3866616979
   75      C       2.8465899036     3.7426166004    -0.1127464055
   76      C       4.5027262650     0.5877636403    -4.1508103169
   77      C       4.8154504424     4.1750089232    -1.0537150860
   78      C       1.1608088958     0.7907047002    -0.8007722241
   79      C       1.8361120330     2.7630559248    -0.0210329603
   80      C       3.1226213014    -1.8847043541    -1.9390729215
   81      C       5.4688040609    -2.2621971141    -2.2144448062
   82      C       6.9772291117     3.1850200637    -1.6003813857
   83      C       2.0509763756     2.3655246280    -2.3821302015
   84      C       5.0269629615     2.3755647867     2.4537096465
   85      C       8.0788867771     0.8328217703    -0.5517048023
   86      C       6.2499418453     3.6731484463     0.7454870919
   87      C       5.4745051841    -1.4014978436    -3.3196915041
   88      C       6.3100244785     2.0836029468    -3.4046796737
   89      O      -1.2865365333     8.2914025468     1.8356378663
   90      C      -0.4763403413     9.1766410430     2.5473126061
   91      H      -1.1000927177     9.7780644160     3.2202642383
   92      H      -0.0173506404     9.9305089532     1.8958737154
   93      H       0.3246001542     8.7123387849     3.1358894794
   94      O       0.5548482368     7.4213171717     0.9230905697
   95      C      -0.6586974107     7.4685286018     0.9655645897
   96      C      -1.6162995151     6.8311883284     0.0215023112
   97      H      -1.0546434115     6.2428456906    -0.7139868879
   98      H      -2.2128008584     7.6730515149    -0.3517181636
   99      C      -2.6436074095     5.8944283104     0.6156009213
  100      H      -3.0022795286     6.2348324807     1.5944355916
  101      H      -3.5346407032     5.8208871852    -0.0212023233
  102      C      -2.0424967354     4.4187600093     0.6778425693
  103      H      -1.8191528349     4.0581908826    -0.3342584173
  104      H      -1.1695391244     4.4433544808     1.3407129347
  105      C      -2.9286605266     3.4386122865     1.4882900856
  106      C      -2.8897459484     3.7602345017     2.9578324655
  107      C      -3.7447502922     4.5924122451     3.5780209654
  108      H      -4.5618940553     4.9959685072     2.9879019829
  109      C      -3.4761672340     4.9362059069     4.9054161812
  110      H      -4.0890938434     5.6536862135     5.4425753580
  111      C      -2.5760436194     4.2176993931     5.7376852893
  112      H      -2.5917336425     4.4078196871     6.8064701586
  113      C      -1.6440820047     3.4237355203     5.0531051864
  114      H      -0.7742739104     3.0394023241     5.5770430390
  115      C      -1.7867783127     3.2875489427     3.6420091656
  116      H      -1.0209823252     2.7832053258     3.0599868107
  117      C      -3.5577274557    -1.9668708305     2.4015814248
  118      C      -5.7361732573    -1.0939390633     2.8314023402
  119      C      -7.5918734166    -2.8203633394    -1.0089427143
  120      C      -1.7347271524    -0.5569016891    -2.0926147118
  121      C      -7.4061686346     0.1603269184    -2.8843107638
  122      C      -4.3986913301    -0.9498149417     2.9289694044
  123      C      -3.9470872389    -0.4010446497    -3.8786285502
  124      C      -6.0706141049    -3.7609012268     0.5276143426
  125      C      -6.3678445784     2.2634522390     0.5378302386
  126      C      -2.3222342607     0.6834641045    -2.3777569497
  127      C      -4.0716948965     2.7403454020     0.8072806971
  128      C      -5.8377726455     2.6251693956    -0.7213323580
  129      C      -4.1825675610     1.7728620505    -2.8485956980
  130      C      -5.3297899206    -0.5215111718    -4.0503670466
  131      C      -5.2728634278     1.1076723244     2.4097658862
  132      C      -6.8511035699    -2.2049456806    -3.0892432069
  133      C      -2.8307063607     1.9484657936     1.1214257906
  134      C      -2.1185248259     1.3417142738    -0.0399333505
  135      C      -7.7041391108    -1.1550673157    -2.6177744542
  136      C      -3.4136964495    -3.6655096800    -1.7014121321
  137      C      -5.6108415617    -3.9416918453    -1.8746223153
  138      C      -5.2451352982    -4.2220914731    -0.5027881498
  139      C      -5.4622578575    -3.2350910152     1.7316638837
  140      C      -1.5682257521     0.0823752838     0.2766187582
  141      C      -5.2691559546     2.2016938673     1.4198870460
  142      C      -6.2814915645    -2.1976500419     2.2283069750
  143      C      -3.3649321736     0.7778030829    -3.3145270494
  144      C      -6.3015259800     0.1532895421     2.4789096383
  145      C      -6.4218975621     2.0460182414    -1.9022824088
  146      C      -1.7660678429    -2.2717932385    -0.5449833814
  147      C      -7.2487243152    -3.1161236955     0.2945451092
  148      C      -4.4918914174     2.8453133110    -0.6347853977
  149      C      -3.3119315032    -3.4476023474     0.7459354709
  150      C      -5.6020156749     1.6531006591    -2.9447479787
  151      C      -7.3844794080     1.2892981589     0.6116032105
  152      C      -4.5262177000    -2.5824951997    -3.5549212641
  153      C      -3.4318596929    -1.6229647849    -3.5736010777
  154      C      -7.9271325136     0.7274470422    -0.6062358304
  155      C      -1.4359504483    -0.9053762903    -0.7896734494
  156      C      -2.5315038649     1.6036711796    -1.3901769926
  157      C      -2.3267160817    -2.7703336634    -1.7461511453
  158      C      -2.8955184492     0.7566672144     2.0410488329
  159      C      -7.9364993147    -0.8387316375     1.0213118974
  160      C      -3.7253799955     2.2836831172    -1.6484647186
  161      C      -7.4668184458     1.1364441982    -1.8269869456
  162      C      -2.1838500849    -2.6077034290     0.7270643151
  163      C      -8.1673546292    -1.5679091511    -1.3285704353
  164      C      -4.0895780206    -3.0828811388     1.8327985414
  165      C      -6.7569470814    -3.1732894704    -2.0508180240
  166      C      -7.3978119273     0.2844463677     1.6061845906
  167      C      -8.3127364029    -0.5864130749    -0.3074345029
  168      C      -4.1017390954     0.3846889741     2.6913948497
  169      C      -2.0139185356    -0.3061611099     1.5461200042
  170      C      -4.4668970151    -3.5981281677    -2.5923129686
  171      C      -7.3990623806    -2.1375018310     1.3402609943
  172      C      -6.1623752793     0.4923294409    -3.5271578796
  173      C      -2.3108336931    -1.7355239319    -2.7194247808
  174      C      -5.6801632534    -1.8284398191    -3.7417798815
  175      C      -2.3732479918    -1.6376270122     1.7209024198
  176      C      -3.9326469981    -3.9424972288    -0.4384801364
 ----------------------------------------------------------------

    9   -5804.2555054395      8.84E-06 Convergence criterion met
 Total energy in the final basis set = -5804.2555054395

                    Orbital Energies (a.u.)
 --------------------------------------------------------------

 Alpha MOs
 -- Occupied --
-19.199 -19.194 -19.135 -19.133 -10.315 -10.312 -10.249 -10.244
-10.242 -10.241 -10.239 -10.239 -10.237 -10.232 -10.231 -10.230
-10.230 -10.229 -10.226 -10.226 -10.225 -10.225 -10.223 -10.223
-10.223 -10.223 -10.222 -10.222 -10.222 -10.222 -10.221 -10.221
-10.221 -10.220 -10.220 -10.220 -10.220 -10.220 -10.219 -10.219
-10.218 -10.218 -10.218 -10.217 -10.217 -10.217 -10.217 -10.217
-10.217 -10.217 -10.217 -10.216 -10.216 -10.216 -10.216 -10.216
-10.216 -10.216 -10.216 -10.216 -10.216 -10.216 -10.216 -10.215
-10.215 -10.215 -10.215 -10.215 -10.215 -10.215 -10.215 -10.215
-10.215 -10.215 -10.214 -10.214 -10.214 -10.214 -10.214 -10.214
-10.214 -10.214 -10.214 -10.213 -10.213 -10.213 -10.213 -10.213
-10.213 -10.213 -10.213 -10.212 -10.212 -10.212 -10.212 -10.212
-10.211 -10.211 -10.211 -10.211 -10.211 -10.211 -10.210 -10.210
-10.210 -10.210 -10.210 -10.210 -10.210 -10.210 -10.210 -10.210
-10.209 -10.209 -10.209 -10.209 -10.209 -10.209 -10.208 -10.208
-10.208 -10.208 -10.208 -10.208 -10.208 -10.207 -10.207 -10.207
-10.207 -10.206 -10.205 -10.204 -10.204 -10.204 -10.203 -10.203
-10.203 -10.202 -10.201 -10.200 -10.198 -10.198 -10.197 -10.197
-10.194 -10.193 -10.192 -10.189  -1.110  -1.096  -1.016  -1.013
 -0.984  -0.980  -0.968  -0.965  -0.962  -0.960  -0.959  -0.958
 -0.939  -0.930  -0.929  -0.926  -0.926  -0.922  -0.921  -0.921
 -0.919  -0.918  -0.899  -0.889  -0.889  -0.888  -0.886  -0.885
 -0.878  -0.872  -0.859  -0.853  -0.843  -0.840  -0.840  -0.838
 -0.837  -0.831  -0.824  -0.815  -0.814  -0.799  -0.798  -0.798
 -0.796  -0.793  -0.793  -0.792  -0.790  -0.788  -0.787  -0.782
 -0.773  -0.771  -0.770  -0.768  -0.767  -0.765  -0.764  -0.761
 -0.751  -0.746  -0.745  -0.737  -0.736  -0.728  -0.719  -0.717
 -0.716  -0.714  -0.713  -0.711  -0.711  -0.709  -0.709  -0.707
 -0.707  -0.705  -0.705  -0.703  -0.702  -0.700  -0.673  -0.670
 -0.661  -0.658  -0.657  -0.653  -0.650  -0.644  -0.636  -0.631
 -0.630  -0.628  -0.626  -0.623  -0.622  -0.618  -0.617  -0.617
 -0.616  -0.615  -0.614  -0.612  -0.611  -0.610  -0.610  -0.606
 -0.605  -0.604  -0.604  -0.599  -0.570  -0.567  -0.566  -0.563
 -0.561  -0.561  -0.559  -0.557  -0.557  -0.556  -0.555  -0.552
 -0.541  -0.536  -0.535  -0.530  -0.529  -0.528  -0.526  -0.523
 -0.522  -0.520  -0.519  -0.519  -0.515  -0.513  -0.513  -0.511
 -0.507  -0.506  -0.502  -0.501  -0.495  -0.491  -0.486  -0.485
 -0.483  -0.482  -0.482  -0.480  -0.480  -0.479  -0.475  -0.474
 -0.473  -0.472  -0.471  -0.470  -0.469  -0.467  -0.466  -0.465
 -0.465  -0.464  -0.463  -0.461  -0.461  -0.460  -0.458  -0.457
 -0.457  -0.454  -0.452  -0.452  -0.449  -0.446  -0.444  -0.443
 -0.442  -0.442  -0.439  -0.438  -0.437  -0.437  -0.436  -0.433
 -0.432  -0.431  -0.428  -0.427  -0.426  -0.424  -0.423  -0.423
 -0.421  -0.421  -0.421  -0.420  -0.420  -0.418  -0.418  -0.417
 -0.417  -0.416  -0.416  -0.415  -0.414  -0.413  -0.412  -0.411
 -0.411  -0.410  -0.408  -0.407  -0.402  -0.398  -0.397  -0.397
 -0.395  -0.393  -0.392  -0.391  -0.388  -0.388  -0.387  -0.383
 -0.382  -0.379  -0.375  -0.371  -0.370  -0.368  -0.367  -0.366
 -0.364  -0.363  -0.362  -0.361  -0.360  -0.359  -0.358  -0.358
 -0.357  -0.357  -0.356  -0.355  -0.354  -0.353  -0.352  -0.352
 -0.351  -0.350  -0.348  -0.348  -0.346  -0.346  -0.345  -0.344
 -0.341  -0.341  -0.340  -0.338  -0.338  -0.337  -0.335  -0.333
 -0.332  -0.331  -0.330  -0.329  -0.328  -0.327  -0.322  -0.321
 -0.310  -0.307  -0.304  -0.300  -0.289  -0.282  -0.274  -0.271
 -0.270  -0.270  -0.268  -0.266  -0.266  -0.265  -0.264  -0.263
 -0.262  -0.261  -0.260  -0.260  -0.257  -0.255  -0.252  -0.250
 -0.249  -0.247  -0.244  -0.243  -0.225  -0.218  -0.213  -0.212
 -0.210  -0.209  -0.205  -0.201  -0.198  -0.196

          Ground-State Mulliken Net Atomic Charges

     Atom                 Charge (a.u.)
  ----------------------------------------
      1 O                    -0.460221
      2 C                    -0.092089
      3 H                     0.125308
      4 H                     0.135802
      5 H                     0.132873
      6 O                    -0.464606
      7 C                     0.600152
      8 C                    -0.260710
      9 H                     0.119325
     10 H                     0.135124
     11 C                    -0.194496
     12 H                     0.113316
     13 H                     0.111782
     14 C                    -0.189558
     15 H                     0.102852
     16 H                     0.126737
     17 C                    -0.006295
     18 C                     0.115061
     19 C                    -0.128126
     20 H                     0.096045
     21 C                    -0.083765
     22 H                     0.097614
     23 C                    -0.088074
     24 H                     0.081174
     25 C                    -0.088898
     26 H                     0.091960
     27 C                    -0.107620
     28 H                     0.087483
     29 C                    -0.031409
     30 C                    -0.046607
     31 C                     0.013122
     32 C                     0.020720
     33 C                     0.016817
     34 C                    -0.022105
     35 C                    -0.014072
     36 C                    -0.001268
     37 C                    -0.002695
     38 C                    -0.000216
     39 C                    -0.067931
     40 C                     0.003746
     41 C                    -0.008436
     42 C                     0.002274
     43 C                     0.019021
     44 C                    -0.010689
     45 C                    -0.072118
     46 C                     0.000552
     47 C                     0.016999
     48 C                     0.024253
     49 C                    -0.011045
     50 C                    -0.014472
     51 C                    -0.006760
     52 C                     0.020367
     53 C                    -0.003388
     54 C                     0.012221
     55 C                    -0.016927
     56 C                     0.032551
     57 C                    -0.000352
     58 C                    -0.023528
     59 C                     0.012066
     60 C                     0.026820
     61 C                     0.005527
     62 C                     0.013553
     63 C                     0.007003
     64 C                     0.015824
     65 C                    -0.004840
     66 C                    -0.016911
     67 C                    -0.023647
     68 C                    -0.005820
     69 C                    -0.032372
     70 C                     0.009076
     71 C                     0.010992
     72 C                    -0.002919
     73 C                    -0.016447
     74 C                     0.033005
     75 C                    -0.011568
     76 C                    -0.023068
     77 C                     0.017991
     78 C                     0.003717
     79 C                    -0.019153
     80 C                     0.065991
     81 C                     0.000809
     82 C                    -0.023607
     83 C                    -0.000437
     84 C                    -0.013335
     85 C                     0.023759
     86 C                    -0.013497
     87 C                    -0.001669
     88 C                     0.023734
     89 O                    -0.444774
     90 C                    -0.082847
     91 H                     0.112061
     92 H                     0.116495
     93 H                     0.129457
     94 O                    -0.475241
     95 C                     0.597283
     96 C                    -0.242901
     97 H                     0.132455
     98 H                     0.134991
     99 C                    -0.200243
    100 H                     0.123724
    101 H                     0.106441
    102 C                    -0.178952
    103 H                     0.112677
    104 H                     0.122072
    105 C                    -0.007734
    106 C                     0.124766
    107 C                    -0.106023
    108 H                     0.093813
    109 C                    -0.106891
    110 H                     0.083969
    111 C                    -0.080157
    112 H                     0.099512
    113 C                    -0.098634
    114 H                     0.097185
    115 C                    -0.109294
    116 H                     0.095520
    117 C                     0.014386
    118 C                     0.019275
    119 C                     0.020843
    120 C                    -0.004252
    121 C                    -0.011294
    122 C                     0.004534
    123 C                     0.017261
    124 C                     0.009678
    125 C                    -0.014469
    126 C                    -0.014220
    127 C                    -0.085621
    128 C                    -0.014811
    129 C                    -0.015433
    130 C                    -0.012038
    131 C                    -0.005007
    132 C                    -0.019064
    133 C                    -0.088773
    134 C                     0.044734
    135 C                     0.007751
    136 C                     0.001075
    137 C                    -0.036902
    138 C                    -0.039710
    139 C                    -0.019802
    140 C                     0.002035
    141 C                     0.038102
    142 C                     0.006768
    143 C                     0.000624
    144 C                    -0.016684
    145 C                     0.018862
    146 C                     0.031764
    147 C                     0.003876
    148 C                     0.037929
    149 C                    -0.003947
    150 C                    -0.007524
    151 C                    -0.014465
    152 C                    -0.012270
    153 C                     0.005447
    154 C                     0.013479
    155 C                     0.004653
    156 C                    -0.009824
    157 C                    -0.004684
    158 C                     0.026352
    159 C                    -0.009194
    160 C                     0.025502
    161 C                    -0.005466
    162 C                    -0.037956
    163 C                    -0.016125
    164 C                    -0.010061
    165 C                     0.026990
    166 C                     0.008790
    167 C                    -0.003182
    168 C                    -0.009052
    169 C                    -0.028236
    170 C                     0.002066
    171 C                    -0.020971
    172 C                    -0.013526
    173 C                    -0.023810
    174 C                     0.026408
    175 C                     0.007178
    176 C                     0.055929
  ----------------------------------------
  Sum of atomic charges =     0.000000

                    Cartesian Multipole Moments
 -----------------------------------------------------------------
    Charge (ESU x 10^10)
                 0.0000
    Dipole Moment (Debye)
         X      -0.7626      Y       0.7685      Z       0.7002
       Tot       1.2894
    Quadrupole Moments (Debye-Ang)
        XX    -818.1935     XY     -31.4647     YY    -765.0348
        XZ       1.0205     YZ      25.5960     ZZ    -812.6153

 Total job time:  864.27s(wall), 7313.49s(cpu)
        *  Thank you very much for using Q-Chem.  Have a nice day.  *
