 Q-Chem 4.4, Q-Chem, Inc., Pleasanton, CA (2016)
 Q-Chem 4.4.2 for Intel X86 Linux

User input:
--------------------------------------------------------------
$comment
SP
$end

$rem
MEM_STATIC 5000
MEM_TOTAL 20000
JOBTYPE SP
EXCHANGE B3LYP
BASIS 6-31g(d,p)
$end

$molecule
0 1
O          -8.316000     32.225000    -13.060000
C          -8.637000     33.632000    -12.636000
H          -7.814000     34.253000    -13.012000
H          -8.740000     33.663000    -11.544000
H          -9.586000     34.031000    -13.015000
O          -6.364000     32.137000    -11.856000
C          -7.172000     31.600000    -12.613000
C          -6.954000     30.199000    -13.205000
H          -6.068000     29.829000    -12.674000
H          -6.621000     30.329000    -14.242000
C          -8.176000     29.251000    -13.034000
H          -8.948000     29.560000    -13.750000
H          -7.876000     28.246000    -13.356000
C          -8.699000     29.359000    -11.562000
H          -7.882000     29.259000    -10.837000
H          -9.082000     30.373000    -11.393000
C          -9.797000     28.285000    -11.181000
C         -10.812000     28.247000    -12.282000
C         -10.770000     27.253000    -13.238000
H         -10.109000     26.394000    -13.180000
C         -11.723000     27.246000    -14.292000
H         -11.752000     26.437000    -15.015000
C         -12.654000     28.284000    -14.371000
H         -13.470000     28.314000    -15.087000
C         -12.678000     29.289000    -13.415000
H         -13.367000     30.125000    -13.487000
C         -11.700000     29.338000    -12.377000
H         -11.789000     30.085000    -11.594000
C         -13.635000     26.710000     -7.454000
C         -13.033000     24.651000     -8.661000
C         -10.683000     22.724000     -5.295000
C          -9.325000     28.827000     -5.746000
C          -7.575000     23.581000     -6.536000
C         -13.246000     26.028000     -8.713000
C          -7.449000     26.889000     -4.986000
C         -12.775000     23.948000     -5.226000
C          -9.196000     24.751000    -10.036000
C          -8.261000     28.571000     -6.606000
C          -9.445000     27.109000    -10.281000
C          -8.030000     25.355000     -9.530000
C          -7.067000     26.887000     -7.446000
C          -7.252000     25.471000     -4.989000
C         -11.481000     25.573000    -10.096000
C          -8.818000     23.643000     -4.496000
C         -10.289000     28.216000     -9.732000
C          -9.760000     28.872000     -8.484000
C          -8.517000     23.007000     -5.673000
C         -11.331000     26.720000     -3.714000
C         -10.957000     24.459000     -3.716000
C         -12.260000     24.718000     -4.153000
C         -13.521000     24.525000     -6.244000
C         -10.807000     28.983000     -7.567000
C         -10.101000     25.785000    -10.339000
C         -13.231000     23.901000     -7.491000
C          -7.383000     27.531000     -6.273000
C         -11.935000     24.403000     -9.520000
C          -7.291000     24.773000     -8.463000
C         -11.554000     28.524000     -5.318000
C         -11.999000     23.004000     -5.843000
C          -8.140000     26.744000     -9.630000
C         -13.238000     26.780000     -5.215000
C          -6.767000     25.521000     -7.407000
C          -9.658000     23.580000     -9.484000
C          -8.981000     25.952000     -3.650000
C          -8.514000     27.177000     -4.165000
C          -8.939000     22.957000     -8.421000
C         -10.587000     29.069000     -6.224000
C          -8.492000     28.562000     -7.971000
C         -10.866000     27.939000     -4.271000
C         -11.684000     27.881000     -9.317000
C         -11.178000     22.593000     -8.034000
C          -7.731000     27.489000     -8.526000
C          -7.727000     23.528000     -7.966000
C         -12.790000     27.968000     -5.782000
C          -9.691000     22.439000     -6.183000
C         -13.754000     25.946000     -6.233000
C         -10.188000     23.448000     -4.265000
C         -11.044000     23.364000     -9.196000
C          -9.883000     22.331000     -7.540000
C         -12.303000     26.597000     -9.594000
C         -11.980000     28.412000     -8.078000
C         -10.370000     25.735000     -3.436000
C         -12.263000     22.874000     -7.217000
C          -6.926000     24.802000     -6.209000
C          -9.506000     28.178000     -4.536000
C          -8.215000     24.948000     -4.136000
C         -12.968000     27.900000     -7.182000
C         -12.477000     26.120000     -4.176000
O          -8.828000     15.822000     -1.054000
C          -7.683000     15.198000     -1.780000
H          -6.793000     15.836000     -1.842000
H          -7.925000     14.938000     -2.818000
H          -7.557000     14.248000     -1.246000
O          -9.939000     13.802000     -0.883000
C          -9.900000     15.003000     -0.753000
C         -11.107000     15.813000     -0.348000
H         -11.975000     15.149000     -0.446000
H         -11.241000     16.579000     -1.122000
C         -11.033000     16.467000      1.017000
H         -11.315000     15.674000      1.722000
H         -10.035000     16.835000      1.285000
C         -12.104000     17.625000      1.023000
H         -12.002000     18.230000      0.114000
H         -13.137000     17.259000      1.057000
C         -12.022000     18.493000      2.307000
C         -12.841000     17.932000      3.434000
C         -12.275000     17.050000      4.272000
H         -11.232000     16.773000      4.152000
C         -13.009000     16.492000      5.299000
H         -12.634000     15.697000      5.936000
C         -14.392000     16.805000      5.443000
H         -15.042000     16.331000      6.172000
C         -15.001000     17.670000      4.481000
H         -16.068000     17.867000      4.517000
C         -14.210000     18.370000      3.588000
H         -14.715000     19.087000      2.947000
C         -12.437000     23.641000      4.199000
C         -10.953000     22.554000      5.845000
C          -7.140000     24.680000      4.398000
C         -10.720000     22.922000     -0.602000
C          -6.039000     21.961000      2.435000
C         -12.058000     22.496000      4.942000
C          -7.872000     22.916000     -0.462000
C          -9.410000     25.545000      4.745000
C          -8.797000     19.538000      4.080000
C         -10.026000     21.714000     -0.592000
C         -10.738000     19.218000      2.662000
C          -8.368000     19.389000      2.782000
C          -8.234000     20.586000      0.143000
C          -6.697000     22.943000      0.346000
C         -10.885000     20.481000      4.923000
C          -6.379000     24.400000      2.321000
C         -11.900000     19.947000      2.148000
C         -11.769000     20.753000      0.840000
C          -5.988000     23.236000      3.061000
C          -9.951000     25.875000      1.222000
C          -8.125000     25.967000      2.628000
C          -9.315000     26.083000      3.463000
C         -10.585000     24.899000      5.180000
C         -12.392000     21.980000      0.984000
C         -10.191000     19.509000      4.076000
C         -10.202000     23.763000      5.921000
C          -8.644000     21.736000     -0.573000
C         -10.229000     21.345000      5.789000
C          -7.206000     20.029000      2.301000
C         -11.916000     24.354000      0.740000
C          -8.289000     24.799000      5.215000
C          -9.483000     19.233000      1.890000
C         -11.602000     25.320000      3.018000
C          -7.100000     20.632000      1.002000
C          -8.111000     20.439000      4.935000
C          -7.824000     24.898000      0.501000
C          -8.588000     24.066000     -0.291000
C          -6.972000     21.073000      4.493000
C         -11.805000     23.078000      0.249000
C         -10.497000     20.653000      0.208000
C         -10.690000     25.026000      0.374000
C         -12.397000     21.070000      3.062000
C          -8.149000     22.466000      5.884000
C          -9.394000     19.918000      0.640000
C          -6.518000     20.877000      3.179000
C         -12.283000     24.487000      2.115000
C          -6.470000     23.428000      4.348000
C         -11.688000     24.829000      4.313000
C          -7.103000     25.240000      3.145000
C          -8.817000     21.276000      5.834000
C          -7.024000     22.362000      5.055000
C         -11.971000     21.183000      4.388000
C         -12.821000     22.195000      2.312000
C          -8.544000     25.798000      1.328000
C          -8.798000     23.725000      5.916000
C          -6.354000     21.822000      1.091000
C          -9.970000     24.070000     -0.390000
C          -6.667000     24.211000      0.953000
C         -12.769000     23.432000      2.885000
C         -10.440000     26.020000      2.588000
$end

--------------------------------------------------------------

             Standard Nuclear Orientation (Angstroms)
    I     Atom           X                Y                Z
 ----------------------------------------------------------------
    1      O      12.9226649206     2.6576894524     0.5605163275
    2      C      13.2215779701     3.8986226799    -0.2352234000
    3      H      13.8653424181     4.5161674242     0.4039571881
    4      H      12.2773294224     4.3892208758    -0.5030705400
    5      H      13.7277699439     3.7303823869    -1.1938202336
    6      O      11.8617943542     3.8000237107     2.2449420706
    7      C      12.2518613355     2.7376735354     1.7616803865
    8      C      12.1011534479     1.3897317182     2.4835730309
    9      H      11.4744804286     1.6300048543     3.3515630924
   10      H      13.0789572486     1.1347230261     2.9102207712
   11      C      11.4722991530     0.2741164022     1.5997326931
   12      H      12.2339534229    -0.0622628167     0.8849930243
   13      H      11.2769043655    -0.5970062499     2.2374436009
   14      C      10.2240582212     0.8593077358     0.8571542937
   15      H       9.5558736023     1.3867846980     1.5488271712
   16      H      10.5563297992     1.6395511763     0.1612650985
   17      C       9.3528703684    -0.2215046612     0.0974719341
   18      C      10.2805429970    -1.1018206845    -0.6824878041
   19      C      10.6413137220    -2.3419308765    -0.1969909497
   20      H      10.1898480111    -2.7964307567     0.6792365155
   21      C      11.5438657941    -3.1541909710    -0.9351015757
   22      H      11.7880239180    -4.1597399518    -0.6075209633
   23      C      12.0947263851    -2.6539998507    -2.1169676647
   24      H      12.7213772778    -3.2345179045    -2.7875789142
   25      C      11.7395853284    -1.3987379258    -2.5889097478
   26      H      12.1917337302    -0.9790568326    -3.4823472681
   27      C      10.8717282372    -0.5508101756    -1.8377961746
   28      H      10.5429328998     0.3911962628    -2.2662077712
   29      C       5.2560410118    -1.1123585287    -3.5799954838
   30      C       5.3352328410    -3.1520258342    -2.2044156290
   31      C       1.5023442983    -2.3949703310     0.0981085043
   32      C       4.8582792839     2.8732824870    -0.4285665538
   33      C       3.0609566643    -1.2033830610     2.9415292031
   34      C       6.0390034731    -2.1170474113    -2.8190118878
   35      C       3.2954931846     2.2667306855     1.8170101026
   36      C       1.9910112454    -2.0686583545    -2.2543638354
   37      C       6.6610164434    -2.3959798630     1.5763100062
   38      C       5.5090956932     2.6306122666     0.7775765412
   39      C       8.0050550637    -0.6557647615     0.6557658260
   40      C       6.5299450397    -1.2719152012     2.4127948676
   41      C       5.4580990531     1.2682133658     2.5406308732
   42      C       2.6199146922     1.1674464252     2.4372599037
   43      C       7.0657939114    -2.5245517293    -0.8153700469
   44      C       1.2791153702    -0.6404630351     1.4520139641
   45      C       8.0402550231     0.2182853704    -0.5583113255
   46      C       7.2717555623     1.5084728704    -0.4464820200
   47      C       2.0106602064    -1.5997074281     2.1040249664
   48      C       2.0259643377     1.3915412618    -1.9696518813
   49      C       0.9474450942    -0.3396461553    -0.9247655866
   50      C       1.4304704601    -0.7697286638    -2.1647553172
   51      C       3.1467629284    -2.3143640938    -2.9821246043
   52      C       6.5015640697     1.6639115780    -1.6006323017
   53      C       7.4067954308    -1.9928312329     0.4532450553
   54      C       3.9452308561    -3.2995476174    -2.3337825703
   55      C       4.7336246689     2.2271012174     1.8726548597
   56      C       5.9896615783    -3.3761146610    -0.9689010700
   57      C       5.3287048603    -1.0102534709     3.1282591716
   58      C       4.2953278862     2.0630852876    -2.4949886360
   59      C       2.0925224846    -2.8630559426    -1.1441255995
   60      C       7.2835056418    -0.2140680599     1.8984731350
   61      C       3.3345596046     0.1054711877    -3.5592594404
   62      C       4.7726556356     0.2658758441     3.2355868531
   63      C       5.6052898743    -3.2620741106     1.4191121514
   64      C       1.6448762344     1.5883884282     0.4660088198
   65      C       2.6942330971     2.5174864414     0.6058875414
   66      C       4.3874613511    -3.0427196374     2.1289264252
   67      C       5.3698422881     2.4243872794    -1.6187297297
   68      C       6.6969242222     1.9195764911     0.7649864045
   69      C       3.1092138949     2.2957952871    -1.8236037571
   70      C       7.4890490895    -0.3407973899    -1.8287732438
   71      C       3.8309252268    -3.9252016213     0.0778586324
   72      C       6.6817681472     1.0425086958     1.8914842411
   73      C       4.2860931204    -1.9534923147     3.0263217234
   74      C       4.4113459135     0.9739039491    -3.4182176592
   75      C       2.1623995572    -2.6987492392     1.2495764500
   76      C       3.8160922076    -1.2211826567    -3.6383285831
   77      C       0.9569968085    -1.1603169315     0.1893669198
   78      C       5.2228059115    -3.7785093616     0.1394259986
   79      C       3.2963417581    -3.4741960029     1.3028155488
   80      C       7.1026925025    -1.7327344890    -1.9763730408
   81      C       6.6527561402     0.5622871248    -2.4530732216
   82      C       1.3267208225     1.0362210278    -0.8052481549
   83      C       3.2294276292    -3.6888232031    -1.1493336441
   84      C       3.3737538449     0.1698937839     3.1292514208
   85      C       3.4821069718     2.8328245070    -0.5788160764
   86      C       1.6025138623     0.8013021698     1.5658581964
   87      C       5.6024810426     0.2163788168    -3.3577132946
   88      C       2.1207677887     0.2977092181    -2.7950631520
   89      O      -5.4993949705    -5.4921546290     3.3304152095
   90      C      -5.1414838600    -5.9482340883     4.7056854243
   91      H      -4.7635221105    -5.1501512994     5.3562211865
   92      H      -4.3612084640    -6.7194322620     4.7113142239
   93      H      -6.0640551497    -6.4412520245     5.0363325627
   94      O      -6.6416866615    -7.4506711185     2.8794774611
   95      C      -6.1773354191    -6.3912983809     2.5288646738
   96      C      -6.1655893971    -5.9505060894     1.0857644740
   97      H      -6.4153885764    -6.8357511916     0.4875458860
   98      H      -5.1212794929    -5.7212744529     0.8394766732
   99      C      -7.0461958681    -4.7629647809     0.7530560672
  100      H      -8.0508577020    -5.1873154214     0.6266474703
  101      H      -7.0853084419    -3.9988475148     1.5390885157
  102      C      -6.5147768336    -4.1728337846    -0.6098013050
  103      H      -5.4251024326    -4.0575053878    -0.5648673442
  104      H      -6.7400866635    -4.8088859021    -1.4740201340
  105      C      -7.2213162062    -2.8438776026    -0.9885909319
  106      C      -8.4944537406    -3.0668231480    -1.7534615761
  107      C      -9.6424966061    -3.2152596232    -1.0748687734
  108      H      -9.6508362811    -3.1434013483     0.0085262784
  109      C     -10.8249304600    -3.4526608373    -1.7459424240
  110      H     -11.7585486642    -3.6865791197    -1.2438883571
  111      C     -10.8267321996    -3.5994710025    -3.1636298117
  112      H     -11.7059672140    -3.8758111552    -3.7373883928
  113      C      -9.5789817379    -3.5363999577    -3.8591086602
  114      H      -9.5359357775    -3.7206011388    -4.9281320323
  115      C      -8.4446436013    -3.1016133002    -3.1977709596
  116      H      -7.5474831948    -2.9777696029    -3.7975717129
  117      C      -6.4119071380     2.1105637485    -3.2362921707
  118      C      -8.3494789811     2.4756786315    -1.7511499299
  119      C      -5.9867180423     4.8548896737     1.3967651837
  120      C      -2.5168706345    -0.0955334901    -0.6913999117
  121      C      -5.5528218851     2.0963488303     3.5556346888
  122      C      -7.6066835273     1.6390377728    -2.6388914393
  123      C      -2.5887287479     0.9312776427     1.9677795311
  124      C      -5.9177419041     4.9531400553    -1.0541781357
  125      C      -8.2120629756    -0.0777147501     1.4614994566
  126      C      -3.0934747834    -0.8474975002     0.3299118836
  127      C      -7.1596091522    -1.6494810569    -0.0558985222
  128      C      -7.1378361050    -0.6488325810     2.1025197788
  129      C      -4.2463973344    -0.8286492313     2.2519647793
  130      C      -3.2618372748     1.7227265551     2.9448934088
  131      C      -8.5369194354     0.3736095813    -0.9155610451
  132      C      -4.2863776241     3.9321821595     2.5053242960
  133      C      -6.3804008516    -1.6808335000    -1.2959519278
  134      C      -4.8437660326    -1.5732759669    -1.2263400755
  135      C      -5.4874350765     3.4477513662     3.1202753530
  136      C      -2.6811012623     3.4269110761    -1.1430176472
  137      C      -3.8348532886     4.7668149465     0.3378908171
  138      C      -4.5334602946     4.8402207358    -0.9401314210
  139      C      -6.6318894472     4.2224865287    -2.0254168863
  140      C      -4.3916763121    -0.7110506979    -2.2094862855
  141      C      -8.2488103092    -0.5769871817     0.1601656514
  142      C      -7.8205090502     3.7587968010    -1.4267172323
  143      C      -3.0734687880    -0.3511825191     1.6198887050
  144      C      -8.8681443576     1.7028583103    -0.6915613408
  145      C      -6.3864971831     0.0514076889     3.0701759103
  146      C      -3.0271376854     1.2890879579    -2.4533462737
  147      C      -6.6673303493     4.9364459472     0.1590388562
  148      C      -6.4520004970    -1.5643369577     1.2337814666
  149      C      -4.5534790690     3.2326152624    -2.7910141538
  150      C      -4.9558473715    -0.0121647621     3.1771603026
  151      C      -8.5152859351     1.2870830270     1.7039966000
  152      C      -2.4788009994     3.0167822933     1.2630929041
  153      C      -2.1990912863     1.7110184702     0.9167876708
  154      C      -7.8014526799     1.9924418252     2.6460964087
  155      C      -3.2082849221     0.0537331329    -1.8853127050
  156      C      -4.3138604448    -1.5127059873     0.0938642063
  157      C      -2.3600073315     2.0900285986    -1.4523232065
  158      C      -6.6509053860    -0.5085779109    -2.2426187809
  159      C      -8.3730683936     3.3739229639     0.9067217109
  160      C      -5.0251890020    -1.5438832282     1.2924040110
  161      C      -6.7353315400     1.3838809784     3.3273947359
  162      C      -4.1753847924     1.9033924751    -3.0425504329
  163      C      -6.5323409037     4.0311474245     2.4178667457
  164      C      -5.9263836003     3.3931552771    -2.9129241681
  165      C      -4.6183715350     4.7536186611     1.4452421686
  166      C      -8.9141255158     2.1465201160     0.6506681237
  167      C      -7.6751765843     3.2910386983     2.1190579765
  168      C      -7.7508534228     0.3362810098    -2.0727696700
  169      C      -5.4604603859    -0.0719762006    -2.8751696866
  170      C      -2.7844947164     3.8902398829     0.1879407332
  171      C      -7.8079046420     4.2023064786    -0.0941162812
  172      C      -4.4475044216     1.2596006360     3.5007916012
  173      C      -2.1364682184     1.1994222927    -0.3693261276
  174      C      -3.1835583199     3.0525421168     2.4947423487
  175      C      -5.3668710331     1.2242767148    -3.2901051183
  176      C      -3.8179907311     4.0055012240    -1.8492879753
 ----------------------------------------------------------------

    9   -5804.2798164540      9.33E-06 Convergence criterion met
 Total energy in the final basis set = -5804.2798164540

                    Orbital Energies (a.u.)
 --------------------------------------------------------------

 Alpha MOs
 -- Occupied --
-19.193 -19.188 -19.136 -19.135 -10.320 -10.314 -10.256 -10.246
-10.242 -10.240 -10.239 -10.235 -10.233 -10.233 -10.231 -10.227
-10.227 -10.226 -10.225 -10.225 -10.225 -10.224 -10.222 -10.221
-10.221 -10.221 -10.220 -10.220 -10.220 -10.219 -10.219 -10.219
-10.218 -10.218 -10.218 -10.217 -10.217 -10.217 -10.217 -10.217
-10.217 -10.217 -10.217 -10.217 -10.216 -10.216 -10.216 -10.216
-10.216 -10.216 -10.216 -10.216 -10.216 -10.216 -10.215 -10.215
-10.215 -10.215 -10.215 -10.215 -10.215 -10.214 -10.214 -10.214
-10.214 -10.214 -10.214 -10.214 -10.214 -10.214 -10.214 -10.214
-10.214 -10.214 -10.214 -10.214 -10.213 -10.213 -10.213 -10.213
-10.213 -10.213 -10.213 -10.213 -10.213 -10.212 -10.212 -10.212
-10.212 -10.212 -10.212 -10.212 -10.212 -10.212 -10.212 -10.212
-10.212 -10.212 -10.212 -10.212 -10.211 -10.211 -10.211 -10.211
-10.211 -10.211 -10.211 -10.211 -10.210 -10.210 -10.209 -10.209
-10.209 -10.209 -10.208 -10.208 -10.208 -10.208 -10.208 -10.207
-10.207 -10.207 -10.207 -10.207 -10.206 -10.206 -10.206 -10.206
-10.206 -10.206 -10.204 -10.204 -10.204 -10.204 -10.203 -10.203
-10.203 -10.201 -10.201 -10.201 -10.201 -10.201 -10.200 -10.199
-10.198 -10.198 -10.197 -10.192  -1.082  -1.078  -1.007  -0.998
 -0.981  -0.981  -0.966  -0.963  -0.962  -0.961  -0.959  -0.957
 -0.936  -0.933  -0.926  -0.926  -0.924  -0.922  -0.922  -0.920
 -0.918  -0.916  -0.898  -0.897  -0.889  -0.887  -0.886  -0.881
 -0.876  -0.875  -0.856  -0.856  -0.840  -0.840  -0.836  -0.835
 -0.833  -0.830  -0.821  -0.820  -0.808  -0.804  -0.797  -0.794
 -0.794  -0.793  -0.791  -0.790  -0.790  -0.788  -0.783  -0.780
 -0.769  -0.768  -0.766  -0.766  -0.765  -0.764  -0.763  -0.762
 -0.755  -0.751  -0.739  -0.737  -0.731  -0.731  -0.716  -0.714
 -0.713  -0.711  -0.710  -0.709  -0.709  -0.707  -0.707  -0.707
 -0.707  -0.705  -0.704  -0.703  -0.700  -0.699  -0.672  -0.671
 -0.657  -0.656  -0.655  -0.653  -0.646  -0.646  -0.631  -0.629
 -0.628  -0.626  -0.625  -0.625  -0.622  -0.621  -0.620  -0.616
 -0.613  -0.613  -0.613  -0.612  -0.611  -0.609  -0.608  -0.606
 -0.604  -0.604  -0.600  -0.599  -0.568  -0.566  -0.561  -0.561
 -0.560  -0.558  -0.558  -0.557  -0.556  -0.555  -0.552  -0.550
 -0.538  -0.536  -0.532  -0.529  -0.526  -0.526  -0.524  -0.524
 -0.524  -0.521  -0.520  -0.516  -0.514  -0.514  -0.512  -0.511
 -0.505  -0.505  -0.496  -0.492  -0.490  -0.489  -0.484  -0.482
 -0.481  -0.480  -0.479  -0.477  -0.476  -0.476  -0.475  -0.474
 -0.472  -0.470  -0.468  -0.467  -0.467  -0.465  -0.464  -0.464
 -0.463  -0.462  -0.462  -0.461  -0.460  -0.460  -0.458  -0.458
 -0.455  -0.454  -0.453  -0.451  -0.449  -0.448  -0.445  -0.443
 -0.441  -0.440  -0.438  -0.437  -0.436  -0.435  -0.434  -0.432
 -0.430  -0.429  -0.429  -0.428  -0.427  -0.426  -0.425  -0.423
 -0.422  -0.421  -0.421  -0.419  -0.418  -0.417  -0.416  -0.416
 -0.415  -0.415  -0.414  -0.413  -0.412  -0.412  -0.411  -0.411
 -0.410  -0.409  -0.409  -0.408  -0.400  -0.398  -0.396  -0.395
 -0.394  -0.391  -0.390  -0.390  -0.387  -0.387  -0.386  -0.385
 -0.381  -0.380  -0.375  -0.374  -0.369  -0.367  -0.367  -0.366
 -0.365  -0.364  -0.363  -0.362  -0.360  -0.360  -0.359  -0.357
 -0.357  -0.356  -0.355  -0.354  -0.353  -0.352  -0.352  -0.350
 -0.349  -0.348  -0.348  -0.347  -0.346  -0.344  -0.343  -0.343
 -0.342  -0.342  -0.341  -0.337  -0.337  -0.335  -0.334  -0.332
 -0.331  -0.330  -0.328  -0.328  -0.326  -0.325  -0.324  -0.321
 -0.312  -0.310  -0.300  -0.296  -0.290  -0.287  -0.269  -0.268
 -0.267  -0.267  -0.266  -0.265  -0.264  -0.264  -0.263  -0.262
 -0.261  -0.261  -0.259  -0.258  -0.258  -0.256  -0.255  -0.255
 -0.250  -0.245  -0.243  -0.241  -0.222  -0.221  -0.210  -0.209
 -0.208  -0.207  -0.207  -0.203  -0.196  -0.196

          Ground-State Mulliken Net Atomic Charges

     Atom                 Charge (a.u.)
  ----------------------------------------
      1 O                    -0.485277
      2 C                    -0.086064
      3 H                     0.139210
      4 H                     0.135297
      5 H                     0.129599
      6 O                    -0.471746
      7 C                     0.585648
      8 C                    -0.258198
      9 H                     0.138014
     10 H                     0.129668
     11 C                    -0.184498
     12 H                     0.134887
     13 H                     0.106651
     14 C                    -0.183600
     15 H                     0.113268
     16 H                     0.124621
     17 C                    -0.004426
     18 C                     0.085426
     19 C                    -0.107053
     20 H                     0.094722
     21 C                    -0.095902
     22 H                     0.093714
     23 C                    -0.075733
     24 H                     0.089886
     25 C                    -0.092001
     26 H                     0.088862
     27 C                    -0.097022
     28 H                     0.095555
     29 C                    -0.032979
     30 C                     0.019373
     31 C                     0.011221
     32 C                     0.016924
     33 C                    -0.010940
     34 C                    -0.016871
     35 C                    -0.010762
     36 C                     0.009107
     37 C                     0.005926
     38 C                    -0.005976
     39 C                    -0.080490
     40 C                     0.018799
     41 C                     0.008018
     42 C                    -0.023422
     43 C                     0.012733
     44 C                    -0.015566
     45 C                    -0.089990
     46 C                     0.028451
     47 C                     0.009554
     48 C                    -0.001623
     49 C                     0.008144
     50 C                    -0.016624
     51 C                     0.001676
     52 C                     0.009110
     53 C                     0.035971
     54 C                    -0.013286
     55 C                     0.010969
     56 C                    -0.003886
     57 C                     0.002659
     58 C                    -0.016153
     59 C                    -0.006106
     60 C                    -0.004852
     61 C                     0.000419
     62 C                    -0.018797
     63 C                    -0.011914
     64 C                     0.024249
     65 C                    -0.016820
     66 C                     0.002451
     67 C                    -0.011262
     68 C                    -0.011650
     69 C                     0.011024
     70 C                     0.025694
     71 C                     0.003973
     72 C                     0.016082
     73 C                    -0.028173
     74 C                    -0.007947
     75 C                     0.008065
     76 C                    -0.007317
     77 C                     0.005584
     78 C                    -0.010435
     79 C                    -0.003242
     80 C                    -0.020758
     81 C                     0.036511
     82 C                    -0.009097
     83 C                    -0.007367
     84 C                     0.018559
     85 C                    -0.011867
     86 C                     0.007582
     87 C                     0.007405
     88 C                     0.008240
     89 O                    -0.483805
     90 C                    -0.094461
     91 H                     0.130560
     92 H                     0.126724
     93 H                     0.141989
     94 O                    -0.461897
     95 C                     0.584065
     96 C                    -0.240776
     97 H                     0.131855
     98 H                     0.123744
     99 C                    -0.189038
    100 H                     0.118428
    101 H                     0.127297
    102 C                    -0.188184
    103 H                     0.113467
    104 H                     0.118515
    105 C                    -0.001190
    106 C                     0.080452
    107 C                    -0.089010
    108 H                     0.095007
    109 C                    -0.099830
    110 H                     0.092061
    111 C                    -0.088491
    112 H                     0.092041
    113 C                    -0.092559
    114 H                     0.089149
    115 C                    -0.096803
    116 H                     0.094134
    117 C                    -0.008100
    118 C                    -0.010607
    119 C                    -0.005992
    120 C                    -0.021924
    121 C                     0.013939
    122 C                    -0.017011
    123 C                    -0.013101
    124 C                    -0.007036
    125 C                     0.015435
    126 C                    -0.023843
    127 C                    -0.050758
    128 C                    -0.004303
    129 C                    -0.029734
    130 C                    -0.001791
    131 C                     0.000800
    132 C                    -0.012197
    133 C                    -0.099288
    134 C                    -0.006227
    135 C                    -0.013515
    136 C                    -0.003574
    137 C                    -0.005931
    138 C                    -0.009004
    139 C                    -0.002130
    140 C                     0.001012
    141 C                     0.014941
    142 C                    -0.003224
    143 C                     0.008132
    144 C                     0.004957
    145 C                     0.007480
    146 C                    -0.039978
    147 C                    -0.005627
    148 C                     0.007700
    149 C                     0.012024
    150 C                    -0.024481
    151 C                    -0.001308
    152 C                    -0.021918
    153 C                     0.041812
    154 C                     0.003193
    155 C                     0.022279
    156 C                     0.038971
    157 C                    -0.018111
    158 C                     0.026081
    159 C                     0.007823
    160 C                     0.008380
    161 C                    -0.006707
    162 C                     0.011982
    163 C                    -0.011414
    164 C                     0.000332
    165 C                     0.053328
    166 C                    -0.015062
    167 C                    -0.001294
    168 C                     0.004140
    169 C                     0.016678
    170 C                     0.007401
    171 C                     0.011365
    172 C                     0.013495
    173 C                     0.038569
    174 C                    -0.014075
    175 C                     0.007059
    176 C                    -0.025293
  ----------------------------------------
  Sum of atomic charges =     0.000000

                    Cartesian Multipole Moments
 -----------------------------------------------------------------
    Charge (ESU x 10^10)
                 0.0000
    Dipole Moment (Debye)
         X       4.0890      Y      -1.9326      Z      -1.9438
       Tot       4.9227
    Quadrupole Moments (Debye-Ang)
        XX    -728.2079     XY      -5.9308     YY    -827.1850
        XZ      -7.3223     YZ      -3.6242     ZZ    -798.9754

 Total job time:  828.32s(wall), 6969.69s(cpu)
        *  Thank you very much for using Q-Chem.  Have a nice day.  *
