 Q-Chem 4.4, Q-Chem, Inc., Pleasanton, CA (2016)
 Q-Chem 4.4.2 for Intel X86 Linux

User input:
--------------------------------------------------------------
$comment
SP
$end

$rem
MEM_STATIC 5000
MEM_TOTAL 20000
JOBTYPE SP
EXCHANGE B3LYP
BASIS 6-31g(d,p)
$end

$molecule
0 1
O           9.874000     13.023000      9.933000
C          11.151000     13.707000      9.711000
H          11.616000     13.472000      8.745000
H          11.884000     13.514000     10.503000
H          11.018000     14.794000      9.652000
O           9.105000     13.671000      7.911000
C           8.956000     13.063000      8.926000
C           7.675000     12.364000      9.270000
H           7.098000     12.232000      8.346000
H           7.035000     13.013000      9.880000
C           7.798000     10.976000      9.947000
H           8.532000     10.326000      9.457000
H           8.242000     11.275000     10.905000
C           6.455000     10.292000     10.033000
H           5.710000     11.055000     10.291000
H           6.287000      9.951000      9.004000
C           6.492000      9.089000     11.015000
C           6.448000      9.531000     12.454000
C           5.127000      9.842000     12.950000
H           4.290000      9.890000     12.261000
C           5.029000     10.275000     14.261000
H           4.061000     10.560000     14.664000
C           6.214000     10.487000     15.010000
H           6.116000     10.898000     16.011000
C           7.495000     10.164000     14.516000
H           8.368000     10.181000     15.163000
C           7.612000      9.654000     13.255000
H           8.599000      9.351000     12.918000
C           8.385000      4.098000     12.160000
C           6.126000      4.007000     13.088000
C           4.588000      1.235000      9.790000
C           8.618000      5.646000      7.279000
C           3.231000      3.855000      7.898000
C           7.292000      4.736000     12.836000
C           6.297000      4.751000      6.017000
C           6.684000      1.239000     10.910000
C           3.845000      6.439000     10.838000
C           7.539000      6.520000      7.058000
C           5.736000      7.840000     10.551000
C           3.858000      6.860000      9.522000
C           5.262000      6.698000      7.069000
C           5.127000      4.007000      6.286000
C           5.619000      6.149000     12.459000
C           4.659000      1.961000      7.568000
C           7.228000      7.818000     10.610000
C           7.898000      7.423000      9.268000
C           3.603000      2.584000      8.253000
C           8.608000      2.168000      8.216000
C           6.695000      1.039000      8.523000
C           7.336000      1.057000      9.746000
C           7.132000      1.982000     12.000000
C           8.971000      6.506000      9.559000
C           4.965000      6.962000     11.462000
C           6.041000      2.671000     12.644000
C           6.408000      6.091000      6.432000
C           5.100000      4.878000     12.731000
C           3.381000      6.012000      8.516000
C           9.611000      4.300000      8.902000
C           5.276000      1.298000     11.017000
C           4.981000      7.639000      9.280000
C           9.037000      2.576000     10.593000
C           4.020000      5.940000      7.277000
C           3.251000      5.201000     11.194000
C           6.786000      2.614000      6.708000
C           7.354000      3.876000      6.293000
C           2.813000      4.375000     10.230000
C           9.322000      5.611000      8.538000
C           7.139000      7.329000      8.132000
C           9.085000      3.508000      7.928000
C           7.828000      6.796000     11.513000
C           3.825000      3.048000     11.792000
C           5.733000      7.428000      8.126000
C           2.826000      4.780000      8.864000
C           9.541000      3.883000     10.256000
C           3.521000      2.128000      9.601000
C           8.348000      2.712000     11.836000
C           5.264000      1.172000      8.515000
C           3.927000      4.393000     12.145000
C           3.106000      3.032000     10.567000
C           7.012000      6.010000     12.439000
C           8.853000      6.096000     10.906000
C           7.423000      1.736000      7.570000
C           4.859000      2.177000     12.036000
C           3.959000      4.562000      6.862000
C           8.485000      4.283000      6.897000
C           5.420000      2.679000      6.612000
C           9.162000      4.755000     11.264000
C           8.555000      1.740000      9.583000
O          11.756000      9.007000      7.440000
C          11.755000      9.075000      8.947000
H          11.087000      8.301000      9.345000
H          11.478000     10.084000      9.277000
H          12.710000      8.784000      9.402000
O           9.537000      9.285000      7.293000
C          10.612000      9.060000      6.719000
C          10.755000      8.900000      5.235000
H          11.782000      8.576000      5.029000
H          10.799000      9.946000      4.907000
C           9.662000      7.972000      4.593000
H           9.944000      6.934000      4.807000
H           8.694000      8.237000      5.036000
C           9.757000      8.315000      3.114000
H           9.715000      9.400000      2.958000
H          10.723000      7.986000      2.713000
C           8.532000      7.612000      2.350000
C           7.309000      8.447000      2.420000
C           7.034000      9.453000      1.538000
H           7.708000      9.546000      0.691000
C           5.961000     10.270000      1.737000
H           5.745000     10.996000      0.959000
C           4.951000      9.957000      2.691000
H           4.088000     10.603000      2.823000
C           5.175000      8.955000      3.592000
H           4.488000      8.779000      4.414000
C           6.414000      8.261000      3.501000
H           6.577000      7.389000      4.126000
C           5.741000      2.965000      1.670000
C           5.488000      4.120000     -0.466000
C           8.158000      1.353000     -2.976000
C          10.558000      2.473000      2.823000
C          10.953000      3.516000     -2.732000
C           5.645000      4.140000      0.921000
C          12.010000      2.246000      0.414000
C           6.441000      0.909000     -1.233000
C           8.699000      6.458000     -1.201000
C          11.249000      3.550000      2.351000
C           8.882000      6.832000      1.131000
C          10.053000      6.361000     -0.889000
C          11.930000      4.693000      0.445000
C          11.951000      2.215000     -0.974000
C           6.736000      5.962000      0.075000
C          10.369000      1.141000     -2.311000
C           8.462000      6.082000      2.342000
C           9.397000      5.074000      2.931000
C          10.230000      2.367000     -3.020000
C           8.852000     -0.135000      1.165000
C           8.666000     -0.158000     -1.104000
C           7.357000      0.065000     -0.573000
C           5.608000      1.707000     -0.452000
C           8.719000      3.941000      3.393000
C           7.956000      6.665000     -0.023000
C           5.474000      2.894000     -1.136000
C          12.008000      3.450000      1.155000
C           6.233000      5.195000     -0.974000
C          10.864000      5.439000     -1.565000
C           8.575000      1.550000      2.942000
C           6.846000      1.522000     -2.397000
C          10.193000      6.454000      0.506000
C           6.721000      0.937000      1.560000
C          11.796000      4.642000     -0.930000
C           8.173000      5.771000     -2.251000
C          10.823000      0.393000     -0.121000
C          11.376000      1.147000      0.949000
C           8.985000      4.883000     -2.953000
C           9.322000      2.687000      3.374000
C          10.698000      4.905000      2.351000
C           9.385000      0.634000      2.186000
C           7.260000      5.241000      2.282000
C           6.981000      3.878000     -2.782000
C          11.141000      5.569000      1.170000
C          10.344000      4.772000     -2.691000
C           7.244000      1.665000      2.695000
C           8.873000      2.464000     -3.371000
C           5.764000      1.748000      0.945000
C           9.058000      0.496000     -2.311000
C           6.916000      5.129000     -2.176000
C           8.256000      3.726000     -3.354000
C           6.394000      5.259000      1.257000
C           7.370000      4.071000      3.056000
C           9.582000     -0.236000     -0.046000
C           6.224000      2.744000     -2.367000
C          11.843000      3.433000     -1.625000
C          10.628000      1.251000      2.123000
C          11.249000      1.043000     -1.245000
C           6.655000      2.906000      2.688000
C           7.552000      0.090000      0.801000
$end

--------------------------------------------------------------

             Standard Nuclear Orientation (Angstroms)
    I     Atom           X                Y                Z
 ----------------------------------------------------------------
    1      O       6.2176130760     6.8304562737    -1.1458910598
    2      C       5.9943651200     7.9348005256    -2.0831493612
    3      H       4.9363174875     8.1078688330    -2.3180718343
    4      H       6.5419973086     7.8148157345    -3.0252240057
    5      H       6.3014977451     8.8948811701    -1.6511149799
    6      O       4.6701600349     7.6476324391     0.2814705623
    7      C       5.4548788527     6.8005373488    -0.0164157999
    8      C       5.7880319952     5.6519596315     0.8878387058
    9      H       4.9880770320     5.5596840207     1.6332823781
   10      H       6.6740840605     5.8827840197     1.4916042557
   11      C       5.9657519760     4.2662070798     0.2184304045
   12      H       5.1745244626     4.0372221844    -0.5046746637
   13      H       6.8732666637     4.4579502380    -0.3680443630
   14      C       6.0739115193     3.1723267297     1.2531421000
   15      H       6.6857696450     3.5561701395     2.0790064174
   16      H       5.0375744964     3.0517981111     1.5919996321
   17      C       6.6092785010     1.8532749652     0.6315420378
   18      C       8.0977001587     1.8965898504     0.4062737763
   19      C       8.8942596026     1.6185446789     1.5792878150
   20      H       8.4162665579     1.5468802491     2.5508745886
   21      C      10.2701058201     1.6662267940     1.4358040113
   22      H      10.9084851500     1.5050461085     2.3001827580
   23      C      10.8226254357     2.0770426603     0.1963999617
   24      H      11.9023150870     2.1789370778     0.1299636405
   25      C      10.0313694862     2.3302712414    -0.9433874343
   26      H      10.4839432447     2.4832892581    -1.9194967927
   27      C       8.6748116237     2.2068130566    -0.8516331834
   28      H       8.0890174551     2.3421477315    -1.7561091188
   29      C       5.7848974385    -2.3346924244    -2.7722617179
   30      C       7.0276811011    -3.3968308607    -0.9556999352
   31      C       3.3627488175    -5.6480801359     0.6019842619
   32      C       1.6697484633     0.3231954603    -1.2636415192
   33      C       2.6558681983    -3.2621111556     3.0703814777
   34      C       6.8103453623    -2.2814871447    -1.7701166416
   35      C       0.6295645204    -0.9677421831     0.9796166839
   36      C       4.0334155050    -5.2104264783    -1.6354914297
   37      C       6.0938549959    -1.4060183081     2.4124923374
   38      C       1.9290163906     0.8110162124     0.0293275662
   39      C       5.9230307767     0.5729825209     1.1181099344
   40      C       4.9944053072    -0.7027895858     2.8663047946
   41      C       2.4029645371     0.2076327505     2.1805680344
   42      C       0.8588137909    -2.1021669703     1.7891364022
   43      C       7.1983055297    -1.4641719440     0.2594423674
   44      C       1.5023078531    -4.4304619187     1.3269437747
   45      C       5.7037222372     1.0387224402    -0.2836814524
   46      C       4.2082109895     1.2247516207    -0.6507349254
   47      C       2.5248517840    -4.3806835804     2.2884093365
   48      C       1.4634142418    -3.0738821725    -2.4434053708
   49      C       1.7415128274    -4.8171897703    -1.0606549247
   50      C       2.7735507694    -4.8789749673    -1.9760861212
   51      C       5.2016049677    -4.6443753167    -2.1412309493
   52      C       4.0019621855     0.6789691411    -1.9684913201
   53      C       6.6381766794    -0.7036447176     1.3505647295
   54      C       6.2127047684    -4.5363614778    -1.1186126414
   55      C       1.4140596360     0.1910919698     1.1273218623
   56      C       7.1495895532    -2.8614069077     0.3238412012
   57      C       3.8771259854    -1.3943591808     3.3480593091
   58      C       2.5874046912    -0.9593878640    -2.9796779592
   59      C       4.4040994617    -5.6540698302    -0.3458527281
   60      C       4.8096755529     0.4413124720     2.1024727456
   61      C       3.7318338094    -3.1277571624    -3.3664460800
   62      C       2.5838375263    -0.9490618100     3.0692381956
   63      C       6.1472520038    -2.8184345087     2.5326806725
   64      C       0.5215856502    -2.9167280303    -0.2341237048
   65      C       0.4252589922    -1.4770207122    -0.3079953038
   66      C       5.0690243305    -3.4869502915     2.9730529385
   67      C       2.7075902032     0.2256004201    -2.2612795954
   68      C       3.2548678090     1.1569045460     0.3300538157
   69      C       1.5262063682    -1.6240121423    -2.4460594738
   70      C       6.1207529068     0.0921710627    -1.3560707988
   71      C       5.9322593538    -4.7312415494     1.2608959480
   72      C       3.5321861447     0.7774494551     1.6588808829
   73      C       3.9179316794    -2.7863239823     3.4359335747
   74      C       3.7337834630    -1.6871732541    -3.3898597940
   75      C       3.6556432819    -5.1465906229     1.8804130245
   76      C       5.0577415989    -3.5324471067    -3.0251828637
   77      C       2.0320303467    -5.1735604935     0.3010034314
   78      C       6.6620628071    -3.5560149417     1.4348710617
   79      C       4.9129632061    -4.6932900356     2.2495501069
   80      C       6.8866028807    -1.1192938744    -1.0611902748
   81      C       5.1525936750    -0.0568440122    -2.3305122847
   82      C       0.9385410645    -3.7098428156    -1.2909179704
   83      C       5.7034587783    -5.2369161973     0.0042032859
   84      C       1.7785490340    -2.1257694924     2.8650337037
   85      C       0.9128362911    -0.8718735916    -1.4060350755
   86      C       0.6971558769    -3.2922031919     1.0726243575
   87      C       5.0138845397    -1.2610306914    -3.0738965847
   88      C       2.6154531980    -3.8091090993    -2.8757589408
   89      O       2.3035120239     4.3987268527    -3.3026789438
   90      C       3.7312710359     4.0993589507    -3.6868105138
   91      H       3.9815610772     3.0748993839    -3.3842522697
   92      H       4.4029804761     4.8469300303    -3.2467492580
   93      H       3.8940868746     4.0451853645    -4.7704558548
   94      O       2.6507330730     3.9437490533    -1.1358179088
   95      C       1.8522577399     4.2364184428    -2.0372100381
   96      C       0.3918657451     4.4940227940    -1.8153988128
   97      H      -0.0853809613     4.5922436385    -2.7976051286
   98      H       0.4034542059     5.5404877850    -1.4861379282
   99      C      -0.3001588127     3.4359580958    -0.8828763702
  100      H      -0.4741014178     2.5333232096    -1.4810053131
  101      H       0.3693253343     3.2469708662    -0.0345999978
  102      C      -1.5907106821     4.1346321789    -0.4823200093
  103      H      -1.3910429445     5.1466174954    -0.1090325682
  104      H      -2.2405606366     4.2545693415    -1.3572532145
  105      C      -2.3028889439     3.2665909379     0.6656506032
  106      C      -1.7583636719     3.6009158184     2.0033998706
  107      C      -2.2190503151     4.6367538252     2.7652347875
  108      H      -3.1014198964     5.1502298838     2.3936163550
  109      C      -1.5866338075     4.9740350665     3.9248509848
  110      H      -2.0479957485     5.7495836779     4.5287429541
  111      C      -0.6126383856     4.1218734531     4.5192738165
  112      H      -0.1336305109     4.3897474264     5.4564525562
  113      C      -0.1238303109     3.0680405675     3.8006056626
  114      H       0.7117037361     2.4805648797     4.1685515452
  115      C      -0.6469341625     2.8725912329     2.4917130322
  116      H      -0.3643018724     1.9828945285     1.9384167619
  117      C      -3.8835191738    -1.7401943304     2.1757497239
  118      C      -5.4720720944    -0.2608195289     3.2931036585
  119      C      -9.1545582779    -1.2863124334     0.7489046076
  120      C      -3.8243316207    -0.8506998146    -2.7212144724
  121      C      -8.7547308232     1.5627502192    -1.3182456065
  122      C      -4.1995745005    -0.5222404450     2.7819999723
  123      C      -6.4035481937     0.0060354894    -3.4806619615
  124      C      -7.3582330832    -2.6837405120     1.7507451937
  125      C      -6.0060192290     3.1216131746     1.1504325537
  126      C      -4.0534925981     0.4752966441    -2.9435040085
  127      C      -3.7460701964     2.9651092868     0.4578100716
  128      C      -5.9878155056     3.4121659737    -0.2116675510
  129      C      -5.5986029451     2.2015937158    -2.7548815395
  130      C      -7.6979748397     0.2905089675    -3.0629054555
  131      C      -4.6176004999     1.7062426570     2.4907984480
  132      C      -8.9963757793    -0.8979588747    -1.5314133111
  133      C      -2.7740419368     1.8508646140     0.3198214067
  134      C      -2.7057623240     1.1045356729    -0.9746054959
  135      C      -9.2515162389     0.3424781880    -0.8823391710
  136      C      -5.8775566225    -3.4016544576    -1.4028967938
  137      C      -7.9689180809    -2.9414040809    -0.6296808855
  138      C      -7.1692378922    -3.3040011673     0.4991264270
  139      C      -6.2316100352    -2.4227727082     2.5274499723
  140      C      -2.5056957906    -0.2657385486    -0.7767698564
  141      C      -4.7089905383     2.7790977420     1.5781962195
  142      C      -6.4764550795    -1.2221870998     3.1546868505
  143      C      -5.3368831801     0.9249870274    -3.3523856213
  144      C      -5.7451351993     1.0900717707     3.0299625607
  145      C      -7.0510992852     3.0056812827    -1.0295787931
  146      C      -3.6450124568    -2.3847131558    -1.1678224720
  147      C      -8.3263524003    -1.7106195939     1.8530714690
  148      C      -4.6820812200     3.2096526222    -0.6894963046
  149      C      -4.7931449139    -3.2334608237     0.7516639846
  150      C      -6.8736747739     2.4395983656    -2.2766267769
  151      C      -7.1054618251     2.5708740069     1.7327188641
  152      C      -7.2667817885    -1.9520484486    -2.7393536231
  153      C      -6.1326604634    -1.3360007211    -3.3338946371
  154      C      -8.1826064365     2.2019345504     0.9300139597
  155      C      -3.0218770014    -1.2018290308    -1.6677118111
  156      C      -3.5329291035     1.5253966404    -2.0683299424
  157      C      -4.7809096390    -2.7669017811    -1.9617755223
  158      C      -2.8762883190     0.6961388147     1.2208424974
  159      C      -7.9765165552     0.5737071871     2.4667913067
  160      C      -4.5078527059     2.5617953389    -1.9828448134
  161      C      -8.2163196655     2.4933827406    -0.4271033420
  162      C      -3.6010758847    -2.6667277265     0.1604592599
  163      C      -9.3055789486     0.0602625051     0.4929755318
  164      C      -4.9430639940    -2.6677882440     2.0202591927
  165      C      -8.9620744113    -1.9249779393    -0.4927597322
  166      C      -7.0099150723     1.5467162791     2.7021567252
  167      C      -8.7862638445     0.9994310112     1.3995605195
  168      C      -3.6719928281     0.6679080775     2.3011028177
  169      C      -2.5378555777    -0.5185566248     0.5962992491
  170      C      -7.1700574422    -2.9589990589    -1.7812086084
  171      C      -7.8064591468    -0.8126898892     2.7500114059
  172      C      -7.9070351570     1.5201495391    -2.4601892301
  173      C      -4.8705287508    -1.7730904034    -2.9282197061
  174      C      -8.1898194768    -0.9477573257    -2.6571784044
  175      C      -3.1157160095    -1.7315641328     1.0419045755
  176      C      -5.9141298436    -3.5450192525    -0.0422976849
 ----------------------------------------------------------------

    9   -5804.2768948663      7.50E-06 Convergence criterion met
 Total energy in the final basis set = -5804.2768948663

                    Orbital Energies (a.u.)
 --------------------------------------------------------------

 Alpha MOs
 -- Occupied --
-19.194 -19.192 -19.131 -19.129 -10.317 -10.311 -10.254 -10.248
-10.240 -10.239 -10.238 -10.236 -10.235 -10.233 -10.230 -10.226
-10.226 -10.224 -10.224 -10.224 -10.223 -10.222 -10.222 -10.221
-10.221 -10.220 -10.220 -10.219 -10.219 -10.219 -10.218 -10.218
-10.218 -10.218 -10.217 -10.217 -10.217 -10.217 -10.217 -10.216
-10.216 -10.216 -10.216 -10.216 -10.216 -10.216 -10.215 -10.215
-10.215 -10.215 -10.215 -10.215 -10.215 -10.215 -10.214 -10.214
-10.214 -10.214 -10.214 -10.214 -10.213 -10.213 -10.213 -10.213
-10.213 -10.213 -10.213 -10.213 -10.213 -10.212 -10.212 -10.212
-10.212 -10.212 -10.212 -10.212 -10.212 -10.212 -10.212 -10.212
-10.212 -10.212 -10.212 -10.211 -10.211 -10.211 -10.211 -10.211
-10.211 -10.211 -10.211 -10.210 -10.210 -10.210 -10.210 -10.210
-10.210 -10.210 -10.210 -10.210 -10.210 -10.210 -10.209 -10.209
-10.209 -10.209 -10.209 -10.209 -10.209 -10.208 -10.208 -10.208
-10.208 -10.208 -10.208 -10.208 -10.208 -10.207 -10.207 -10.207
-10.207 -10.207 -10.207 -10.206 -10.206 -10.206 -10.205 -10.205
-10.204 -10.204 -10.204 -10.204 -10.203 -10.203 -10.202 -10.201
-10.201 -10.200 -10.199 -10.198 -10.198 -10.195 -10.195 -10.195
-10.194 -10.194 -10.191 -10.181  -1.095  -1.084  -1.014  -0.991
 -0.984  -0.982  -0.967  -0.964  -0.964  -0.964  -0.961  -0.959
 -0.934  -0.933  -0.928  -0.926  -0.926  -0.925  -0.922  -0.922
 -0.921  -0.920  -0.897  -0.896  -0.889  -0.887  -0.884  -0.883
 -0.877  -0.873  -0.858  -0.853  -0.846  -0.842  -0.841  -0.839
 -0.838  -0.834  -0.821  -0.817  -0.808  -0.803  -0.801  -0.798
 -0.796  -0.795  -0.793  -0.793  -0.792  -0.789  -0.784  -0.784
 -0.772  -0.771  -0.769  -0.768  -0.768  -0.766  -0.765  -0.761
 -0.758  -0.751  -0.742  -0.738  -0.735  -0.729  -0.719  -0.715
 -0.714  -0.714  -0.713  -0.713  -0.711  -0.710  -0.710  -0.708
 -0.706  -0.705  -0.704  -0.703  -0.700  -0.700  -0.677  -0.672
 -0.660  -0.658  -0.658  -0.657  -0.649  -0.646  -0.632  -0.631
 -0.626  -0.626  -0.623  -0.622  -0.622  -0.619  -0.618  -0.617
 -0.614  -0.614  -0.613  -0.611  -0.611  -0.610  -0.609  -0.608
 -0.606  -0.604  -0.604  -0.601  -0.569  -0.567  -0.563  -0.562
 -0.561  -0.560  -0.559  -0.558  -0.556  -0.554  -0.552  -0.552
 -0.539  -0.536  -0.531  -0.531  -0.527  -0.526  -0.525  -0.525
 -0.523  -0.520  -0.519  -0.518  -0.517  -0.513  -0.513  -0.512
 -0.507  -0.505  -0.500  -0.497  -0.492  -0.489  -0.485  -0.485
 -0.484  -0.483  -0.482  -0.480  -0.480  -0.478  -0.475  -0.474
 -0.472  -0.471  -0.468  -0.468  -0.467  -0.466  -0.465  -0.464
 -0.464  -0.463  -0.463  -0.462  -0.461  -0.460  -0.459  -0.458
 -0.457  -0.455  -0.453  -0.452  -0.447  -0.447  -0.446  -0.443
 -0.442  -0.441  -0.441  -0.439  -0.438  -0.435  -0.435  -0.433
 -0.432  -0.431  -0.429  -0.428  -0.427  -0.426  -0.424  -0.423
 -0.423  -0.421  -0.421  -0.420  -0.420  -0.418  -0.417  -0.417
 -0.416  -0.416  -0.415  -0.415  -0.414  -0.413  -0.413  -0.412
 -0.411  -0.410  -0.409  -0.408  -0.402  -0.399  -0.397  -0.394
 -0.392  -0.391  -0.391  -0.389  -0.387  -0.386  -0.384  -0.383
 -0.378  -0.375  -0.373  -0.372  -0.368  -0.368  -0.366  -0.364
 -0.364  -0.362  -0.361  -0.361  -0.360  -0.358  -0.358  -0.357
 -0.357  -0.356  -0.355  -0.355  -0.353  -0.353  -0.352  -0.351
 -0.348  -0.347  -0.346  -0.346  -0.345  -0.344  -0.343  -0.342
 -0.341  -0.340  -0.339  -0.337  -0.337  -0.336  -0.334  -0.333
 -0.332  -0.331  -0.330  -0.328  -0.328  -0.326  -0.326  -0.320
 -0.311  -0.308  -0.301  -0.296  -0.287  -0.284  -0.273  -0.272
 -0.270  -0.267  -0.267  -0.266  -0.265  -0.265  -0.264  -0.263
 -0.262  -0.261  -0.260  -0.260  -0.257  -0.257  -0.255  -0.254
 -0.247  -0.245  -0.244  -0.242  -0.222  -0.221  -0.213  -0.211
 -0.208  -0.208  -0.208  -0.204  -0.199  -0.193

          Ground-State Mulliken Net Atomic Charges

     Atom                 Charge (a.u.)
  ----------------------------------------
      1 O                    -0.473612
      2 C                    -0.094305
      3 H                     0.132214
      4 H                     0.121232
      5 H                     0.128542
      6 O                    -0.461608
      7 C                     0.612029
      8 C                    -0.274502
      9 H                     0.129887
     10 H                     0.128432
     11 C                    -0.198263
     12 H                     0.139381
     13 H                     0.111119
     14 C                    -0.181848
     15 H                     0.102465
     16 H                     0.117961
     17 C                     0.012304
     18 C                     0.064579
     19 C                    -0.091726
     20 H                     0.099205
     21 C                    -0.089761
     22 H                     0.092235
     23 C                    -0.088210
     24 H                     0.086639
     25 C                    -0.088056
     26 H                     0.093213
     27 C                    -0.086309
     28 H                     0.093975
     29 C                     0.009011
     30 C                    -0.016342
     31 C                    -0.017490
     32 C                    -0.021447
     33 C                    -0.005502
     34 C                    -0.005300
     35 C                     0.022657
     36 C                     0.048777
     37 C                     0.022384
     38 C                     0.016812
     39 C                    -0.094484
     40 C                    -0.001479
     41 C                    -0.038084
     42 C                     0.006072
     43 C                    -0.025779
     44 C                     0.005512
     45 C                    -0.098121
     46 C                     0.037737
     47 C                     0.008005
     48 C                    -0.029808
     49 C                    -0.019357
     50 C                     0.040299
     51 C                    -0.024835
     52 C                    -0.016943
     53 C                     0.037763
     54 C                     0.003929
     55 C                    -0.029034
     56 C                     0.016056
     57 C                     0.012167
     58 C                     0.016416
     59 C                    -0.017822
     60 C                     0.010454
     61 C                     0.002491
     62 C                    -0.024767
     63 C                    -0.016669
     64 C                     0.025143
     65 C                     0.002772
     66 C                     0.022510
     67 C                    -0.027699
     68 C                     0.048869
     69 C                     0.010915
     70 C                     0.047240
     71 C                     0.004581
     72 C                     0.035375
     73 C                    -0.006353
     74 C                    -0.010776
     75 C                     0.002506
     76 C                    -0.040680
     77 C                    -0.003238
     78 C                    -0.008958
     79 C                    -0.008312
     80 C                     0.012474
     81 C                    -0.010470
     82 C                    -0.001856
     83 C                     0.003813
     84 C                    -0.025024
     85 C                    -0.005085
     86 C                    -0.005738
     87 C                     0.015271
     88 C                    -0.017398
     89 O                    -0.478572
     90 C                    -0.093164
     91 H                     0.134071
     92 H                     0.138249
     93 H                     0.127728
     94 O                    -0.495359
     95 C                     0.590215
     96 C                    -0.267698
     97 H                     0.127750
     98 H                     0.144261
     99 C                    -0.177300
    100 H                     0.122269
    101 H                     0.145221
    102 C                    -0.185250
    103 H                     0.119507
    104 H                     0.111657
    105 C                    -0.007586
    106 C                     0.111371
    107 C                    -0.095499
    108 H                     0.087265
    109 C                    -0.098342
    110 H                     0.087292
    111 C                    -0.085085
    112 H                     0.091119
    113 C                    -0.086806
    114 H                     0.097476
    115 C                    -0.122040
    116 H                     0.087022
    117 C                    -0.008056
    118 C                     0.017745
    119 C                     0.004413
    120 C                     0.009646
    121 C                    -0.027546
    122 C                    -0.005704
    123 C                     0.011132
    124 C                     0.004448
    125 C                     0.016298
    126 C                    -0.008554
    127 C                    -0.097271
    128 C                    -0.002498
    129 C                    -0.030066
    130 C                     0.023829
    131 C                    -0.001022
    132 C                    -0.018082
    133 C                    -0.054612
    134 C                     0.006143
    135 C                     0.036579
    136 C                    -0.023867
    137 C                    -0.011755
    138 C                    -0.011219
    139 C                     0.010760
    140 C                     0.021806
    141 C                     0.032165
    142 C                    -0.028175
    143 C                    -0.012208
    144 C                     0.001365
    145 C                    -0.006670
    146 C                    -0.011669
    147 C                     0.030904
    148 C                     0.020706
    149 C                    -0.019675
    150 C                     0.040418
    151 C                     0.000830
    152 C                     0.023554
    153 C                    -0.021730
    154 C                     0.001996
    155 C                     0.003549
    156 C                    -0.023244
    157 C                     0.034319
    158 C                     0.046003
    159 C                     0.007518
    160 C                    -0.004390
    161 C                    -0.008998
    162 C                    -0.023239
    163 C                    -0.001439
    164 C                    -0.000409
    165 C                    -0.030869
    166 C                    -0.021969
    167 C                    -0.005293
    168 C                    -0.011184
    169 C                    -0.000162
    170 C                     0.007313
    171 C                    -0.023948
    172 C                    -0.016650
    173 C                    -0.006114
    174 C                    -0.017152
    175 C                     0.012945
    176 C                     0.028908
  ----------------------------------------
  Sum of atomic charges =     0.000000

                    Cartesian Multipole Moments
 -----------------------------------------------------------------
    Charge (ESU x 10^10)
                 0.0000
    Dipole Moment (Debye)
         X       4.6258      Y       3.3966      Z      -1.1878
       Tot       5.8606
    Quadrupole Moments (Debye-Ang)
        XX    -786.9380     XY      13.0236     YY    -806.6233
        XZ      -6.3986     YZ     -12.5355     ZZ    -793.2888

 Total job time:  858.05s(wall), 7294.25s(cpu)
        *  Thank you very much for using Q-Chem.  Have a nice day.  *
