 Q-Chem 4.4, Q-Chem, Inc., Pleasanton, CA (2016)
 Q-Chem 4.4.2 for Intel X86 Linux

User input:
--------------------------------------------------------------
$comment
SP
$end

$rem
MEM_STATIC 5000
MEM_TOTAL 20000
JOBTYPE SP
EXCHANGE B3LYP
BASIS 6-31g(d,p)
$end

$molecule
0 1
O         -13.711000     -2.627000      6.662000
C         -14.829000     -2.056000      7.358000
H         -14.362000     -1.488000      8.173000
H         -15.369000     -2.832000      7.915000
H         -15.465000     -1.432000      6.719000
O         -14.569000     -2.491000      4.556000
C         -13.650000     -2.760000      5.303000
C         -12.328000     -3.180000      4.830000
H         -11.597000     -2.795000      5.552000
H         -12.115000     -2.600000      3.924000
C         -12.010000     -4.662000      4.548000
H         -10.943000     -4.911000      4.594000
H         -12.422000     -5.333000      5.311000
C         -12.394000     -5.079000      3.176000
H         -13.481000     -5.040000      3.037000
H         -12.010000     -4.308000      2.495000
C         -11.877000     -6.460000      2.778000
C         -11.979000     -7.488000      3.908000
C         -13.297000     -8.006000      4.180000
H         -14.198000     -7.689000      3.664000
C         -13.436000     -9.009000      5.158000
H         -14.367000     -9.517000      5.391000
C         -12.268000     -9.398000      5.908000
H         -12.319000    -10.154000      6.686000
C         -11.021000     -8.848000      5.691000
H         -10.185000     -9.155000      6.312000
C         -10.873000     -7.870000      4.668000
H          -9.872000     -7.497000      4.474000
C          -8.036000     -9.075000     -0.113000
C          -9.980000    -10.505000     -0.390000
C         -10.482000     -9.555000     -4.771000
C          -8.995000     -4.354000     -1.486000
C         -13.067000     -7.177000     -4.190000
C          -9.206000     -9.648000      0.443000
C         -10.861000     -4.408000     -3.623000
C          -8.463000     -9.970000     -3.569000
C         -13.244000     -8.353000     -0.323000
C         -10.362000     -4.129000     -1.247000
C         -12.259000     -6.912000      1.345000
C         -13.540000     -7.042000     -0.687000
C         -12.500000     -4.739000     -1.773000
C         -11.608000     -5.259000     -4.415000
C         -11.399000     -9.281000      0.918000
C         -10.953000     -7.408000     -5.442000
C         -10.860000     -6.493000      1.693000
C         -10.210000     -5.412000      0.865000
C         -12.141000     -7.996000     -4.972000
C          -7.365000     -6.611000     -3.649000
C          -8.652000     -7.996000     -4.926000
C          -7.850000     -8.820000     -4.122000
C          -8.271000    -10.247000     -2.201000
C          -8.832000     -5.727000      0.488000
C         -12.435000     -8.358000      0.820000
C          -9.465000    -10.840000     -1.675000
C         -11.285000     -4.147000     -2.285000
C         -11.292000    -10.266000     -0.129000
C         -13.734000     -6.780000     -2.059000
C          -7.280000     -5.903000     -1.340000
C          -9.759000    -10.360000     -3.912000
C         -12.897000     -6.161000      0.186000
C          -6.990000     -8.212000     -1.934000
C         -13.208000     -5.586000     -2.646000
C         -13.234000     -9.364000     -1.292000
C          -9.378000     -5.704000     -4.803000
C          -9.506000     -4.681000     -3.786000
C         -13.350000     -9.019000     -2.633000
C          -8.222000     -5.089000     -0.624000
C         -10.985000     -4.694000     -0.104000
C          -7.540000     -5.591000     -2.658000
C          -9.761000     -7.531000      1.586000
C         -11.726000    -10.598000     -2.493000
C         -12.292000     -5.063000     -0.421000
C         -13.615000     -7.713000     -3.031000
C          -7.041000     -7.233000     -0.939000
C         -11.868000     -9.323000     -4.580000
C          -7.634000     -9.364000     -1.417000
C          -9.931000     -8.357000     -5.261000
C         -12.204000    -10.347000     -1.174000
C         -12.449000     -9.815000     -3.414000
C         -10.057000     -8.878000      1.213000
C          -8.578000     -7.043000      0.934000
C          -8.350000     -6.693000     -4.707000
C         -10.376000    -10.877000     -2.770000
C         -12.821000     -5.814000     -3.958000
C          -8.559000     -4.605000     -2.755000
C         -10.665000     -6.073000     -5.129000
C          -7.704000     -7.770000      0.154000
C          -7.161000     -7.928000     -3.329000
O          -3.322000     -5.086000    -13.481000
C          -2.896000     -5.102000    -14.860000
H          -3.490000     -5.711000    -15.552000
H          -1.834000     -5.354000    -14.973000
H          -2.890000     -4.094000    -15.292000
O          -1.875000     -3.518000    -12.822000
C          -2.676000     -4.403000    -12.512000
C          -3.196000     -4.668000    -11.132000
H          -2.355000     -4.367000    -10.495000
H          -3.244000     -5.763000    -11.082000
C          -4.517000     -3.973000    -10.824000
H          -4.506000     -3.052000    -11.419000
H          -5.352000     -4.555000    -11.235000
C          -4.570000     -3.572000     -9.352000
H          -3.738000     -2.914000     -9.073000
H          -5.436000     -2.913000     -9.210000
C          -4.677000     -4.780000     -8.428000
C          -5.961000     -5.521000     -8.658000
C          -6.012000     -6.656000     -9.541000
H          -5.058000     -6.993000     -9.935000
C          -7.205000     -7.311000     -9.806000
H          -7.180000     -8.225000    -10.393000
C          -8.403000     -6.864000     -9.184000
H          -9.365000     -7.366000     -9.231000
C          -8.326000     -5.761000     -8.326000
H          -9.224000     -5.366000     -7.859000
C          -7.142000     -5.066000     -8.070000
H          -7.168000     -4.119000     -7.539000
C          -4.298000     -6.708000     -3.322000
C          -3.707000     -8.607000     -4.626000
C           0.721000     -8.530000     -3.435000
C          -1.424000     -2.731000     -4.507000
C           1.774000     -6.924000     -6.456000
C          -4.521000     -7.473000     -4.480000
C           1.135000     -3.526000     -5.213000
C          -1.320000     -8.169000     -2.016000
C          -1.952000     -7.381000     -8.056000
C          -1.091000     -2.797000     -5.877000
C          -3.362000     -5.496000     -7.957000
C          -1.131000     -6.312000     -8.340000
C           0.080000     -3.904000     -7.391000
C           1.919000     -4.721000     -5.354000
C          -3.831000     -7.568000     -6.619000
C           2.051000     -6.706000     -3.983000
C          -4.151000     -4.697000     -6.990000
C          -3.361000     -3.576000     -6.335000
C           1.900000     -7.499000     -5.128000
C          -0.669000     -4.757000     -1.736000
C           0.575000     -6.549000     -1.989000
C          -0.676000     -6.982000     -1.541000
C          -2.646000     -8.250000     -2.463000
C          -3.631000     -3.632000     -4.987000
C          -3.280000     -6.998000     -7.788000
C          -2.763000     -8.983000     -3.630000
C           0.251000     -3.137000     -6.267000
C          -3.310000     -8.636000     -5.932000
C           0.239000     -6.307000     -7.991000
C          -2.622000     -3.673000     -2.783000
C          -0.598000     -8.934000     -3.023000
C          -1.888000     -5.141000     -8.226000
C          -2.812000     -5.865000     -1.753000
C           0.814000     -5.118000     -7.459000
C          -1.378000     -8.535000     -7.361000
C           1.309000     -4.547000     -3.165000
C           0.739000     -3.450000     -3.824000
C           0.040000     -8.559000     -7.063000
C          -2.741000     -3.110000     -4.077000
C          -2.062000     -3.241000     -6.763000
C          -1.242000     -3.683000     -2.482000
C          -4.705000     -5.394000     -5.803000
C          -1.143000     -9.506000     -5.359000
C          -1.313000     -3.950000     -7.695000
C           0.823000     -7.440000     -7.379000
C          -3.368000     -4.827000     -2.473000
C           1.054000     -8.595000     -4.812000
C          -3.391000     -7.044000     -2.306000
C           1.325000     -7.312000     -2.948000
C          -2.091000     -9.194000     -6.349000
C           0.138000     -9.045000     -5.770000
C          -4.581000     -6.809000     -5.696000
C          -4.468000     -4.669000     -4.663000
C           0.545000     -5.191000     -2.156000
C          -1.533000     -9.388000     -4.006000
C           1.704000     -5.540000     -6.457000
C          -0.556000     -3.006000     -3.464000
C           2.023000     -5.339000     -4.090000
C          -4.323000     -5.323000     -3.435000
C          -1.464000     -5.833000     -1.394000
$end

--------------------------------------------------------------

             Standard Nuclear Orientation (Angstroms)
    I     Atom           X                Y                Z
 ----------------------------------------------------------------
    1      O      11.5624151930    -3.6767518650    -4.3317806915
    2      C      12.8279164515    -3.5796549370    -5.0021982862
    3      H      12.9333554043    -4.5545967100    -5.4954620762
    4      H      13.6489900451    -3.6136038825    -4.2750733843
    5      H      12.8820608313    -2.7417695759    -5.7073291306
    6      O      10.9083204425    -1.5127794140    -4.6133464712
    7      C      10.6767458672    -2.6408704471    -4.2277108438
    8      C       9.3810348746    -3.0514386323    -3.6796416977
    9      H       9.2354319734    -4.1008644394    -3.9649052084
   10      H       8.6104990557    -2.5256364711    -4.2561932038
   11      C       9.0592112503    -2.8983232302    -2.1796559549
   12      H       8.2739502141    -3.5718140501    -1.8158136533
   13      H       9.9018235817    -3.1814904017    -1.5378033145
   14      C       8.5315023615    -1.5525704221    -1.8417185225
   15      H       9.2887640150    -0.7757368011    -2.0013910418
   16      H       7.7549614736    -1.3249009721    -2.5838835115
   17      C       7.9754397877    -1.4405697281    -0.4235844462
   18      C       8.8299119903    -2.1709309881     0.6159047000
   19      C      10.0615375039    -1.5239721300     0.9953448537
   20      H      10.4198197743    -0.5917002010     0.5698464811
   21      C      10.8483456840    -2.1148740532     2.0021128533
   22      H      11.7535594896    -1.6774232353     2.4124039062
   23      C      10.4329423984    -3.3886927700     2.5339690246
   24      H      11.0095766194    -3.8992172605     3.2996574206
   25      C       9.2887096689    -4.0375529580     2.1164646327
   26      H       9.0458293791    -5.0125868588     2.5276872697
   27      C       8.4685511504    -3.4148671105     1.1343651775
   28      H       7.5423944181    -3.9142722933     0.8667943070
   29      C       3.3608780507    -1.3266104622     2.5161808949
   30      C       4.8003386598     0.2156643409     3.7203846097
   31      C       2.3947636239     3.8664679194     2.6102013015
   32      C       2.9279180805    -0.0728377373    -2.3142694587
   33      C       4.6071659685     4.8022621918    -0.0173897903
   34      C       4.6580712848    -0.9882272265     2.9735117369
   35      C       3.0525996050     2.7547308056    -2.5166346050
   36      C       1.6001562857     1.7159072237     3.2713199534
   37      C       7.2366170081     1.9923519576     1.2309634075
   38      C       4.1261636588     0.5653944419    -2.6793752236
   39      C       7.4105430421    -0.0453329770    -0.0522044857
   40      C       7.1502806158     2.3453632851    -0.1131950765
   41      C       5.5052262847     2.3506084747    -2.3174123380
   42      C       3.1989886409     3.9093780039    -1.7717627384
   43      C       6.6370337928    -0.0364436445     2.3841235754
   44      C       2.1959729769     4.4946072967     0.4084714813
   45      C       6.5091687741    -1.2181969616    -0.3086815855
   46      C       5.4125422917    -1.0670390421    -1.3339652737
   47      C       3.4545966324     4.9126236326     0.8765706551
   48      C       0.4646910266     0.8071077466     0.0495677662
   49      C       0.7659062039     2.7209614350     1.2544563405
   50      C       0.6990653693     1.6690139439     2.1804880779
   51      C       2.3225159342     0.5524259329     3.6022653028
   52      C       4.1258657208    -1.5963813709    -0.8817506114
   53      C       7.3194953126     0.5997557193     1.3524619818
   54      C       3.6210694449     0.9308249386     4.0761154608
   55      C       4.1991142082     1.9483814702    -2.7876438558
   56      C       5.9685038517     0.8015017640     3.3478653511
   57      C       6.4280137812     3.5145140405    -0.4295510956
   58      C       1.7894937292    -1.1114865920    -0.5859348403
   59      C       2.4224380694     2.8186955787     3.5102247718
   60      C       7.1333332430     1.1890611886    -0.8970427965
   61      C       1.3516888291    -0.6251485796     1.7249565910
   62      C       5.5704658437     3.5441067329    -1.5743728317
   63      C       6.6940479998     2.8315449313     2.2120628032
   64      C       1.2508009085     2.8735500915    -1.0986400934
   65      C       1.9143758845     2.0687092952    -2.1031805575
   66      C       5.9246653202     3.9210404266     1.8224323910
   67      C       2.9137190454    -1.1599513971    -1.4783386732
   68      C       5.3627548347     0.1064065300    -2.1559486668
   69      C       1.1488672455     0.0518853748    -0.9577296429
   70      C       5.6577196954    -1.7230989398     0.8388385488
   71      C       4.8554325213     2.9459215097     3.5706032408
   72      C       6.2083732670     1.1938427904    -1.9384381005
   73      C       5.7933302284     4.2819029397     0.4857221232
   74      C       1.9445953901    -1.4565362484     0.7718965960
   75      C       3.5774008169     4.5533380489     2.2348618617
   76      C       2.2546163521    -0.5307954730     2.8135099335
   77      C       1.5779460501     3.8044658710     1.4665799494
   78      C       6.0328446605     2.1886559594     3.3032167400
   79      C       4.7906126530     4.0440613578     2.6908610861
   80      C       5.7481074897    -1.1312781940     2.1360402492
   81      C       4.2963801672    -1.9870844137     0.4649356757
   82      C       0.5778506933     2.2496116605    -0.0023008019
   83      C       3.6504400121     2.3525963600     3.9865699694
   84      C       4.4667145216     4.3501219575    -1.3394909965
   85      C       1.8143902437     0.6713060953    -2.0501412457
   86      C       2.0752314080     3.9556620736    -0.8791998743
   87      C       3.1792463069    -1.8541794512     1.2619006744
   88      C       0.5956599162     0.5458460477     1.3886325423
   89      O      -8.9186389867     5.8592096336    -1.2805007984
   90      C     -10.1090798580     6.6749982824    -1.2538097465
   91      H     -10.0361079704     7.6358667547    -0.7303712281
   92      H     -10.9893712330     6.1291069059    -0.8915850923
   93      H     -10.4522356167     6.9209748835    -2.2659676576
   94      O      -9.7423210026     4.3134689969    -2.6657617201
   95      C      -8.8644880598     4.6433014846    -1.8647961436
   96      C      -7.5809366173     3.9093133886    -1.6223457995
   97      H      -7.8594437314     2.8656698420    -1.8144211368
   98      H      -7.4372637068     3.9953823747    -0.5380122602
   99      C      -6.4077402031     4.4242209938    -2.4478216208
  100      H      -6.8504462458     4.8020689450    -3.3771381899
  101      H      -5.9737276592     5.3120556134    -1.9700635231
  102      C      -5.4762349257     3.2717247806    -2.8144882223
  103      H      -5.9954213314     2.4822663072    -3.3714709824
  104      H      -4.7584353107     3.6383635421    -3.5592974135
  105      C      -4.7339537688     2.7211248456    -1.6019094019
  106      C      -3.8264887963     3.7588035021    -1.0099910548
  107      C      -4.2594247176     4.5792951146     0.0899521263
  108      H      -5.2249631762     4.3271285603     0.5178171913
  109      C      -3.4505547338     5.5805995888     0.6053332467
  110      H      -3.7732982249     6.1035572191     1.5014035318
  111      C      -2.1603762368     5.7957644878     0.0476231856
  112      H      -1.4059991463     6.4706482528     0.4414557757
  113      C      -1.7610815039     4.9815348170    -1.0183485586
  114      H      -0.7976240923     5.1369986674    -1.4959454674
  115      C      -2.5712970345     3.9893360425    -1.5746842359
  116      H      -2.2849522883     3.5078791792    -2.5050884358
  117      C      -1.7134826289    -1.3349427640     0.4854646995
  118      C      -2.8565010161    -0.5155121295     2.4032604138
  119      C      -5.5679403948    -4.1888057002     2.8352382358
  120      C      -4.9634847596    -2.5314639457    -3.1869259677
  121      C      -8.3817037589    -2.6187332929     1.2757208853
  122      C      -2.2092915710    -0.2255476755     1.1921004121
  123      C      -7.3421616748    -3.4915511028    -2.1385601996
  124      C      -3.1184024687    -4.0680906234     2.2923249659
  125      C      -6.4459375579     0.9735657692     1.2867509762
  126      C      -6.0724525083    -1.6608872065    -3.1203551533
  127      C      -5.4153603031     1.6030158889    -0.7363231867
  128      C      -7.3357594519     0.5950139729     0.3057445877
  129      C      -7.8524545971    -1.1047760144    -1.9324078035
  130      C      -7.9587041201    -3.7615677475    -0.8698882858
  131      C      -4.0737571794     1.0279069051     1.3064053110
  132      C      -7.0705771668    -4.7413848251     1.1521104800
  133      C      -4.2527796292     1.2651856077    -1.5908920124
  134      C      -4.5365945790     0.1674834306    -2.6029517955
  135      C      -7.6124367655    -3.6841928065     1.8946791374
  136      C      -3.6849163471    -4.9866453841    -1.0211723069
  137      C      -4.6885990133    -5.4012988298     0.8876211930
  138      C      -3.4052574384    -4.9406815809     1.1943134690
  139      C      -2.3587924737    -2.8924416307     2.2182432440
  140      C      -3.4820407993    -0.7141885638    -2.5420352957
  141      C      -5.2708249242     1.5512621629     0.7695719212
  142      C      -2.9449646703    -1.8442972296     2.9042916900
  143      C      -7.3374808995    -2.1556478738    -2.6475136877
  144      C      -3.9779511028     0.2622831474     2.4416037330
  145      C      -8.1855240639    -0.5246128621     0.4576058883
  146      C      -2.8909684328    -3.0563228065    -2.3360774198
  147      C      -4.2560717260    -3.6605709646     3.1048484355
  148      C      -6.7554327461     0.8715399767    -0.9368495873
  149      C      -1.9504556250    -3.5526682756    -0.1518290746
  150      C      -8.3832390445    -1.3992877583    -0.6483880594
  151      C      -6.3805227764     0.1764430579     2.5133451591
  152      C      -6.1307918776    -5.1104118213    -1.0527912607
  153      C      -6.1729672866    -4.3389219220    -2.2213863874
  154      C      -7.2974788244    -0.9304589986     2.6979080032
  155      C      -3.6436664349    -2.0207107935    -2.9414859399
  156      C      -5.8381285348    -0.3298743218    -2.8065558924
  157      C      -3.7774185929    -4.1433112616    -2.1694544553
  158      C      -3.0334410309     0.7406924060    -0.9277070727
  159      C      -5.2487713146    -1.4485210252     3.5548346490
  160      C      -6.9539083852    -0.0025278813    -2.0448567173
  161      C      -8.1810855256    -1.2648860706     1.6622904430
  162      C      -2.0375185913    -2.7370159720    -1.2618341915
  163      C      -6.6813409706    -3.3128460990     2.9006365141
  164      C      -1.7634039601    -2.6599837476     0.9432585969
  165      C      -5.8182868255    -5.0487626640     1.7024056422
  166      C      -5.1490612202    -0.1163723333     3.1171295430
  167      C      -6.5343307620    -1.9590288666     3.2244989845
  168      C      -2.9662395755     0.7038512826     0.4946770864
  169      C      -2.5570141899    -0.3597988770    -1.5935376827
  170      C      -4.8625088909    -5.3706799970    -0.4694973875
  171      C      -4.1095757094    -2.2751296459     3.4299965089
  172      C      -8.4227490796    -2.6953858226    -0.1073180409
  173      C      -4.9703824339    -3.8588263441    -2.7932770309
  174      C      -7.2092544390    -4.7596727518    -0.2122047936
  175      C      -1.8594719622    -1.3519652411    -0.8965687118
  176      C      -2.7787033294    -4.6688709369    -0.0289211455
 ----------------------------------------------------------------

    9   -5804.2702077006      8.52E-06 Convergence criterion met
 Total energy in the final basis set = -5804.2702077006

                    Orbital Energies (a.u.)
 --------------------------------------------------------------

 Alpha MOs
 -- Occupied --
-19.191 -19.186 -19.133 -19.123 -10.317 -10.309 -10.248 -10.245
-10.244 -10.244 -10.243 -10.240 -10.237 -10.235 -10.231 -10.230
-10.230 -10.229 -10.227 -10.226 -10.224 -10.223 -10.223 -10.223
-10.222 -10.222 -10.222 -10.222 -10.222 -10.222 -10.221 -10.221
-10.221 -10.220 -10.220 -10.220 -10.220 -10.220 -10.219 -10.219
-10.219 -10.219 -10.219 -10.219 -10.218 -10.218 -10.218 -10.218
-10.218 -10.218 -10.217 -10.217 -10.216 -10.216 -10.216 -10.216
-10.216 -10.215 -10.215 -10.215 -10.215 -10.215 -10.215 -10.215
-10.215 -10.215 -10.215 -10.214 -10.214 -10.214 -10.214 -10.214
-10.214 -10.214 -10.214 -10.214 -10.214 -10.214 -10.214 -10.213
-10.213 -10.213 -10.213 -10.213 -10.213 -10.213 -10.213 -10.213
-10.213 -10.213 -10.213 -10.212 -10.212 -10.212 -10.212 -10.212
-10.212 -10.212 -10.212 -10.212 -10.211 -10.211 -10.211 -10.211
-10.211 -10.211 -10.211 -10.210 -10.210 -10.210 -10.210 -10.210
-10.210 -10.210 -10.210 -10.210 -10.209 -10.209 -10.209 -10.209
-10.209 -10.208 -10.208 -10.208 -10.208 -10.208 -10.208 -10.206
-10.206 -10.206 -10.206 -10.206 -10.206 -10.205 -10.205 -10.204
-10.203 -10.203 -10.202 -10.202 -10.200 -10.200 -10.199 -10.198
-10.197 -10.196 -10.196 -10.195  -1.093  -1.088  -1.012  -0.992
 -0.982  -0.982  -0.965  -0.964  -0.962  -0.961  -0.960  -0.959
 -0.936  -0.931  -0.926  -0.925  -0.923  -0.923  -0.922  -0.921
 -0.920  -0.920  -0.897  -0.897  -0.890  -0.887  -0.885  -0.883
 -0.875  -0.872  -0.854  -0.851  -0.843  -0.841  -0.838  -0.837
 -0.836  -0.834  -0.826  -0.820  -0.813  -0.807  -0.797  -0.796
 -0.795  -0.794  -0.792  -0.792  -0.791  -0.790  -0.784  -0.784
 -0.772  -0.770  -0.769  -0.767  -0.767  -0.765  -0.764  -0.761
 -0.755  -0.751  -0.750  -0.742  -0.738  -0.731  -0.715  -0.715
 -0.713  -0.713  -0.712  -0.712  -0.711  -0.709  -0.709  -0.707
 -0.706  -0.706  -0.706  -0.703  -0.703  -0.702  -0.676  -0.671
 -0.659  -0.658  -0.657  -0.654  -0.649  -0.647  -0.631  -0.631
 -0.629  -0.628  -0.624  -0.624  -0.622  -0.621  -0.618  -0.616
 -0.616  -0.614  -0.613  -0.612  -0.611  -0.611  -0.610  -0.609
 -0.607  -0.605  -0.602  -0.601  -0.569  -0.569  -0.565  -0.562
 -0.561  -0.560  -0.559  -0.558  -0.557  -0.554  -0.553  -0.552
 -0.539  -0.535  -0.533  -0.532  -0.527  -0.526  -0.525  -0.524
 -0.521  -0.521  -0.520  -0.518  -0.515  -0.515  -0.513  -0.512
 -0.508  -0.506  -0.505  -0.496  -0.493  -0.492  -0.488  -0.485
 -0.483  -0.481  -0.480  -0.480  -0.479  -0.476  -0.476  -0.475
 -0.474  -0.472  -0.471  -0.469  -0.467  -0.466  -0.466  -0.464
 -0.463  -0.463  -0.462  -0.462  -0.461  -0.460  -0.459  -0.458
 -0.456  -0.456  -0.454  -0.452  -0.449  -0.445  -0.444  -0.442
 -0.442  -0.442  -0.440  -0.440  -0.437  -0.435  -0.435  -0.433
 -0.432  -0.432  -0.430  -0.429  -0.426  -0.426  -0.425  -0.423
 -0.423  -0.423  -0.422  -0.421  -0.419  -0.419  -0.418  -0.418
 -0.417  -0.416  -0.415  -0.415  -0.414  -0.414  -0.413  -0.412
 -0.412  -0.411  -0.410  -0.408  -0.405  -0.402  -0.399  -0.394
 -0.394  -0.393  -0.391  -0.389  -0.387  -0.385  -0.384  -0.382
 -0.378  -0.376  -0.375  -0.373  -0.372  -0.370  -0.365  -0.365
 -0.363  -0.363  -0.362  -0.361  -0.361  -0.359  -0.358  -0.358
 -0.357  -0.355  -0.354  -0.354  -0.354  -0.352  -0.352  -0.350
 -0.349  -0.348  -0.348  -0.346  -0.345  -0.344  -0.344  -0.344
 -0.342  -0.341  -0.339  -0.338  -0.337  -0.336  -0.336  -0.335
 -0.334  -0.332  -0.329  -0.329  -0.328  -0.327  -0.325  -0.323
 -0.313  -0.302  -0.296  -0.288  -0.288  -0.285  -0.273  -0.269
 -0.268  -0.268  -0.268  -0.267  -0.266  -0.264  -0.264  -0.261
 -0.261  -0.261  -0.259  -0.258  -0.257  -0.256  -0.255  -0.253
 -0.252  -0.248  -0.245  -0.241  -0.225  -0.220  -0.212  -0.211
 -0.209  -0.206  -0.205  -0.203  -0.200  -0.198

          Ground-State Mulliken Net Atomic Charges

     Atom                 Charge (a.u.)
  ----------------------------------------
      1 O                    -0.469132
      2 C                    -0.086890
      3 H                     0.123987
      4 H                     0.123105
      5 H                     0.142550
      6 O                    -0.466862
      7 C                     0.590788
      8 C                    -0.257486
      9 H                     0.122810
     10 H                     0.134080
     11 C                    -0.188943
     12 H                     0.105297
     13 H                     0.123386
     14 C                    -0.167373
     15 H                     0.121667
     16 H                     0.108027
     17 C                     0.003303
     18 C                     0.066762
     19 C                    -0.101706
     20 H                     0.103699
     21 C                    -0.090510
     22 H                     0.099084
     23 C                    -0.082441
     24 H                     0.087767
     25 C                    -0.083965
     26 H                     0.096506
     27 C                    -0.108705
     28 H                     0.097632
     29 C                    -0.001880
     30 C                     0.020754
     31 C                    -0.003670
     32 C                     0.019090
     33 C                    -0.004640
     34 C                    -0.015326
     35 C                     0.003646
     36 C                    -0.002586
     37 C                     0.030049
     38 C                     0.012633
     39 C                    -0.081085
     40 C                     0.012277
     41 C                    -0.015779
     42 C                     0.003582
     43 C                    -0.028271
     44 C                    -0.017795
     45 C                    -0.068704
     46 C                     0.000174
     47 C                    -0.011723
     48 C                    -0.008591
     49 C                     0.031203
     50 C                    -0.015149
     51 C                    -0.011800
     52 C                     0.001245
     53 C                     0.031887
     54 C                    -0.023538
     55 C                    -0.021222
     56 C                     0.015181
     57 C                    -0.003488
     58 C                    -0.023642
     59 C                     0.018102
     60 C                     0.022263
     61 C                    -0.016340
     62 C                    -0.012535
     63 C                    -0.018551
     64 C                    -0.010770
     65 C                    -0.013725
     66 C                    -0.005839
     67 C                    -0.023218
     68 C                    -0.020082
     69 C                     0.020370
     70 C                     0.009201
     71 C                     0.011357
     72 C                     0.025200
     73 C                     0.025870
     74 C                     0.009341
     75 C                    -0.011955
     76 C                     0.020910
     77 C                     0.012972
     78 C                    -0.024219
     79 C                     0.004596
     80 C                     0.015487
     81 C                     0.007866
     82 C                    -0.016065
     83 C                    -0.015796
     84 C                    -0.004770
     85 C                     0.003343
     86 C                     0.001127
     87 C                     0.006401
     88 C                     0.013884
     89 O                    -0.455981
     90 C                    -0.086800
     91 H                     0.125222
     92 H                     0.125419
     93 H                     0.127209
     94 O                    -0.480777
     95 C                     0.554787
     96 C                    -0.232717
     97 H                     0.139980
     98 H                     0.117883
     99 C                    -0.190097
    100 H                     0.117469
    101 H                     0.131498
    102 C                    -0.194041
    103 H                     0.115380
    104 H                     0.107534
    105 C                     0.014525
    106 C                     0.080122
    107 C                    -0.095763
    108 H                     0.092392
    109 C                    -0.101346
    110 H                     0.095058
    111 C                    -0.084014
    112 H                     0.096670
    113 C                    -0.093299
    114 H                     0.089569
    115 C                    -0.096583
    116 H                     0.094379
    117 C                     0.029329
    118 C                    -0.026697
    119 C                    -0.012837
    120 C                    -0.001206
    121 C                    -0.016364
    122 C                    -0.029935
    123 C                     0.000416
    124 C                    -0.013909
    125 C                    -0.007060
    126 C                    -0.012787
    127 C                    -0.067649
    128 C                     0.031541
    129 C                    -0.006430
    130 C                    -0.012781
    131 C                     0.041561
    132 C                     0.032493
    133 C                    -0.116945
    134 C                     0.030826
    135 C                    -0.027764
    136 C                    -0.001615
    137 C                    -0.000355
    138 C                     0.011629
    139 C                    -0.016423
    140 C                     0.037133
    141 C                    -0.012477
    142 C                     0.034324
    143 C                    -0.011995
    144 C                     0.031449
    145 C                    -0.010801
    146 C                    -0.024857
    147 C                    -0.030175
    148 C                     0.009848
    149 C                     0.020477
    150 C                     0.006812
    151 C                    -0.009410
    152 C                     0.016511
    153 C                    -0.016045
    154 C                    -0.019547
    155 C                    -0.025375
    156 C                     0.023376
    157 C                     0.001068
    158 C                     0.022900
    159 C                    -0.011947
    160 C                    -0.017182
    161 C                    -0.005201
    162 C                    -0.006932
    163 C                     0.010810
    164 C                    -0.018659
    165 C                    -0.025075
    166 C                    -0.030985
    167 C                     0.038776
    168 C                     0.019177
    169 C                     0.017137
    170 C                     0.020369
    171 C                     0.022615
    172 C                     0.037758
    173 C                     0.001551
    174 C                    -0.008456
    175 C                    -0.002128
    176 C                    -0.009253
  ----------------------------------------
  Sum of atomic charges =     0.000000

                    Cartesian Multipole Moments
 -----------------------------------------------------------------
    Charge (ESU x 10^10)
                 0.0000
    Dipole Moment (Debye)
         X       5.4247      Y      -0.7889      Z       1.1502
       Tot       5.6011
    Quadrupole Moments (Debye-Ang)
        XX    -778.7605     XY     -50.9973     YY    -779.5583
        XZ     -12.3753     YZ       9.4294     ZZ    -814.1579

 Total job time:  860.83s(wall), 7249.61s(cpu)
        *  Thank you very much for using Q-Chem.  Have a nice day.  *
