 Q-Chem 4.4, Q-Chem, Inc., Pleasanton, CA (2016)
 Q-Chem 4.4.2 for Intel X86 Linux

User input:
--------------------------------------------------------------
$comment
SP
$end

$rem
MEM_STATIC 5000
MEM_TOTAL 20000
JOBTYPE SP
EXCHANGE B3LYP
BASIS 6-31g(d,p)
$end

$molecule
0 1
O           3.340000    -10.970000     -5.755000
C           4.625000    -10.728000     -5.269000
H           5.052000    -11.456000     -4.569000
H           4.654000     -9.732000     -4.810000
H           5.366000    -10.834000     -6.071000
O           3.421000    -13.107000     -6.553000
C           2.867000    -12.088000     -6.338000
C           1.408000    -11.927000     -6.635000
H           1.413000    -10.953000     -7.140000
H           1.017000    -11.830000     -5.615000
C           0.784000    -12.975000     -7.583000
H           1.328000    -12.903000     -8.533000
H           0.979000    -13.947000     -7.112000
C          -0.674000    -12.683000     -7.603000
H          -1.106000    -12.902000     -6.619000
H          -0.825000    -11.607000     -7.759000
C          -1.403000    -13.470000     -8.700000
C          -1.562000    -14.894000     -8.293000
C          -2.674000    -15.342000     -7.563000
H          -3.450000    -14.596000     -7.420000
C          -2.740000    -16.700000     -7.088000
H          -3.546000    -17.037000     -6.443000
C          -1.673000    -17.576000     -7.441000
H          -1.623000    -18.598000     -7.076000
C          -0.615000    -17.155000     -8.304000
H           0.165000    -17.817000     -8.669000
C          -0.626000    -15.823000     -8.706000
H           0.286000    -15.529000     -9.216000
C          -1.217000    -14.513000    -14.084000
C          -3.523000    -15.050000    -13.499000
C          -5.309000    -11.320000    -15.569000
C           0.134000     -9.856000    -12.602000
C          -5.539000     -9.415000    -12.630000
C          -2.165000    -15.081000    -13.174000
C          -2.148000     -8.208000    -12.753000
C          -3.553000    -12.863000    -16.304000
C          -4.697000    -12.730000    -10.428000
C          -0.589000     -9.527000    -11.435000
C          -2.470000    -12.835000     -9.526000
C          -4.251000    -11.436000     -9.987000
C          -2.695000     -9.289000    -10.623000
C          -3.534000     -8.171000    -13.147000
C          -3.321000    -14.451000    -11.257000
C          -4.682000     -9.311000    -14.843000
C          -1.119000    -13.045000    -10.132000
C          -0.265000    -11.876000    -10.571000
C          -5.682000     -9.737000    -13.993000
C          -0.924000    -10.484000    -15.864000
C          -3.151000    -10.404000    -16.378000
C          -2.699000    -11.750000    -16.500000
C          -2.975000    -14.012000    -15.692000
C           0.455000    -12.124000    -11.752000
C          -3.658000    -13.595000    -10.207000
C          -3.953000    -14.467000    -14.752000
C          -1.767000     -8.725000    -11.490000
C          -4.275000    -14.639000    -12.329000
C          -4.886000    -10.318000    -10.669000
C           0.464000    -11.518000    -14.113000
C          -4.853000    -12.685000    -15.761000
C          -2.899000    -11.410000     -9.538000
C          -0.801000    -12.950000    -15.636000
C          -4.081000     -9.237000    -10.953000
C          -5.650000    -12.869000    -11.443000
C          -2.311000     -8.694000    -14.952000
C          -1.379000     -8.483000    -13.922000
C          -6.163000    -11.714000    -12.102000
C           0.641000    -11.126000    -12.746000
C          -0.791000    -10.582000    -10.482000
C          -0.090000    -10.340000    -14.743000
C          -0.972000    -13.922000    -11.341000
C          -5.846000    -13.354000    -13.662000
C          -2.056000    -10.363000     -9.967000
C          -5.871000    -10.424000    -11.650000
C           0.119000    -12.752000    -14.574000
C          -6.015000    -11.027000    -14.378000
C          -1.609000    -14.053000    -15.353000
C          -4.449000    -10.249000    -15.825000
C          -5.432000    -13.911000    -12.402000
C          -6.247000    -11.998000    -13.434000
C          -2.039000    -14.667000    -11.791000
C          -0.021000    -13.354000    -12.239000
C          -2.068000     -9.631000    -15.914000
C          -5.121000    -13.687000    -14.852000
C          -4.446000     -8.710000    -12.208000
C          -0.278000     -9.329000    -13.818000
C          -3.665000     -8.516000    -14.473000
C          -0.130000    -13.726000    -13.606000
C          -1.323000    -11.767000    -16.211000
O          -3.322000     -5.086000    -13.481000
C          -2.896000     -5.102000    -14.860000
H          -3.490000     -5.711000    -15.552000
H          -1.834000     -5.354000    -14.973000
H          -2.890000     -4.094000    -15.292000
O          -1.875000     -3.518000    -12.822000
C          -2.676000     -4.403000    -12.512000
C          -3.196000     -4.668000    -11.132000
H          -2.355000     -4.367000    -10.495000
H          -3.244000     -5.763000    -11.082000
C          -4.517000     -3.973000    -10.824000
H          -4.506000     -3.052000    -11.419000
H          -5.352000     -4.555000    -11.235000
C          -4.570000     -3.572000     -9.352000
H          -3.738000     -2.914000     -9.073000
H          -5.436000     -2.913000     -9.210000
C          -4.677000     -4.780000     -8.428000
C          -5.961000     -5.521000     -8.658000
C          -6.012000     -6.656000     -9.541000
H          -5.058000     -6.993000     -9.935000
C          -7.205000     -7.311000     -9.806000
H          -7.180000     -8.225000    -10.393000
C          -8.403000     -6.864000     -9.184000
H          -9.365000     -7.366000     -9.231000
C          -8.326000     -5.761000     -8.326000
H          -9.224000     -5.366000     -7.859000
C          -7.142000     -5.066000     -8.070000
H          -7.168000     -4.119000     -7.539000
C          -4.298000     -6.708000     -3.322000
C          -3.707000     -8.607000     -4.626000
C           0.721000     -8.530000     -3.435000
C          -1.424000     -2.731000     -4.507000
C           1.774000     -6.924000     -6.456000
C          -4.521000     -7.473000     -4.480000
C           1.135000     -3.526000     -5.213000
C          -1.320000     -8.169000     -2.016000
C          -1.952000     -7.381000     -8.056000
C          -1.091000     -2.797000     -5.877000
C          -3.362000     -5.496000     -7.957000
C          -1.131000     -6.312000     -8.340000
C           0.080000     -3.904000     -7.391000
C           1.919000     -4.721000     -5.354000
C          -3.831000     -7.568000     -6.619000
C           2.051000     -6.706000     -3.983000
C          -4.151000     -4.697000     -6.990000
C          -3.361000     -3.576000     -6.335000
C           1.900000     -7.499000     -5.128000
C          -0.669000     -4.757000     -1.736000
C           0.575000     -6.549000     -1.989000
C          -0.676000     -6.982000     -1.541000
C          -2.646000     -8.250000     -2.463000
C          -3.631000     -3.632000     -4.987000
C          -3.280000     -6.998000     -7.788000
C          -2.763000     -8.983000     -3.630000
C           0.251000     -3.137000     -6.267000
C          -3.310000     -8.636000     -5.932000
C           0.239000     -6.307000     -7.991000
C          -2.622000     -3.673000     -2.783000
C          -0.598000     -8.934000     -3.023000
C          -1.888000     -5.141000     -8.226000
C          -2.812000     -5.865000     -1.753000
C           0.814000     -5.118000     -7.459000
C          -1.378000     -8.535000     -7.361000
C           1.309000     -4.547000     -3.165000
C           0.739000     -3.450000     -3.824000
C           0.040000     -8.559000     -7.063000
C          -2.741000     -3.110000     -4.077000
C          -2.062000     -3.241000     -6.763000
C          -1.242000     -3.683000     -2.482000
C          -4.705000     -5.394000     -5.803000
C          -1.143000     -9.506000     -5.359000
C          -1.313000     -3.950000     -7.695000
C           0.823000     -7.440000     -7.379000
C          -3.368000     -4.827000     -2.473000
C           1.054000     -8.595000     -4.812000
C          -3.391000     -7.044000     -2.306000
C           1.325000     -7.312000     -2.948000
C          -2.091000     -9.194000     -6.349000
C           0.138000     -9.045000     -5.770000
C          -4.581000     -6.809000     -5.696000
C          -4.468000     -4.669000     -4.663000
C           0.545000     -5.191000     -2.156000
C          -1.533000     -9.388000     -4.006000
C           1.704000     -5.540000     -6.457000
C          -0.556000     -3.006000     -3.464000
C           2.023000     -5.339000     -4.090000
C          -4.323000     -5.323000     -3.435000
C          -1.464000     -5.833000     -1.394000
$end

--------------------------------------------------------------

             Standard Nuclear Orientation (Angstroms)
    I     Atom           X                Y                Z
 ----------------------------------------------------------------
    1      O       2.1610867311     5.7119980336     2.5994838906
    2      C       2.8740360868     6.4163543107     3.5698294224
    3      H       3.0571725328     7.4832744301     3.3953143770
    4      H       3.8330523583     5.9138123434     3.7466834921
    5      H       2.2825660406     6.5109173740     4.4889279000
    6      O       0.2719001552     6.9485109449     2.2646049550
    7      C       0.9677081886     6.0190301549     2.0562335517
    8      C       0.6187249604     5.0173719495     0.9990190295
    9      H       0.7980738866     4.0816528641     1.5430684354
   10      H       1.4276817769     5.2080266157     0.2835264249
   11      C      -0.8437175657     5.0304062935     0.5015494689
   12      H      -1.4749298586     4.8270082765     1.3755175964
   13      H      -1.0200805757     6.0520425930     0.1412643593
   14      C      -0.8954730340     4.0593770086    -0.6235511930
   15      H      -0.3085613963     4.4428115057    -1.4669690704
   16      H      -0.4016598627     3.1273546759    -0.3195842158
   17      C      -2.3359505858     3.7608222171    -1.0595654810
   18      C      -2.8822280360     4.9007534396    -1.8475018715
   19      C      -2.7300199134     4.9864170370    -3.2402123352
   20      H      -2.2852074387     4.1090638099    -3.7001407831
   21      C      -3.1699178642     6.1568859477    -3.9548012534
   22      H      -2.9751491027     6.2804367535    -5.0159470153
   23      C      -3.8164000704     7.1833069973    -3.2071418483
   24      H      -4.1271895707     8.1188074291    -3.6637136703
   25      C      -4.0976855698     7.0292849975    -1.8148309306
   26      H      -4.6677874085     7.7469044508    -1.2318427542
   27      C      -3.6264920972     5.8712648483    -1.2041632261
   28      H      -3.7247044429     5.8946880203    -0.1233830957
   29      C      -7.1909176435     2.1761673034     0.9474384235
   30      C      -7.3777787049     1.6473350247    -1.4260925674
   31      C      -7.0578383040    -2.9254138125    -0.8135550484
   32      C      -3.0581204491     0.1500601535     3.0744201271
   33      C      -3.6328827922    -3.0992551973    -1.5612882329
   34      C      -6.9439284118     2.5150893270    -0.4213406607
   35      C      -2.5266154939    -2.2914672346     1.7695540437
   36      C      -8.3039149013    -1.2322014289     0.4453869431
   37      C      -3.7374060737     0.7459086743    -2.8844596821
   38      C      -2.0426812292     0.0677325216     2.0971973522
   39      C      -2.7659509649     2.3756366804    -1.4064814691
   40      C      -2.5558002163     0.2324561211    -2.2457053684
   41      C      -1.5608819629    -0.8199315756     0.0646752940
   42      C      -3.0155469612    -3.2092508062     0.7714456648
   43      C      -5.2181626441     2.3308856389    -1.9692187297
   44      C      -5.2000153988    -3.7374757733     0.1058661960
   45      C      -3.1764383025     2.9482593405    -0.0873376427
   46      C      -2.7071446564     2.3367284163     1.2143502624
   47      C      -4.9236635114    -3.5558964717    -1.2337735286
   48      C      -6.1653460058    -1.4145208791     3.3016370542
   49      C      -6.8444848926    -2.8502050594     1.6561260981
   50      C      -7.6755047981    -1.6928204581     1.6283627890
   51      C      -8.4187789006     0.1790826970     0.2907506679
   52      C      -3.6859952990     2.3521718505     2.2224563679
   53      C      -3.9269651254     2.0100545934    -2.3919259662
   54      C      -8.0852412210     0.4338771198    -1.0770729385
   55      C      -1.7790768541    -1.1467315124     1.3975525542
   56      C      -6.3154317789     1.4917372406    -2.4010455603
   57      C      -2.5229453921    -1.2172641997    -2.1211880925
   58      C      -5.1939259678     0.8454426585     3.4046366587
   59      C      -7.9549831631    -1.7838572860    -0.8157456659
   60      C      -1.9907960738     1.1118044657    -1.2773573897
   61      C      -7.4316423334     0.5481744697     2.4694173843
   62      C      -1.9902395557    -1.7196370437    -0.9545313231
   63      C      -4.7603081897    -0.1025845416    -3.3220502710
   64      C      -4.5794850657    -3.0177942466     2.3666650826
   65      C      -3.5049653649    -2.2257380203     2.8049564777
   66      C      -4.6697566744    -1.5061342397    -3.0911310898
   67      C      -3.8535271074     1.2703837687     3.1281625230
   68      C      -1.9437543891     1.1642346266     1.1752783676
   69      C      -5.0726441640    -0.5827875971     3.5968580436
   70      C      -4.6332589879     3.1146871828     0.2326533948
   71      C      -6.8331549262    -0.8556626146    -2.7443117287
   72      C      -1.5876158176     0.5880134056    -0.0307669973
   73      C      -3.5039282062    -2.0908305610    -2.5884958398
   74      C      -6.3412326518     1.3580343913     2.8800043223
   75      C      -6.0423374794    -2.9619072990    -1.7985384496
   76      C      -7.9786354161     1.0645765256     1.2931140714
   77      C      -6.5010081757    -3.3795487804     0.3847264874
   78      C      -6.1070076733     0.3338073893    -3.1008454257
   79      C      -5.9049586665    -1.9460841788    -2.7134326787
   80      C      -5.5851203791     2.9050477768    -0.7399848788
   81      C      -4.8703176255     2.7827450745     1.5990525455
   82      C      -5.8626151318    -2.6463928774     2.6461293139
   83      C      -7.8688905285    -0.7798168684    -1.7573400043
   84      C      -2.7232092050    -2.8598084329    -0.5688582799
   85      C      -3.7669634118    -0.9965909428     3.4043624213
   86      C      -4.2889722541    -3.6262049252     1.0860871848
   87      C      -6.1890763937     2.3781825042     1.9398727885
   88      C      -7.2592558179    -0.8423274841     2.6678744473
   89      O      -1.4174713963    -5.4986839941     2.1419839413
   90      C      -2.4575053216    -5.8930420199     3.0618666413
   91      H      -3.4522730552    -6.0683299300     2.6349096121
   92      H      -2.5441405792    -5.2149293420     3.9202223533
   93      H      -2.2000307424    -6.8199294715     3.5884694262
   94      O       0.2431487490    -5.5984914861     3.6316460498
   95      C      -0.1520035973    -5.2250406643     2.5247065271
   96      C       0.7084521115    -4.6738652705     1.4288750353
   97      H       1.5122329623    -4.1722286614     1.9820007502
   98      H       0.0908691232    -3.8783094333     0.9935462372
   99      C       1.1753540783    -5.7193779686     0.4229745673
  100      H       1.2528409026    -6.6541963878     0.9908630380
  101      H       0.3844749506    -5.9108402044    -0.3137223973
  102      C       2.5711998828    -5.3716075389    -0.0879698703
  103      H       3.3022828482    -5.2968631225     0.7262536677
  104      H       2.9506335375    -6.2322977757    -0.6533400304
  105      C       2.5699478361    -4.1279856815    -0.9699517909
  106      C       1.7634710247    -4.3523571594    -2.2148974092
  107      C       0.3830876214    -3.9520270271    -2.2841248972
  108      H       0.0080131721    -3.3948494326    -1.4310168820
  109      C      -0.3869602842    -4.2081337650    -3.4083733404
  110      H      -1.3908593084    -3.7955741960    -3.4590818334
  111      C       0.1989044659    -4.8675007172    -4.5236736214
  112      H      -0.2745368386    -5.0175409351    -5.4895919742
  113      C       1.5442258968    -5.2424909002    -4.4331495359
  114      H       2.0195750792    -5.7800526376    -5.2489856306
  115      C       2.3296110551    -5.0242227706    -3.2991538671
  116      H       3.3086310589    -5.4867106278    -3.2150657338
  117      C       5.5216013265    -0.2149704236    -3.4006130721
  118      C       3.4463968133     0.8809749728    -3.0154794378
  119      C       5.0707259918     3.6402267719     0.2677625924
  120      C       7.3578887299    -2.1717366453     0.8748687166
  121      C       3.7840497313     1.6425509020     2.9451197444
  122      C       4.1185453364    -0.2971546281    -3.3761662914
  123      C       6.6942646077    -0.5975319826     3.0567084688
  124      C       6.1154373995     2.9714588738    -1.9164742475
  125      C       1.7110550804    -0.6645066439     0.2933083527
  126      C       6.2819345702    -2.5733912600     1.6953205535
  127      C       2.7064137240    -2.7172319619    -0.2955090550
  128      C       2.2389317842    -1.1499164844     1.4693957102
  129      C       4.5940897202    -1.8514144042     2.9277227533
  130      C       5.9855418613     0.6118767384     3.3691258410
  131      C       2.4678409711    -0.8427173232    -1.9485870662
  132      C       5.9110465222     2.7468385734     2.2405522246
  133      C       3.8331590608    -3.2664476881    -1.0859633751
  134      C       5.1308309437    -3.3801261281    -0.3030898882
  135      C       4.5119912716     2.7279416463     2.3109959031
  136      C       8.4568098438     0.9477094080    -0.3144885494
  137      C       7.3709318498     2.7775971816     0.2288241768
  138      C       7.2888441571     2.6531043458    -1.1607646633
  139      C       5.5230872764     2.1464388862    -2.8824501021
  140      C       6.1259630812    -2.8672040798    -1.1029417504
  141      C       1.9600021421    -1.5044927528    -0.8087559364
  142      C       4.1471285234     2.0913427582    -2.7537297588
  143      C       5.9639513354    -1.8128184804     2.8739128110
  144      C       2.4522700456     0.5142646200    -2.1544791550
  145      C       2.7148835827    -0.2913401844     2.4867661552
  146      C       7.9912902649    -1.3199920562    -1.1667183254
  147      C       4.9675976114     3.4433507477    -1.1546738273
  148      C       2.9159036807    -2.3402046642     1.1826744163
  149      C       7.4776811645     0.6457279531    -2.4986396958
  150      C       3.9246959602    -0.6207799186     3.1614464297
  151      C       1.6583549795     0.7859777868     0.0995698291
  152      C       7.7342296197     1.1636702061     2.0157182555
  153      C       7.7821537437    -0.2269269784     2.1786070177
  154      C       2.0836019106     1.6672322329     1.1685224234
  155      C       7.2841437550    -2.3776368074    -0.5447075588
  156      C       5.1774451804    -3.1505217426     1.0854053185
  157      C       8.4217704166    -0.4671038417    -0.1263484236
  158      C       4.2793970423    -2.5055538064    -2.2791130575
  159      C       2.7003546180     2.5212636905    -0.8538920661
  160      C       4.1261121175    -2.6715543191     1.8584480069
  161      C       2.6103827441     1.1113734959     2.3426727621
  162      C       7.4442866548    -0.7223447873    -2.3190797239
  163      C       3.9898240954     3.2346715142     1.0914245518
  164      C       6.2566082914     0.9563115303    -3.1646801452
  165      C       6.2662993150     3.2841745491     0.9953203175
  166      C       1.9657916546     1.3581749933    -1.1433569779
  167      C       2.8326687928     2.6575472366     0.5554775640
  168      C       3.5415984457    -1.3626957630    -2.7016988162
  169      C       5.6464589210    -2.3951973525    -2.2980147229
  170      C       8.0408769915     1.6973728809     0.7360144443
  171      C       3.7855475894     2.8480460959    -1.6978129596
  172      C       4.5951072289     0.5980607717     3.3593456528
  173      C       8.1448964134    -1.0526918274     1.0876023569
  174      C       6.6341229111     1.6882776861     2.7279241397
  175      C       6.2510479359    -1.2878193190    -2.9020933717
  176      C       7.9744250912     1.4778640644    -1.4947452972
 ----------------------------------------------------------------

    9   -5804.2782155758      7.62E-06 Convergence criterion met
 Total energy in the final basis set = -5804.2782155758

                    Orbital Energies (a.u.)
 --------------------------------------------------------------

 Alpha MOs
 -- Occupied --
-19.191 -19.188 -19.132 -19.124 -10.310 -10.309 -10.247 -10.243
-10.243 -10.240 -10.240 -10.238 -10.238 -10.233 -10.233 -10.230
-10.230 -10.228 -10.227 -10.227 -10.227 -10.227 -10.227 -10.227
-10.227 -10.226 -10.226 -10.226 -10.225 -10.225 -10.225 -10.225
-10.224 -10.224 -10.224 -10.223 -10.223 -10.223 -10.223 -10.223
-10.223 -10.222 -10.222 -10.222 -10.222 -10.222 -10.222 -10.222
-10.222 -10.221 -10.221 -10.221 -10.221 -10.220 -10.220 -10.220
-10.220 -10.220 -10.220 -10.219 -10.219 -10.219 -10.219 -10.219
-10.219 -10.219 -10.219 -10.218 -10.218 -10.218 -10.218 -10.218
-10.218 -10.218 -10.218 -10.218 -10.218 -10.218 -10.217 -10.217
-10.217 -10.217 -10.217 -10.217 -10.217 -10.217 -10.217 -10.217
-10.217 -10.217 -10.217 -10.217 -10.217 -10.217 -10.217 -10.216
-10.216 -10.216 -10.216 -10.216 -10.216 -10.216 -10.216 -10.216
-10.216 -10.215 -10.215 -10.215 -10.215 -10.214 -10.214 -10.214
-10.214 -10.214 -10.214 -10.214 -10.214 -10.213 -10.213 -10.213
-10.212 -10.212 -10.212 -10.212 -10.211 -10.211 -10.211 -10.209
-10.209 -10.209 -10.208 -10.207 -10.204 -10.204 -10.203 -10.202
-10.202 -10.201 -10.199 -10.199 -10.198 -10.197 -10.197 -10.197
-10.196 -10.191 -10.190 -10.189  -1.106  -1.090  -1.032  -0.993
 -0.985  -0.984  -0.968  -0.967  -0.965  -0.963  -0.963  -0.959
 -0.936  -0.934  -0.929  -0.927  -0.926  -0.926  -0.925  -0.924
 -0.924  -0.920  -0.900  -0.896  -0.891  -0.889  -0.888  -0.886
 -0.877  -0.874  -0.853  -0.851  -0.846  -0.845  -0.841  -0.841
 -0.838  -0.838  -0.825  -0.822  -0.811  -0.810  -0.800  -0.800
 -0.798  -0.797  -0.796  -0.795  -0.794  -0.792  -0.788  -0.787
 -0.775  -0.773  -0.772  -0.769  -0.769  -0.767  -0.766  -0.764
 -0.752  -0.752  -0.746  -0.743  -0.735  -0.734  -0.719  -0.718
 -0.717  -0.716  -0.716  -0.715  -0.714  -0.712  -0.711  -0.711
 -0.710  -0.709  -0.707  -0.706  -0.705  -0.704  -0.675  -0.674
 -0.663  -0.662  -0.658  -0.658  -0.649  -0.648  -0.634  -0.632
 -0.632  -0.627  -0.627  -0.627  -0.624  -0.623  -0.621  -0.618
 -0.617  -0.616  -0.616  -0.615  -0.613  -0.613  -0.611  -0.610
 -0.606  -0.606  -0.605  -0.603  -0.570  -0.570  -0.566  -0.564
 -0.564  -0.564  -0.562  -0.562  -0.560  -0.558  -0.556  -0.551
 -0.538  -0.538  -0.535  -0.534  -0.531  -0.530  -0.527  -0.527
 -0.527  -0.525  -0.524  -0.522  -0.519  -0.518  -0.516  -0.515
 -0.508  -0.507  -0.502  -0.498  -0.497  -0.494  -0.489  -0.487
 -0.486  -0.486  -0.484  -0.482  -0.480  -0.479  -0.478  -0.477
 -0.474  -0.473  -0.472  -0.470  -0.470  -0.469  -0.468  -0.467
 -0.466  -0.465  -0.465  -0.465  -0.463  -0.460  -0.459  -0.458
 -0.456  -0.456  -0.455  -0.452  -0.452  -0.448  -0.446  -0.445
 -0.445  -0.443  -0.442  -0.441  -0.440  -0.438  -0.436  -0.435
 -0.434  -0.432  -0.432  -0.430  -0.429  -0.428  -0.426  -0.426
 -0.425  -0.425  -0.424  -0.423  -0.422  -0.421  -0.420  -0.420
 -0.419  -0.418  -0.418  -0.417  -0.417  -0.416  -0.415  -0.414
 -0.413  -0.412  -0.411  -0.410  -0.404  -0.403  -0.400  -0.398
 -0.397  -0.396  -0.392  -0.391  -0.390  -0.390  -0.389  -0.384
 -0.380  -0.377  -0.375  -0.374  -0.373  -0.370  -0.368  -0.367
 -0.366  -0.364  -0.364  -0.363  -0.362  -0.362  -0.361  -0.359
 -0.359  -0.358  -0.357  -0.357  -0.355  -0.353  -0.352  -0.351
 -0.350  -0.350  -0.349  -0.348  -0.348  -0.346  -0.346  -0.345
 -0.344  -0.342  -0.342  -0.340  -0.339  -0.339  -0.338  -0.337
 -0.335  -0.333  -0.332  -0.330  -0.330  -0.329  -0.326  -0.321
 -0.311  -0.305  -0.299  -0.290  -0.290  -0.288  -0.274  -0.273
 -0.272  -0.271  -0.270  -0.269  -0.268  -0.266  -0.266  -0.265
 -0.264  -0.263  -0.261  -0.259  -0.258  -0.257  -0.255  -0.253
 -0.251  -0.249  -0.247  -0.244  -0.224  -0.223  -0.216  -0.214
 -0.212  -0.211  -0.209  -0.209  -0.203  -0.201

          Ground-State Mulliken Net Atomic Charges

     Atom                 Charge (a.u.)
  ----------------------------------------
      1 O                    -0.455275
      2 C                    -0.087457
      3 H                     0.120338
      4 H                     0.126815
      5 H                     0.118837
      6 O                    -0.448630
      7 C                     0.574361
      8 C                    -0.270502
      9 H                     0.129555
     10 H                     0.132825
     11 C                    -0.167604
     12 H                     0.111254
     13 H                     0.128846
     14 C                    -0.183340
     15 H                     0.114118
     16 H                     0.108710
     17 C                     0.008976
     18 C                     0.112814
     19 C                    -0.119639
     20 H                     0.089987
     21 C                    -0.092222
     22 H                     0.098004
     23 C                    -0.095176
     24 H                     0.088490
     25 C                    -0.085083
     26 H                     0.098257
     27 C                    -0.113074
     28 H                     0.090409
     29 C                     0.004813
     30 C                    -0.010587
     31 C                    -0.017865
     32 C                     0.010766
     33 C                    -0.019232
     34 C                    -0.028030
     35 C                    -0.022439
     36 C                    -0.004325
     37 C                     0.029521
     38 C                    -0.034964
     39 C                    -0.127423
     40 C                    -0.000232
     41 C                    -0.001051
     42 C                     0.021840
     43 C                     0.043293
     44 C                     0.036740
     45 C                    -0.067418
     46 C                     0.024580
     47 C                    -0.010385
     48 C                    -0.020981
     49 C                    -0.019894
     50 C                     0.009420
     51 C                    -0.015949
     52 C                    -0.021258
     53 C                     0.002180
     54 C                     0.003553
     55 C                     0.007700
     56 C                     0.010554
     57 C                    -0.005276
     58 C                     0.026392
     59 C                    -0.006128
     60 C                     0.037478
     61 C                    -0.008424
     62 C                    -0.018945
     63 C                    -0.013127
     64 C                     0.008373
     65 C                    -0.004323
     66 C                     0.014122
     67 C                    -0.004212
     68 C                     0.017508
     69 C                    -0.015769
     70 C                     0.037991
     71 C                    -0.029676
     72 C                     0.006576
     73 C                    -0.042610
     74 C                    -0.012682
     75 C                    -0.002674
     76 C                     0.015130
     77 C                     0.004173
     78 C                    -0.020198
     79 C                     0.040682
     80 C                    -0.002375
     81 C                     0.017578
     82 C                    -0.014688
     83 C                     0.011947
     84 C                     0.029965
     85 C                     0.017832
     86 C                    -0.010110
     87 C                    -0.008545
     88 C                     0.026398
     89 O                    -0.456156
     90 C                    -0.089447
     91 H                     0.127230
     92 H                     0.126707
     93 H                     0.125691
     94 O                    -0.482238
     95 C                     0.560022
     96 C                    -0.238219
     97 H                     0.138414
     98 H                     0.121711
     99 C                    -0.191292
    100 H                     0.117494
    101 H                     0.132629
    102 C                    -0.193587
    103 H                     0.114948
    104 H                     0.107449
    105 C                     0.014707
    106 C                     0.079241
    107 C                    -0.091502
    108 H                     0.093089
    109 C                    -0.106437
    110 H                     0.096146
    111 C                    -0.083003
    112 H                     0.095218
    113 C                    -0.093042
    114 H                     0.085620
    115 C                    -0.098951
    116 H                     0.092157
    117 C                     0.017581
    118 C                    -0.015744
    119 C                    -0.015977
    120 C                    -0.001632
    121 C                    -0.014688
    122 C                    -0.037159
    123 C                     0.001811
    124 C                    -0.013961
    125 C                    -0.000465
    126 C                    -0.011829
    127 C                    -0.069230
    128 C                     0.030237
    129 C                    -0.005695
    130 C                    -0.012984
    131 C                     0.043494
    132 C                     0.026899
    133 C                    -0.116111
    134 C                     0.032030
    135 C                    -0.034347
    136 C                    -0.000517
    137 C                    -0.000565
    138 C                     0.011977
    139 C                    -0.016264
    140 C                     0.036909
    141 C                    -0.003488
    142 C                     0.032579
    143 C                    -0.011744
    144 C                     0.025234
    145 C                    -0.010080
    146 C                    -0.022854
    147 C                    -0.030471
    148 C                     0.010482
    149 C                     0.021694
    150 C                     0.007979
    151 C                    -0.012951
    152 C                     0.015730
    153 C                    -0.016545
    154 C                    -0.018054
    155 C                    -0.023632
    156 C                     0.023915
    157 C                     0.000644
    158 C                     0.024416
    159 C                    -0.012511
    160 C                    -0.016577
    161 C                    -0.010737
    162 C                    -0.002709
    163 C                     0.034004
    164 C                    -0.013129
    165 C                    -0.026208
    166 C                    -0.031048
    167 C                     0.030732
    168 C                     0.017439
    169 C                     0.015897
    170 C                     0.022280
    171 C                     0.019335
    172 C                     0.037102
    173 C                     0.003241
    174 C                    -0.008360
    175 C                    -0.011394
    176 C                    -0.008476
  ----------------------------------------
  Sum of atomic charges =     0.000000

                    Cartesian Multipole Moments
 -----------------------------------------------------------------
    Charge (ESU x 10^10)
                 0.0000
    Dipole Moment (Debye)
         X       0.5721      Y       0.0111      Z      -2.6035
       Tot       2.6657
    Quadrupole Moments (Debye-Ang)
        XX    -812.7981     XY       6.5694     YY    -801.2324
        XZ      -2.0809     YZ      11.4096     ZZ    -805.3866

 Total job time:  870.78s(wall), 7423.35s(cpu)
        *  Thank you very much for using Q-Chem.  Have a nice day.  *
