 Q-Chem 4.4, Q-Chem, Inc., Pleasanton, CA (2016)
 Q-Chem 4.4.2 for Intel X86 Linux

User input:
--------------------------------------------------------------
$comment
SP
$end

$rem
MEM_STATIC 5000
MEM_TOTAL 20000
JOBTYPE SP
EXCHANGE B3LYP
BASIS 6-31g(d,p)
$end

$molecule
0 1
O          13.432000     -9.584000     -5.572000
C          12.036000     -9.482000     -5.281000
H          11.831000     -8.625000     -4.628000
H          11.702000    -10.414000     -4.808000
H          11.474000     -9.250000     -6.194000
O          13.720000     -7.337000     -5.831000
C          14.174000     -8.454000     -5.899000
C          15.608000     -8.680000     -6.445000
H          15.909000     -7.922000     -7.179000
H          15.500000     -9.631000     -6.980000
C          16.567000     -8.873000     -5.276000
H          16.471000     -7.959000     -4.677000
H          16.343000     -9.694000     -4.584000
C          17.954000     -9.036000     -5.752000
H          18.060000     -9.757000     -6.572000
H          18.143000     -8.086000     -6.267000
C          19.074000     -9.233000     -4.712000
C          19.447000     -7.893000     -4.099000
C          18.586000     -7.424000     -3.093000
H          17.703000     -8.015000     -2.868000
C          18.833000     -6.264000     -2.431000
H          18.174000     -5.916000     -1.641000
C          20.003000     -5.547000     -2.848000
H          20.279000     -4.630000     -2.335000
C          20.767000     -5.927000     -3.875000
H          21.628000     -5.310000     -4.114000
C          20.497000     -7.109000     -4.515000
H          21.136000     -7.571000     -5.262000
C          23.933000    -11.168000     -3.303000
C          22.660000    -11.365000     -1.205000
C          22.326000    -15.829000     -1.202000
C          21.520000    -13.567000     -7.059000
C          19.056000    -15.773000     -2.510000
C          22.934000    -10.726000     -2.390000
C          20.057000    -15.678000     -5.932000
C          24.241000    -14.442000     -1.715000
C          18.730000    -11.816000     -1.908000
C          20.162000    -13.404000     -6.729000
C          19.078000    -10.498000     -3.961000
C          18.028000    -12.466000     -3.019000
C          18.537000    -13.949000     -5.376000
C          19.800000    -16.357000     -4.728000
C          20.742000    -10.515000     -2.010000
C          21.210000    -16.913000     -2.775000
C          20.221000    -10.164000     -4.847000
C          20.532000    -11.148000     -5.969000
C          20.224000    -16.373000     -1.975000
C          24.104000    -15.188000     -5.230000
C          23.560000    -16.216000     -3.233000
C          24.414000    -15.151000     -2.970000
C          24.270000    -13.067000     -1.788000
C          21.925000    -11.283000     -6.218000
C          19.433000    -10.703000     -2.506000
C          23.340000    -12.536000     -0.876000
C          19.448000    -14.448000     -6.271000
C          21.261000    -11.207000     -0.943000
C          18.064000    -13.843000     -3.002000
C          23.572000    -13.063000     -6.267000
C          23.168000    -14.770000     -0.856000
C          18.283000    -11.722000     -4.229000
C          24.768000    -13.069000     -4.162000
C          18.141000    -14.642000     -4.205000
C          19.307000    -12.625000     -0.875000
C          22.043000    -16.422000     -5.082000
C          21.431000    -15.811000     -6.177000
C          19.232000    -14.038000     -0.921000
C          22.417000    -12.509000     -6.779000
C          19.724000    -12.215000     -6.221000
C          23.496000    -14.454000     -6.278000
C          21.535000    -10.019000     -4.309000
C          21.245000    -13.485000     -0.075000
C          18.670000    -12.550000     -5.332000
C          18.563000    -14.604000     -1.988000
C          24.197000    -12.376000     -5.208000
C          20.932000    -15.728000     -0.960000
C          24.575000    -12.367000     -2.982000
C          22.491000    -16.610000     -2.355000
C          20.553000    -12.289000     -0.373000
C          20.392000    -14.592000     -0.324000
C          21.768000    -10.194000     -2.901000
C          22.522000    -10.575000     -5.172000
C          23.364000    -16.219000     -4.638000
C          22.650000    -13.584000     -0.302000
C          18.807000    -15.772000     -3.872000
C          22.169000    -14.789000     -6.764000
C          20.981000    -16.828000     -4.190000
C          23.695000    -11.130000     -4.665000
C          24.778000    -14.533000     -4.198000
O          28.195000    -30.547000     -7.107000
C          29.301000    -30.753000     -7.997000
H          30.166000    -31.306000     -7.611000
H          29.737000    -29.752000     -8.107000
H          29.037000    -31.028000     -9.026000
O          29.444000    -29.491000     -5.494000
C          28.373000    -29.973000     -5.894000
C          27.084000    -29.961000     -5.167000
H          27.315000    -29.309000     -4.316000
H          26.863000    -30.947000     -4.740000
C          25.939000    -29.169000     -5.934000
H          26.349000    -28.294000     -6.454000
H          25.489000    -29.811000     -6.701000
C          24.843000    -28.682000     -4.976000
H          24.373000    -29.607000     -4.619000
H          25.362000    -28.339000     -4.072000
C          23.930000    -27.590000     -5.589000
C          22.918000    -28.207000     -6.525000
C          21.740000    -28.773000     -6.004000
H          21.271000    -28.597000     -5.040000
C          20.835000    -29.318000     -6.910000
H          19.850000    -29.614000     -6.559000
C          21.215000    -29.555000     -8.204000
H          20.602000    -30.201000     -8.825000
C          22.397000    -29.011000     -8.723000
H          22.666000    -29.163000     -9.764000
C          23.231000    -28.324000     -7.823000
H          24.121000    -27.796000     -8.154000
C          23.953000    -22.656000     -7.975000
C          21.885000    -22.654000     -6.691000
C          23.086000    -19.701000     -3.418000
C          27.732000    -23.751000     -4.792000
C          23.714000    -22.213000     -0.995000
C          22.857000    -23.322000     -7.464000
C          27.079000    -22.858000     -2.189000
C          23.517000    -19.688000     -5.830000
C          22.100000    -25.013000     -3.420000
C          27.226000    -24.565000     -3.796000
C          23.533000    -26.477000     -4.656000
C          23.108000    -25.289000     -2.572000
C          25.873000    -24.851000     -2.020000
C          26.116000    -22.161000     -1.426000
C          22.098000    -24.734000     -5.863000
C          24.761000    -20.255000     -1.966000
C          24.521000    -26.199000     -5.805000
C          25.937000    -25.781000     -5.464000
C          23.595000    -20.951000     -1.483000
C          26.890000    -20.401000     -5.418000
C          25.333000    -19.320000     -4.189000
C          24.841000    -19.403000     -5.557000
C          23.142000    -20.561000     -6.851000
C          26.387000    -24.846000     -6.458000
C          22.391000    -25.544000     -4.717000
C          21.976000    -21.262000     -6.435000
C          26.934000    -24.179000     -2.501000
C          21.425000    -23.547000     -5.784000
C          23.503000    -24.393000     -1.565000
C          27.225000    -22.563000     -6.628000
C          22.614000    -19.826000     -4.751000
C          24.094000    -26.031000     -3.321000
C          25.417000    -20.995000     -7.290000
C          24.836000    -24.161000     -1.371000
C          21.461000    -23.788000     -3.303000
C          26.926000    -20.715000     -2.965000
C          27.531000    -21.958000     -3.186000
C          21.782000    -22.894000     -2.291000
C          27.344000    -23.862000     -6.102000
C          26.316000    -25.519000     -4.143000
C          27.597000    -21.626000     -5.636000
C          24.226000    -25.285000     -6.968000
C          21.246000    -21.710000     -4.193000
C          25.465000    -25.687000     -3.048000
C          22.790000    -23.151000     -1.398000
C          26.089000    -22.228000     -7.417000
C          22.612000    -20.655000     -2.465000
C          24.079000    -21.277000     -7.620000
C          24.415000    -19.517000     -3.096000
C          21.105000    -23.106000     -4.501000
C          21.681000    -21.617000     -2.850000
C          22.938000    -24.672000     -7.000000
C          25.350000    -24.526000     -7.355000
C          26.552000    -19.995000     -4.099000
C          21.702000    -20.830000     -5.114000
C          24.982000    -22.812000     -0.962000
C          27.918000    -22.391000     -4.516000
C          26.016000    -20.883000     -1.985000
C          25.175000    -23.201000     -7.884000
C          25.856000    -20.058000     -6.300000
$end

--------------------------------------------------------------

             Standard Nuclear Orientation (Angstroms)
    I     Atom           X                Y                Z
 ----------------------------------------------------------------
    1      O     -11.1372308086     5.8774675372    -0.4416982257
    2      C     -11.7439979076     6.9201395300    -1.2088812567
    3      H     -12.6707678162     6.5733518359    -1.6818705077
    4      H     -11.0307078214     7.2645921564    -1.9681431621
    5      H     -12.0791175229     7.7304030901    -0.5497873282
    6      O     -13.1120854153     5.1104255152     0.4012903975
    7      C     -11.9054100236     5.0645974979     0.3850641300
    8      C     -11.1480264878     4.1341675043     1.3680281207
    9      H     -11.6882859168     3.9794732802     2.3104242404
   10      H     -10.2526933132     4.7248488879     1.5955451738
   11      C     -10.7325567299     2.8621934807     0.6379884207
   12      H     -11.6699325820     2.4292142460     0.2674907902
   13      H     -10.1030780973     2.9866978897    -0.2515824327
   14      C     -10.0563038914     1.9241600721     1.5543341102
   15      H      -9.2768366842     2.3895919851     2.1701920544
   16      H     -10.8334044056     1.7170688255     2.3004400051
   17      C      -9.5700082063     0.5709048897     1.0002349151
   18      C     -10.7426101356    -0.3899802421     0.8897700836
   19      C     -11.5659666824    -0.2174743676    -0.2352382364
   20      H     -11.3413963084     0.6087047313    -0.9035130628
   21      C     -12.6186641194    -1.0408523310    -0.4775806300
   22      H     -13.2403133380    -0.9143662563    -1.3590785154
   23      C     -12.8444576027    -2.0657240762     0.4999331595
   24      H     -13.6475970658    -2.7813901595     0.3481996430
   25      C     -12.1362201903    -2.1710391021     1.6269351617
   26      H     -12.3915436492    -2.9796309623     2.3052567190
   27      C     -11.0728762990    -1.3312428935     1.8358995051
   28      H     -10.3554459135    -1.4270692311     2.6457667504
   29      C      -6.1887661197    -3.6583184598     1.1425683688
   30      C      -6.6268076416    -3.4161905566    -1.2679161684
   31      C      -2.5770203122    -1.8759508777    -2.3929696419
   32      C      -4.4726738567     0.7045234926     3.0676510795
   33      C      -3.6588416746     1.4757648186    -2.4436098467
   34      C      -7.0271651421    -3.3198085808     0.0428265167
   35      C      -3.1081766512     2.0664097060     1.0304391813
   36      C      -3.1601905624    -3.6865275710    -0.8976812091
   37      C      -7.5169122740     0.3830477937    -2.2250011699
   38      C      -5.1264302993     1.6806485557     2.2934318761
   39      C      -8.4516003242     0.5993419604     0.0449354112
   40      C      -7.0608418594     1.6467138369    -1.6378275088
   41      C      -5.2992468506     2.6436449855     0.3412455848
   42      C      -2.6661668860     1.9585076801    -0.2998579735
   43      C      -8.0208387524    -1.6637285008    -1.0813605339
   44      C      -1.8210803307     0.0638918768    -1.6443670556
   45      C      -8.2895575571    -0.0924606944     1.3480671116
   46      C      -7.1675056726     0.4013895272     2.2541424545
   47      C      -2.7368315277     0.4124256862    -2.6158195398
   48      C      -2.2135821063    -1.8436707946     2.0414209213
   49      C      -1.6131791802    -1.9493240261    -0.1877230223
   50      C      -2.3316643736    -3.0943418752     0.1369662942
   51      C      -4.4272589856    -4.0665349695    -0.5143706457
   52      C      -6.5345458690    -0.6475416552     2.9751003324
   53      C      -8.2598433307    -0.2747531487    -1.1733675050
   54      C      -5.3245772604    -3.8117744933    -1.5672343660
   55      C      -4.4398645834     2.3888457088     1.3787842335
   56      C      -7.2844299262    -2.3741880466    -1.9976919556
   57      C      -5.7644873005     1.9957040957    -1.9466715743
   58      C      -4.2945780592    -1.5379321671     3.2455794389
   59      C      -3.3011296824    -3.0447827241    -2.1487182653
   60      C      -7.5637088970     1.7406410001    -0.2883967286
   61      C      -4.0503689790    -3.4692699518     1.8062138542
   62      C      -4.8898505520     2.6730773854    -1.0151593711
   63      C      -6.6481877781    -0.3295781848    -3.1149342938
   64      C      -1.7931819174     0.2064406502     0.8528555067
   65      C      -2.4840494631     1.0314806188     1.7410565450
   66      C      -5.3516028544     0.1518630622    -3.4172451622
   67      C      -5.1710700838    -0.4827214677     3.3917885720
   68      C      -6.4320431623     1.5027895410     1.9365422253
   69      C      -3.0218441815    -1.0769112940     2.9163587967
   70      C      -8.0122364755    -1.4917420613     1.3946468703
   71      C      -5.2374235699    -2.0942190337    -3.2916573064
   72      C      -6.5623663385     2.1172776337     0.6641891871
   73      C      -4.9661570260     1.3446457185    -2.8383608488
   74      C      -4.8076282563    -2.7235655965     2.6842169302
   75      C      -3.1780008942    -0.8135839107    -3.1156035515
   76      C      -4.8729764264    -4.0100013726     0.8298023027
   77      C      -1.6927326315    -1.3006432994    -1.4690370209
   78      C      -6.5698023372    -1.7087436339    -3.0191512757
   79      C      -4.4805756864    -0.9442856683    -3.6379137671
   80      C      -7.8870444795    -2.2494125182     0.1790645231
   81      C      -7.0758597739    -1.8094691745     2.4194991300
   82      C      -1.5595824874    -1.1746182997     0.9994620653
   83      C      -4.6357453541    -3.1730468572    -2.5778864386
   84      C      -3.6311100773     2.2762429005    -1.3142242619
   85      C      -3.1307704018     0.3645174316     2.7757589826
   86      C      -1.8602809333     0.8464575386    -0.4410610689
   87      C      -6.1917324596    -2.8776746282     2.2843732597
   88      C      -2.6773850703    -3.0506733253     1.5157245245
   89      O      13.7079457449    -0.2230115741     1.8498339332
   90      C      14.3614390992    -0.7295313399     3.0220780046
   91      H      15.1465399173    -1.4820678931     2.8794756151
   92      H      13.5885362156    -1.3373557896     3.5092818335
   93      H      14.6133060539     0.0178250105     3.7850875214
   94      O      13.0211341794    -2.2862535945     1.1094095691
   95      C      13.1314042386    -1.0600499357     0.9556887142
   96      C      12.6089818664    -0.2718059239    -0.1827049976
   97      H      12.0088235868    -1.0201228485    -0.7142102372
   98      H      13.4159858948     0.0107872459    -0.8699106426
   99      C      11.5354633577     0.8178649281     0.2494447980
  100      H      10.9058675691     0.4445487008     1.0669832604
  101      H      12.0427831711     1.7149046174     0.6248104898
  102      C      10.6174158086     1.2074788302    -0.9174051087
  103      H      11.2865772209     1.7165781345    -1.6223979474
  104      H      10.4016179382     0.2762828156    -1.4564146277
  105      C       9.3317429378     1.9474920762    -0.4688210420
  106      C       9.6340517825     3.3921920215    -0.1488516208
  107      C       9.7072972436     4.3366202088    -1.1891263449
  108      H       9.2976963234     4.2735493625    -2.1933584667
  109      C       9.9771782553     5.6564053747    -0.8395303559
  110      H       9.8801460735     6.4327536094    -1.5937916993
  111      C      10.4406604216     5.9552239835     0.4138238321
  112      H      10.8824819246     6.9301786454     0.5954365152
  113      C      10.3891744102     5.0126900514     1.4489083588
  114      H      10.7131505934     5.2736799720     2.4519386146
  115      C       9.9625019674     3.7164348019     1.1095001167
  116      H       9.8081645374     2.9476751679     1.8615862706
  117      C       4.9369056135     1.5692594606     2.7839048889
  118      C       4.1048856837     2.7879991069     0.8480070324
  119      C       1.4899619836    -0.4832690615    -0.9784971734
  120      C       7.0069997851    -2.7351770053     1.1112148903
  121      C       3.8481069444    -1.3601279326    -3.4776426002
  122      C       5.1329346889     2.4758166689     1.7613494480
  123      C       5.7250028648    -3.5488304368    -1.2749785196
  124      C       1.8327065849     0.1836045448     1.3542007778
  125      C       6.1042660394     1.8565445421    -2.5351006495
  126      C       7.5058095955    -2.5019570775    -0.1566357469
  127      C       8.0753217038     1.5725953139    -1.2089055644
  128      C       6.6415182000     0.7043122775    -2.9767621992
  129      C       7.1502439526    -2.0273738746    -2.3280235191
  130      C       4.6738733657    -3.2482062282    -2.1694609741
  131      C       6.0503471949     2.8332142320    -0.2791522735
  132      C       2.4680952366    -2.3896114370    -1.7721967932
  133      C       8.2578778292     1.1428282286     0.2592914638
  134      C       8.3326728104    -0.3357176042     0.5823532708
  135      C       2.6700858332    -1.4025325030    -2.8027966073
  136      C       3.6396590613    -2.6853320941     2.1021094024
  137      C       1.9834273441    -2.1843640905     0.6498082771
  138      C       2.0053188177    -1.1493491385     1.6738404116
  139      C       2.6033323842     1.1908201357     1.9345865383
  140      C       7.7012252907    -0.5558123016     1.8541997057
  141      C       6.8113706315     2.3156257002    -1.3783385365
  142      C       2.8156719572     2.2081948892     0.9630550068
  143      C       6.9338634502    -2.9185474776    -1.3443289082
  144      C       4.7010225837     3.0423713156    -0.3401064201
  145      C       5.8575878023    -0.3204802982    -3.5318687732
  146      C       5.8770459388    -1.8428831756     2.8335113301
  147      C       1.5550618274     0.5313171311     0.0122978954
  148      C       7.7414834479     0.3905859152    -2.0961866926
  149      C       3.8390976121    -0.4482747081     3.0934456300
  150      C       6.0895070675    -1.6121831751    -3.1496827816
  151      C       4.7281091511     2.0094823307    -2.6088383705
  152      C       3.7372557457    -3.6856215669    -0.1577571551
  153      C       5.1271750100    -3.7595049244    -0.0074884343
  154      C       3.9198123545     1.0465383980    -3.1968998222
  155      C       7.0863787534    -1.8064602878     2.1162766985
  156      C       8.1082842293    -1.3039196162    -0.4023094270
  157      C       5.0480980517    -2.8530176862     2.2923175839
  158      C       7.4005288647     1.6402190141     1.3961930248
  159      C       2.7890749431     1.9932781773    -1.4271900446
  160      C       7.8754195325    -0.9992517662    -1.7455895669
  161      C       4.4355142446    -0.1304399578    -3.6747444731
  162      C       5.2350789423    -0.6229429445     3.1868754597
  163      C       2.1342500269    -0.2195771799    -2.2268402788
  164      C       3.6636365702     0.9204160166     2.8203758165
  165      C       1.7544321016    -1.8132386916    -0.7235121943
  166      C       4.0689935881     2.6394955257    -1.5153512655
  167      C       2.7400900828     1.0150989280    -2.4481155265
  168      C       6.3818738126     2.5858921259     1.0740420501
  169      C       7.1169464095     0.6300390123     2.3387127090
  170      C       3.0309667754    -3.0784576420     0.8799036077
  171      C       2.2048639911     1.7520273142    -0.2309155842
  172      C       4.8466346816    -2.2930221983    -3.1608388015
  173      C       5.7790907808    -3.3960534615     1.2371267117
  174      C       3.4935665027    -3.2807842056    -1.4200749691
  175      C       5.8640693906     0.6356093829     3.0432403142
  176      C       3.0336870247    -1.5149877872     2.5794154827
 ----------------------------------------------------------------

    9   -5804.2145618609      9.71E-06 Convergence criterion met
 Total energy in the final basis set = -5804.2145618609

                    Orbital Energies (a.u.)
 --------------------------------------------------------------

 Alpha MOs
 -- Occupied --
-19.194 -19.189 -19.136 -19.133 -10.320 -10.316 -10.245 -10.245
-10.244 -10.243 -10.242 -10.241 -10.237 -10.236 -10.230 -10.230
-10.230 -10.229 -10.229 -10.228 -10.226 -10.225 -10.223 -10.223
-10.222 -10.221 -10.221 -10.220 -10.220 -10.219 -10.219 -10.218
-10.217 -10.217 -10.217 -10.216 -10.216 -10.216 -10.216 -10.216
-10.215 -10.215 -10.215 -10.215 -10.215 -10.215 -10.215 -10.215
-10.215 -10.214 -10.214 -10.214 -10.214 -10.214 -10.214 -10.214
-10.214 -10.214 -10.214 -10.214 -10.214 -10.214 -10.214 -10.214
-10.213 -10.213 -10.213 -10.213 -10.213 -10.213 -10.213 -10.213
-10.212 -10.212 -10.212 -10.212 -10.212 -10.212 -10.212 -10.212
-10.212 -10.212 -10.211 -10.211 -10.211 -10.211 -10.211 -10.211
-10.211 -10.211 -10.211 -10.211 -10.211 -10.211 -10.211 -10.210
-10.210 -10.210 -10.210 -10.210 -10.210 -10.210 -10.209 -10.209
-10.209 -10.209 -10.209 -10.209 -10.209 -10.208 -10.208 -10.208
-10.208 -10.208 -10.208 -10.207 -10.207 -10.207 -10.207 -10.207
-10.206 -10.206 -10.206 -10.206 -10.205 -10.204 -10.204 -10.203
-10.203 -10.203 -10.203 -10.202 -10.202 -10.201 -10.201 -10.201
-10.200 -10.200 -10.199 -10.198 -10.197 -10.196 -10.195 -10.195
-10.194 -10.192 -10.192 -10.190  -1.093  -1.089  -1.012  -1.001
 -0.984  -0.983  -0.968  -0.966  -0.965  -0.961  -0.960  -0.960
 -0.940  -0.933  -0.930  -0.928  -0.927  -0.924  -0.923  -0.922
 -0.920  -0.917  -0.901  -0.896  -0.891  -0.890  -0.885  -0.881
 -0.877  -0.877  -0.862  -0.861  -0.841  -0.840  -0.838  -0.837
 -0.837  -0.834  -0.827  -0.819  -0.813  -0.805  -0.797  -0.797
 -0.796  -0.795  -0.793  -0.792  -0.791  -0.790  -0.786  -0.783
 -0.772  -0.769  -0.769  -0.768  -0.767  -0.766  -0.764  -0.763
 -0.759  -0.756  -0.748  -0.744  -0.734  -0.732  -0.717  -0.716
 -0.714  -0.713  -0.712  -0.711  -0.710  -0.709  -0.709  -0.707
 -0.707  -0.706  -0.705  -0.704  -0.704  -0.700  -0.675  -0.673
 -0.659  -0.657  -0.656  -0.655  -0.648  -0.646  -0.635  -0.633
 -0.627  -0.626  -0.626  -0.623  -0.623  -0.621  -0.619  -0.617
 -0.615  -0.614  -0.613  -0.611  -0.610  -0.609  -0.608  -0.607
 -0.605  -0.605  -0.603  -0.601  -0.574  -0.570  -0.567  -0.565
 -0.562  -0.561  -0.558  -0.558  -0.556  -0.555  -0.554  -0.553
 -0.542  -0.539  -0.536  -0.531  -0.526  -0.525  -0.525  -0.522
 -0.521  -0.520  -0.519  -0.517  -0.516  -0.516  -0.514  -0.512
 -0.509  -0.506  -0.499  -0.497  -0.492  -0.492  -0.486  -0.485
 -0.484  -0.483  -0.482  -0.481  -0.480  -0.479  -0.476  -0.474
 -0.474  -0.471  -0.469  -0.469  -0.467  -0.466  -0.465  -0.465
 -0.464  -0.464  -0.463  -0.463  -0.462  -0.461  -0.460  -0.460
 -0.458  -0.456  -0.456  -0.452  -0.450  -0.449  -0.445  -0.444
 -0.441  -0.440  -0.439  -0.439  -0.438  -0.437  -0.435  -0.433
 -0.433  -0.432  -0.431  -0.428  -0.427  -0.426  -0.426  -0.424
 -0.424  -0.422  -0.421  -0.420  -0.419  -0.418  -0.417  -0.417
 -0.416  -0.416  -0.414  -0.413  -0.413  -0.412  -0.412  -0.411
 -0.410  -0.409  -0.408  -0.407  -0.401  -0.397  -0.396  -0.395
 -0.394  -0.392  -0.392  -0.391  -0.388  -0.387  -0.386  -0.384
 -0.384  -0.376  -0.375  -0.371  -0.370  -0.369  -0.369  -0.365
 -0.364  -0.364  -0.362  -0.362  -0.361  -0.360  -0.358  -0.358
 -0.357  -0.355  -0.355  -0.354  -0.353  -0.352  -0.351  -0.350
 -0.348  -0.348  -0.347  -0.346  -0.345  -0.344  -0.344  -0.344
 -0.343  -0.341  -0.340  -0.339  -0.338  -0.337  -0.332  -0.332
 -0.332  -0.331  -0.330  -0.328  -0.326  -0.325  -0.324  -0.322
 -0.317  -0.316  -0.296  -0.295  -0.287  -0.281  -0.270  -0.269
 -0.269  -0.268  -0.267  -0.266  -0.265  -0.265  -0.264  -0.264
 -0.263  -0.261  -0.260  -0.259  -0.257  -0.256  -0.254  -0.253
 -0.251  -0.249  -0.247  -0.243  -0.223  -0.216  -0.210  -0.210
 -0.208  -0.207  -0.204  -0.201  -0.201  -0.199

          Ground-State Mulliken Net Atomic Charges

     Atom                 Charge (a.u.)
  ----------------------------------------
      1 O                    -0.477498
      2 C                    -0.082268
      3 H                     0.131003
      4 H                     0.126173
      5 H                     0.122658
      6 O                    -0.450572
      7 C                     0.567476
      8 C                    -0.233962
      9 H                     0.137106
     10 H                     0.125346
     11 C                    -0.192391
     12 H                     0.124869
     13 H                     0.118250
     14 C                    -0.179301
     15 H                     0.107019
     16 H                     0.111540
     17 C                     0.008554
     18 C                     0.094447
     19 C                    -0.101121
     20 H                     0.087927
     21 C                    -0.088596
     22 H                     0.096450
     23 C                    -0.090861
     24 H                     0.082423
     25 C                    -0.072442
     26 H                     0.093100
     27 C                    -0.113366
     28 H                     0.087508
     29 C                    -0.020143
     30 C                    -0.002132
     31 C                     0.002640
     32 C                    -0.015932
     33 C                     0.000928
     34 C                     0.005797
     35 C                    -0.010843
     36 C                    -0.025010
     37 C                    -0.027438
     38 C                     0.015628
     39 C                    -0.046953
     40 C                    -0.027765
     41 C                    -0.010164
     42 C                    -0.006591
     43 C                     0.011912
     44 C                    -0.014082
     45 C                    -0.089717
     46 C                     0.018305
     47 C                     0.015261
     48 C                    -0.007336
     49 C                     0.010495
     50 C                     0.005274
     51 C                     0.022407
     52 C                     0.019727
     53 C                     0.034900
     54 C                    -0.005296
     55 C                     0.012325
     56 C                    -0.014217
     57 C                     0.028591
     58 C                     0.010237
     59 C                    -0.002919
     60 C                     0.002998
     61 C                    -0.013146
     62 C                    -0.037547
     63 C                     0.013453
     64 C                     0.026551
     65 C                    -0.008384
     66 C                    -0.007275
     67 C                    -0.012317
     68 C                     0.000122
     69 C                     0.010272
     70 C                     0.027874
     71 C                     0.002370
     72 C                     0.001445
     73 C                     0.021424
     74 C                     0.012298
     75 C                    -0.005629
     76 C                     0.009389
     77 C                     0.011355
     78 C                    -0.005692
     79 C                    -0.025216
     80 C                     0.004913
     81 C                    -0.015672
     82 C                    -0.014949
     83 C                     0.003966
     84 C                     0.010578
     85 C                    -0.020283
     86 C                     0.006354
     87 C                    -0.008742
     88 C                    -0.015052
     89 O                    -0.448261
     90 C                    -0.093705
     91 H                     0.131351
     92 H                     0.126647
     93 H                     0.125630
     94 O                    -0.484817
     95 C                     0.590345
     96 C                    -0.262460
     97 H                     0.135773
     98 H                     0.133577
     99 C                    -0.190650
    100 H                     0.111824
    101 H                     0.122835
    102 C                    -0.184942
    103 H                     0.113607
    104 H                     0.108045
    105 C                     0.008281
    106 C                     0.102417
    107 C                    -0.110046
    108 H                     0.097129
    109 C                    -0.085876
    110 H                     0.089732
    111 C                    -0.079351
    112 H                     0.087199
    113 C                    -0.095886
    114 H                     0.095697
    115 C                    -0.100535
    116 H                     0.092825
    117 C                     0.003243
    118 C                     0.042794
    119 C                     0.009679
    120 C                    -0.000530
    121 C                     0.013508
    122 C                    -0.001323
    123 C                    -0.000543
    124 C                     0.036405
    125 C                    -0.006538
    126 C                     0.036538
    127 C                    -0.094734
    128 C                     0.000037
    129 C                    -0.013542
    130 C                    -0.012463
    131 C                     0.016734
    132 C                    -0.007956
    133 C                    -0.084666
    134 C                     0.018014
    135 C                    -0.010559
    136 C                     0.012984
    137 C                    -0.019191
    138 C                    -0.019714
    139 C                    -0.012489
    140 C                    -0.014776
    141 C                     0.046062
    142 C                    -0.035878
    143 C                     0.005003
    144 C                    -0.000686
    145 C                    -0.011453
    146 C                    -0.007839
    147 C                     0.005754
    148 C                     0.018783
    149 C                     0.014879
    150 C                     0.022874
    151 C                     0.002623
    152 C                    -0.008308
    153 C                    -0.006819
    154 C                     0.015766
    155 C                     0.000634
    156 C                     0.018433
    157 C                    -0.018047
    158 C                     0.014445
    159 C                    -0.003234
    160 C                    -0.025975
    161 C                    -0.007111
    162 C                    -0.003024
    163 C                    -0.007315
    164 C                    -0.017479
    165 C                     0.002999
    166 C                    -0.023247
    167 C                    -0.014969
    168 C                    -0.038031
    169 C                     0.017046
    170 C                     0.014351
    171 C                     0.007711
    172 C                    -0.011922
    173 C                    -0.009076
    174 C                     0.029062
    175 C                     0.003066
    176 C                    -0.019194
  ----------------------------------------
  Sum of atomic charges =     0.000000

                    Cartesian Multipole Moments
 -----------------------------------------------------------------
    Charge (ESU x 10^10)
                 0.0000
    Dipole Moment (Debye)
         X       1.2605      Y       4.5086      Z       0.3470
       Tot       4.6944
    Quadrupole Moments (Debye-Ang)
        XX    -757.2712     XY      43.7494     YY    -797.2325
        XZ       7.4457     YZ      -3.6140     ZZ    -796.4082

 Total job time:  838.21s(wall), 7053.44s(cpu)
        *  Thank you very much for using Q-Chem.  Have a nice day.  *
