 Q-Chem 4.4, Q-Chem, Inc., Pleasanton, CA (2016)
 Q-Chem 4.4.2 for Intel X86 Linux

User input:
--------------------------------------------------------------
$comment
SP
$end

$rem
MEM_STATIC 5000
MEM_TOTAL 20000
JOBTYPE SP
EXCHANGE B3LYP
BASIS 6-31g(d,p)
$end

$molecule
0 1
O          18.732000    -10.818000     -8.901000
C          20.125000    -10.604000     -9.377000
H          20.829000    -11.239000     -8.825000
H          20.406000     -9.574000     -9.126000
H          20.143000    -10.734000    -10.466000
O          18.787000    -13.087000     -9.279000
C          18.220000    -12.071000     -8.877000
C          16.760000    -12.004000     -8.342000
H          16.201000    -11.438000     -9.097000
H          16.696000    -11.550000     -7.345000
C          16.021000    -13.367000     -8.163000
H          16.831000    -14.016000     -7.806000
H          15.322000    -13.381000     -7.318000
C          15.437000    -13.941000     -9.421000
H          14.444000    -13.510000     -9.599000
H          15.996000    -13.768000    -10.349000
C          15.187000    -15.428000     -9.179000
C          13.892000    -15.664000     -8.384000
C          12.657000    -15.584000     -9.047000
H          12.636000    -15.409000    -10.118000
C          11.497000    -15.775000     -8.317000
H          10.600000    -15.742000     -8.930000
C          11.605000    -16.179000     -7.015000
H          10.706000    -16.461000     -6.475000
C          12.834000    -16.327000     -6.340000
H          12.924000    -16.507000     -5.273000
C          13.996000    -16.042000     -7.021000
H          14.962000    -16.145000     -6.535000
C          17.292000    -20.287000     -7.712000
C          15.407000    -20.888000     -9.119000
C          17.930000    -22.340000    -12.722000
C          20.288000    -17.078000    -10.146000
C          17.548000    -19.343000    -14.340000
C          15.960000    -20.049000     -8.196000
C          20.259000    -17.626000    -12.870000
C          18.194000    -22.636000    -10.309000
C          14.623000    -18.061000    -11.925000
C          19.525000    -16.256000    -11.002000
C          15.381000    -16.445000    -10.298000
C          15.491000    -17.196000    -12.627000
C          18.175000    -16.341000    -12.790000
C          19.768000    -18.422000    -13.926000
C          14.731000    -18.773000     -9.635000
C          19.256000    -20.812000    -13.770000
C          16.292000    -16.419000     -9.120000
C          17.702000    -16.174000     -9.359000
C          17.975000    -20.614000    -14.186000
C          20.962000    -20.534000    -10.119000
C          19.989000    -21.841000    -11.675000
C          19.551000    -22.241000    -10.391000
C          17.454000    -22.171000     -9.268000
C          18.514000    -16.961000     -8.490000
C          14.637000    -17.720000    -10.565000
C          16.120000    -22.022000     -9.659000
C          19.430000    -16.595000    -12.357000
C          14.635000    -20.113000    -10.026000
C          16.316000    -17.580000    -13.653000
C          20.256000    -18.726000     -8.569000
C          17.393000    -22.683000    -11.452000
C          16.063000    -16.262000    -11.655000
C          19.354000    -20.995000     -8.372000
C          17.624000    -17.159000    -13.748000
C          14.588000    -19.381000    -12.351000
C          20.946000    -19.719000    -12.451000
C          21.048000    -18.420000    -12.010000
C          15.392000    -19.779000    -13.459000
C          19.790000    -17.424000     -8.858000
C          18.226000    -15.850000    -10.610000
C          21.005000    -19.146000     -9.670000
C          16.383000    -17.616000     -8.239000
C          15.256000    -21.581000    -11.897000
C          17.416000    -15.875000    -11.729000
C          16.226000    -18.926000    -14.093000
C          19.442000    -19.638000     -7.880000
C          17.165000    -21.488000    -13.491000
C          18.035000    -21.370000     -8.262000
C          19.240000    -21.845000    -12.830000
C          14.579000    -20.451000    -11.392000
C          15.839000    -21.063000    -13.048000
C          15.565000    -18.740000     -8.524000
C          17.728000    -17.863000     -7.830000
C          20.868000    -20.737000    -11.498000
C          16.058000    -22.325000    -11.021000
C          18.370000    -18.219000    -14.231000
C          21.088000    -18.137000    -10.618000
C          20.169000    -19.733000    -13.580000
C          18.177000    -19.218000     -7.512000
C          20.119000    -21.423000     -9.440000
O          28.195000    -30.547000     -7.107000
C          29.301000    -30.753000     -7.997000
H          30.166000    -31.306000     -7.611000
H          29.737000    -29.752000     -8.107000
H          29.037000    -31.028000     -9.026000
O          29.444000    -29.491000     -5.494000
C          28.373000    -29.973000     -5.894000
C          27.084000    -29.961000     -5.167000
H          27.315000    -29.309000     -4.316000
H          26.863000    -30.947000     -4.740000
C          25.939000    -29.169000     -5.934000
H          26.349000    -28.294000     -6.454000
H          25.489000    -29.811000     -6.701000
C          24.843000    -28.682000     -4.976000
H          24.373000    -29.607000     -4.619000
H          25.362000    -28.339000     -4.072000
C          23.930000    -27.590000     -5.589000
C          22.918000    -28.207000     -6.525000
C          21.740000    -28.773000     -6.004000
H          21.271000    -28.597000     -5.040000
C          20.835000    -29.318000     -6.910000
H          19.850000    -29.614000     -6.559000
C          21.215000    -29.555000     -8.204000
H          20.602000    -30.201000     -8.825000
C          22.397000    -29.011000     -8.723000
H          22.666000    -29.163000     -9.764000
C          23.231000    -28.324000     -7.823000
H          24.121000    -27.796000     -8.154000
C          23.953000    -22.656000     -7.975000
C          21.885000    -22.654000     -6.691000
C          23.086000    -19.701000     -3.418000
C          27.732000    -23.751000     -4.792000
C          23.714000    -22.213000     -0.995000
C          22.857000    -23.322000     -7.464000
C          27.079000    -22.858000     -2.189000
C          23.517000    -19.688000     -5.830000
C          22.100000    -25.013000     -3.420000
C          27.226000    -24.565000     -3.796000
C          23.533000    -26.477000     -4.656000
C          23.108000    -25.289000     -2.572000
C          25.873000    -24.851000     -2.020000
C          26.116000    -22.161000     -1.426000
C          22.098000    -24.734000     -5.863000
C          24.761000    -20.255000     -1.966000
C          24.521000    -26.199000     -5.805000
C          25.937000    -25.781000     -5.464000
C          23.595000    -20.951000     -1.483000
C          26.890000    -20.401000     -5.418000
C          25.333000    -19.320000     -4.189000
C          24.841000    -19.403000     -5.557000
C          23.142000    -20.561000     -6.851000
C          26.387000    -24.846000     -6.458000
C          22.391000    -25.544000     -4.717000
C          21.976000    -21.262000     -6.435000
C          26.934000    -24.179000     -2.501000
C          21.425000    -23.547000     -5.784000
C          23.503000    -24.393000     -1.565000
C          27.225000    -22.563000     -6.628000
C          22.614000    -19.826000     -4.751000
C          24.094000    -26.031000     -3.321000
C          25.417000    -20.995000     -7.290000
C          24.836000    -24.161000     -1.371000
C          21.461000    -23.788000     -3.303000
C          26.926000    -20.715000     -2.965000
C          27.531000    -21.958000     -3.186000
C          21.782000    -22.894000     -2.291000
C          27.344000    -23.862000     -6.102000
C          26.316000    -25.519000     -4.143000
C          27.597000    -21.626000     -5.636000
C          24.226000    -25.285000     -6.968000
C          21.246000    -21.710000     -4.193000
C          25.465000    -25.687000     -3.048000
C          22.790000    -23.151000     -1.398000
C          26.089000    -22.228000     -7.417000
C          22.612000    -20.655000     -2.465000
C          24.079000    -21.277000     -7.620000
C          24.415000    -19.517000     -3.096000
C          21.105000    -23.106000     -4.501000
C          21.681000    -21.617000     -2.850000
C          22.938000    -24.672000     -7.000000
C          25.350000    -24.526000     -7.355000
C          26.552000    -19.995000     -4.099000
C          21.702000    -20.830000     -5.114000
C          24.982000    -22.812000     -0.962000
C          27.918000    -22.391000     -4.516000
C          26.016000    -20.883000     -1.985000
C          25.175000    -23.201000     -7.884000
C          25.856000    -20.058000     -6.300000
$end

--------------------------------------------------------------

             Standard Nuclear Orientation (Angstroms)
    I     Atom           X                Y                Z
 ----------------------------------------------------------------
    1      O      -8.4322326509     5.9399266381    -2.5467183132
    2      C      -7.8418971625     6.1426029838    -3.8969950663
    3      H      -6.7505039473     6.2363296724    -3.8368190103
    4      H      -8.1955285679     7.1111170934    -4.2708763960
    5      H      -8.2003777383     5.3421612496    -4.5557284775
    6      O      -7.1348110023     4.0962139198    -2.0866199779
    7      C      -7.9780174122     4.9330445898    -1.7640267663
    8      C      -8.7637896508     4.9510202531    -0.4206902989
    9      H      -9.8003376483     4.7131529542    -0.6887376770
   10      H      -8.6763445119     5.9092561071     0.1069065129
   11      C      -8.3267185801     3.9084699600     0.6554085652
   12      H      -7.2373277289     3.8921879305     0.5223203657
   13      H      -8.4299229831     4.2698302952     1.6857432484
   14      C      -8.8760661281     2.5256446511     0.4576525624
   15      H      -9.8760579978     2.4567534835     0.9034824262
   16      H      -8.9992435468     2.1863971059    -0.5783650179
   17      C      -8.0119171432     1.5635183455     1.2699286878
   18      C      -8.3913873201     1.5795323413     2.7600602044
   19      C      -9.5332694103     0.8810671469     3.1836704784
   20      H     -10.1006646514     0.2987585922     2.4645832879
   21      C      -9.8785130146     0.9215921693     4.5231276730
   22      H     -10.7467074858     0.3104181878     4.7558758729
   23      C      -9.0146779663     1.5151927662     5.4014848559
   24      H      -9.2092053535     1.4346456479     6.4668468870
   25      C      -7.8292980481     2.1716843880     5.0117885637
   26      H      -7.2147945006     2.7657743364     5.6814388629
   27      C      -7.5211472223     2.2304777050     3.6713347546
   28      H      -6.6162380419     2.7267802502     3.3325366455
   29      C      -2.9749213032    -0.3776527693     2.2963411831
   30      C      -4.4297889138    -2.2156039958     2.9282988749
   31      C      -3.3477545893    -4.9484446547    -0.6516767750
   32      C      -4.0076634722     1.0862400870    -2.3928500390
   33      C      -6.1441398170    -3.9796030966    -2.3800959064
   34      C      -4.2054623343    -0.8720272019     2.8499535845
   35      C      -4.8140942429    -1.0933858463    -3.9160772719
   36      C      -1.9874691158    -3.5103551094     0.7840818714
   37      C      -7.8785428147    -2.2496552420     0.7870006602
   38      C      -5.3810045742     0.9109074587    -2.6644778855
   39      C      -7.7121687266     0.1596097830     0.7568228170
   40      C      -8.1359960674    -1.8693895035    -0.5485025374
   41      C      -6.9624050708    -0.6710054958    -2.8174251765
   42      C      -5.0794336154    -2.4773726678    -3.9793899516
   43      C      -6.4125187863    -1.2279459311     2.3899952430
   44      C      -3.8600146161    -4.2049161443    -2.7435943210
   45      C      -6.6372689927     1.1861477254     0.8521717283
   46      C      -5.9567725385     1.5703882757    -0.3703378935
   47      C      -5.0036250959    -4.6699048538    -2.1698682796
   48      C      -1.3911167277    -1.1739029324    -1.7262334581
   49      C      -1.8633476689    -3.3732848751    -1.6004121247
   50      C      -1.3706507678    -2.9306576764    -0.3506797827
   51      C      -2.3358179213    -2.6913560819     1.8114083544
   52      C      -4.5674971500     1.7918206044    -0.1363387081
   53      C      -7.5183529941    -1.1137234703     1.5259183168
   54      C      -3.4735016906    -3.1885481319     2.4541475754
   55      C      -5.7939513104    -0.2414021229    -3.3439104584
   56      C      -5.8008653577    -2.4600234248     2.6460462789
   57      C      -7.7758132985    -2.5989632386    -1.6524715306
   58      C      -2.3450702222     0.9404165772    -0.8377371206
   59      C      -2.9619680397    -4.5002745764     0.6403101905
   60      C      -7.9381417804    -0.4213623664    -0.6401272683
   61      C      -1.4422371820    -0.7758504054     0.6589572858
   62      C      -7.2130454968    -2.0220663886    -2.7694372534
   63      C      -7.2535504219    -3.4745790827     0.9715192051
   64      C      -2.8780616539    -2.1260615405    -3.4539758496
   65      C      -3.4393915312    -0.8887965206    -3.6693128860
   66      C      -6.9325171539    -4.2732292999    -0.1649575749
   67      C      -3.5867394401     1.5542083055    -1.1159425617
   68      C      -6.3314067071     1.1177871063    -1.6349937443
   69      C      -2.0437691300     0.1164253469    -1.9239498549
   70      C      -5.4637606612     0.9368557170     1.7342049989
   71      C      -5.2487116511    -4.5652375175     1.5038965917
   72      C      -7.3156528645     0.1568526911    -1.7644176653
   73      C      -7.1767625568    -3.8658137443    -1.4296621840
   74      C      -2.0279194285     0.5323265004     0.4668466687
   75      C      -4.7050846369    -5.0460536635    -0.8766603816
   76      C      -2.0348041466    -1.3131380415     1.7781857650
   77      C      -2.8352944284    -4.3270104047    -1.8023257469
   78      C      -6.1932006175    -3.6086786558     1.9319032932
   79      C      -5.6640691067    -4.7993268410     0.1978742440
   80      C      -5.4207133818    -0.2603265731     2.4948800254
   81      C      -4.2500997618     1.3791292616     1.1269683621
   82      C      -1.8983355180    -2.2451267806    -2.4657566597
   83      C      -3.8900170416    -4.3113020220     1.7353738525
   84      C      -6.2575300276    -2.8965879273    -3.2548311825
   85      C      -3.0124905535     0.2336757786    -2.9095994579
   86      C      -3.8514991368    -3.0771495706    -3.6165090028
   87      C      -2.9745319013     0.7422778827     1.4526936363
   88      C      -1.1116679664    -1.5797567232    -0.4150499888
   89      O      10.8992415589    -4.4282165659    -1.6545538807
   90      C      11.3904792404    -4.8693219062    -2.9280858273
   91      H      12.4682924167    -4.7841709266    -3.1127424484
   92      H      11.0077895704    -4.1173792949    -3.6297466612
   93      H      10.9609450762    -5.8067686399    -3.3033937320
   94      O      11.7345214312    -2.2978928523    -1.8568764212
   95      C      11.1613619311    -3.1804598693    -1.1996636338
   96      C      10.6026959777    -3.0313613882     0.1626344230
   97      H      10.7010116507    -1.9514129610     0.3260707194
   98      H      11.2496962586    -3.5092244183     0.9085590579
   99      C       9.0323202693    -3.2690992926     0.2257123358
  100      H       8.5411328399    -2.8817389606    -0.6758484676
  101      H       8.8177251645    -4.3439321533     0.2661630785
  102      C       8.4003130117    -2.5814207598     1.4438314031
  103      H       8.8154561633    -3.1265778529     2.3008225977
  104      H       8.9041983558    -1.6111970293     1.5386547796
  105      C       6.8598114228    -2.4450557256     1.3435247135
  106      C       6.1877511743    -3.7589606983     1.6643326704
  107      C       5.9782476945    -4.1261101504     3.0062680532
  108      H       5.9578138318    -3.4921581179     3.8882659431
  109      C       5.3444185607    -5.3414365685     3.2473662212
  110      H       5.0233708442    -5.5780095174     4.2583081600
  111      C       5.2072418304    -6.2578534569     2.2392156216
  112      H       4.9478707664    -7.2823565575     2.4879042781
  113      C       5.4339675402    -5.9039703887     0.9028836170
  114      H       5.2751740514    -6.6233157153     0.1050910819
  115      C       5.9296129191    -4.6102459507     0.6617659344
  116      H       6.0511464485    -4.2206148095    -0.3451412982
  117      C       2.8024854887    -0.4986619732    -1.7849795018
  118      C       1.9657600736    -0.1946957229     0.4805842466
  119      C       2.2723531726     4.3562908558     0.7445176332
  120      C       7.3064978632     1.7906647094    -2.0751705962
  121      C       5.2622508638     4.3226483577     2.6510424766
  122      C       2.7055628258    -0.9220089475    -0.4745305953
  123      C       7.3960365127     3.9585663017    -0.2608794078
  124      C       1.5490529285     2.8987655994    -1.0874569528
  125      C       4.9385327717     0.3279227987     3.1638731551
  126      C       7.8934677032     1.7332154556    -0.8250450064
  127      C       6.2886581493    -1.1475638700     1.8506399102
  128      C       6.1294496606     0.9493127560     3.0805935973
  129      C       7.9137040422     2.3408025702     1.3422134896
  130      C       6.6399192361     4.7022596195     0.6721553788
  131      C       3.7497391491    -1.0737177479     1.5303899133
  132      C       4.3286791708     5.3492276811     0.6642378091
  133      C       6.2919994775    -1.4453492122     0.3390375400
  134      C       7.1088962468    -0.5570872334    -0.5773310133
  135      C       4.1925859877     4.8680485863     2.0159797683
  136      C       4.3966444197     3.5397663648    -2.9677714791
  137      C       3.2009113458     4.7065533238    -1.4472184190
  138      C       2.3599982384     3.6241774561    -1.9388530666
  139      C       1.4230752868     1.5132080141    -1.1852056703
  140      C       6.4101046813    -0.4270075772    -1.8261427008
  141      C       4.9249471116    -0.8222968294     2.3120156335
  142      C       1.2623208423     0.9846223597     0.1258123366
  143      C       7.9961666775     2.7789416463     0.0733951166
  144      C       2.5956130119    -0.3545133840     1.6677832995
  145      C       6.2484794779     2.3472345615     3.1479473515
  146      C       5.4673853992     1.3002225909    -3.2653054093
  147      C       1.4854286992     3.2722156574     0.2745933442
  148      C       6.9347057114     0.1888246624     2.1548606164
  149      C       3.0170970230     1.5095729680    -2.9218068021
  150      C       7.0657335501     2.9856545113     2.2575178208
  151      C       3.7989117304     1.1078191231     3.2890154955
  152      C       5.6339458092     4.9319534081    -1.3405033672
  153      C       6.7191937850     4.0623586923    -1.5016146985
  154      C       3.8723144941     2.4883447308     3.4122310817
  155      C       6.5759289397     0.7534333388    -2.5941938443
  156      C       7.7437201949     0.5921865199    -0.0941184359
  157      C       5.5393611595     2.7114452971    -3.2045850373
  158      C       5.0434333709    -1.6345969515    -0.4857399880
  159      C       1.9891473901     1.9443167406     2.2020777013
  160      C       7.7398745399     0.9683420262     1.2512225046
  161      C       5.0700210385     3.1526777959     3.3512178680
  162      C       4.1793990164     0.7260364184    -3.0738809670
  163      C       2.9501381432     4.1796433665     1.9904727681
  164      C       2.1713778239     0.7453372156    -2.0975673035
  165      C       3.1700372365     5.0433862259    -0.0465855673
  166      C       2.6404466104     0.7151143344     2.5604514868
  167      C       2.7757392172     3.0025987868     2.7147524599
  168      C       3.7951254138    -1.5554684862     0.2007022383
  169      C       5.1521900935    -1.0567839596    -1.7677423756
  170      C       4.4663707165     4.6034332148    -2.0283077619
  171      C       1.3589656913     2.0847019639     1.0130697049
  172      C       6.4889957216     4.2489094163     1.9747484411
  173      C       6.6941898603     2.9850724718    -2.4737192212
  174      C       5.5433805932     5.2174836255    -0.0263517638
  175      C       3.9891126677    -0.5080703008    -2.4098134170
  176      C       3.1325632440     2.9369150967    -2.9094780001
 ----------------------------------------------------------------

    9   -5804.2243752936      9.81E-06 Convergence criterion met
 Total energy in the final basis set = -5804.2243752936

                    Orbital Energies (a.u.)
 --------------------------------------------------------------

 Alpha MOs
 -- Occupied --
-19.199 -19.193 -19.142 -19.132 -10.325 -10.315 -10.256 -10.243
-10.243 -10.241 -10.240 -10.232 -10.232 -10.229 -10.228 -10.228
-10.227 -10.226 -10.222 -10.222 -10.220 -10.220 -10.219 -10.219
-10.217 -10.215 -10.215 -10.215 -10.214 -10.214 -10.214 -10.214
-10.214 -10.214 -10.213 -10.213 -10.213 -10.213 -10.213 -10.213
-10.213 -10.213 -10.213 -10.212 -10.212 -10.212 -10.212 -10.212
-10.212 -10.211 -10.211 -10.211 -10.211 -10.211 -10.211 -10.211
-10.211 -10.211 -10.211 -10.210 -10.210 -10.210 -10.210 -10.210
-10.210 -10.210 -10.210 -10.210 -10.209 -10.209 -10.209 -10.209
-10.209 -10.209 -10.208 -10.208 -10.208 -10.208 -10.208 -10.208
-10.208 -10.208 -10.208 -10.208 -10.208 -10.207 -10.207 -10.207
-10.207 -10.207 -10.206 -10.206 -10.206 -10.206 -10.206 -10.206
-10.205 -10.205 -10.205 -10.205 -10.205 -10.205 -10.205 -10.205
-10.205 -10.205 -10.205 -10.204 -10.204 -10.204 -10.204 -10.204
-10.204 -10.204 -10.204 -10.203 -10.203 -10.203 -10.202 -10.202
-10.202 -10.202 -10.202 -10.201 -10.201 -10.201 -10.201 -10.201
-10.200 -10.200 -10.200 -10.200 -10.199 -10.198 -10.198 -10.198
-10.198 -10.197 -10.197 -10.197 -10.197 -10.196 -10.196 -10.195
-10.194 -10.193 -10.193 -10.193  -1.092  -1.091  -1.008  -0.999
 -0.982  -0.979  -0.965  -0.962  -0.960  -0.959  -0.958  -0.955
 -0.933  -0.932  -0.926  -0.925  -0.922  -0.922  -0.921  -0.917
 -0.915  -0.915  -0.895  -0.894  -0.889  -0.883  -0.880  -0.880
 -0.876  -0.872  -0.859  -0.857  -0.840  -0.837  -0.836  -0.836
 -0.834  -0.829  -0.818  -0.817  -0.803  -0.803  -0.796  -0.794
 -0.792  -0.791  -0.791  -0.788  -0.788  -0.784  -0.782  -0.779
 -0.771  -0.767  -0.765  -0.765  -0.764  -0.762  -0.760  -0.759
 -0.759  -0.754  -0.747  -0.744  -0.731  -0.730  -0.715  -0.712
 -0.711  -0.710  -0.709  -0.708  -0.707  -0.706  -0.706  -0.705
 -0.704  -0.703  -0.702  -0.700  -0.699  -0.695  -0.674  -0.670
 -0.658  -0.655  -0.654  -0.649  -0.645  -0.643  -0.632  -0.626
 -0.625  -0.622  -0.621  -0.621  -0.619  -0.618  -0.616  -0.613
 -0.613  -0.612  -0.610  -0.609  -0.607  -0.606  -0.605  -0.605
 -0.603  -0.602  -0.601  -0.596  -0.573  -0.566  -0.564  -0.561
 -0.559  -0.557  -0.557  -0.553  -0.553  -0.551  -0.551  -0.548
 -0.538  -0.534  -0.529  -0.526  -0.523  -0.523  -0.521  -0.519
 -0.518  -0.515  -0.515  -0.514  -0.514  -0.512  -0.511  -0.507
 -0.505  -0.503  -0.498  -0.495  -0.490  -0.490  -0.486  -0.484
 -0.481  -0.480  -0.479  -0.479  -0.478  -0.475  -0.475  -0.472
 -0.470  -0.469  -0.468  -0.468  -0.465  -0.464  -0.464  -0.462
 -0.462  -0.460  -0.460  -0.459  -0.459  -0.458  -0.456  -0.455
 -0.454  -0.453  -0.451  -0.449  -0.448  -0.447  -0.444  -0.443
 -0.439  -0.439  -0.438  -0.436  -0.436  -0.434  -0.432  -0.432
 -0.430  -0.430  -0.427  -0.425  -0.424  -0.424  -0.423  -0.422
 -0.421  -0.418  -0.418  -0.417  -0.415  -0.415  -0.414  -0.413
 -0.413  -0.412  -0.411  -0.410  -0.410  -0.409  -0.408  -0.408
 -0.407  -0.407  -0.406  -0.403  -0.398  -0.396  -0.395  -0.393
 -0.392  -0.390  -0.389  -0.385  -0.385  -0.384  -0.382  -0.378
 -0.373  -0.373  -0.371  -0.369  -0.368  -0.367  -0.365  -0.363
 -0.361  -0.360  -0.359  -0.358  -0.357  -0.356  -0.356  -0.355
 -0.354  -0.354  -0.353  -0.352  -0.352  -0.351  -0.350  -0.349
 -0.347  -0.346  -0.345  -0.343  -0.343  -0.342  -0.341  -0.340
 -0.337  -0.337  -0.336  -0.335  -0.334  -0.331  -0.330  -0.329
 -0.329  -0.327  -0.325  -0.325  -0.324  -0.321  -0.319  -0.316
 -0.316  -0.310  -0.306  -0.293  -0.281  -0.280  -0.275  -0.268
 -0.268  -0.267  -0.265  -0.265  -0.263  -0.262  -0.261  -0.260
 -0.259  -0.257  -0.257  -0.254  -0.253  -0.252  -0.251  -0.250
 -0.249  -0.245  -0.244  -0.234  -0.218  -0.217  -0.208  -0.206
 -0.204  -0.201  -0.199  -0.197  -0.196  -0.195

          Ground-State Mulliken Net Atomic Charges

     Atom                 Charge (a.u.)
  ----------------------------------------
      1 O                    -0.466551
      2 C                    -0.088360
      3 H                     0.140853
      4 H                     0.130014
      5 H                     0.138090
      6 O                    -0.475243
      7 C                     0.598612
      8 C                    -0.265973
      9 H                     0.132838
     10 H                     0.131004
     11 C                    -0.187202
     12 H                     0.120642
     13 H                     0.108432
     14 C                    -0.177543
     15 H                     0.107490
     16 H                     0.115090
     17 C                     0.012834
     18 C                     0.072348
     19 C                    -0.098940
     20 H                     0.094469
     21 C                    -0.077686
     22 H                     0.093450
     23 C                    -0.094850
     24 H                     0.085871
     25 C                    -0.089828
     26 H                     0.093374
     27 C                    -0.098976
     28 H                     0.098031
     29 C                    -0.028107
     30 C                    -0.010872
     31 C                    -0.034832
     32 C                    -0.010093
     33 C                     0.023322
     34 C                     0.005773
     35 C                     0.009518
     36 C                    -0.003137
     37 C                     0.005193
     38 C                    -0.019027
     39 C                    -0.099865
     40 C                     0.010057
     41 C                     0.000321
     42 C                    -0.069515
     43 C                     0.021364
     44 C                     0.012850
     45 C                    -0.061909
     46 C                     0.073950
     47 C                    -0.001461
     48 C                    -0.024241
     49 C                     0.001630
     50 C                    -0.017333
     51 C                     0.010721
     52 C                    -0.004879
     53 C                     0.035708
     54 C                    -0.005546
     55 C                     0.020258
     56 C                    -0.015096
     57 C                    -0.007443
     58 C                     0.013435
     59 C                     0.007915
     60 C                    -0.002324
     61 C                     0.011432
     62 C                     0.009648
     63 C                    -0.010637
     64 C                     0.038081
     65 C                    -0.011975
     66 C                     0.009180
     67 C                    -0.009214
     68 C                     0.026192
     69 C                    -0.004989
     70 C                    -0.013615
     71 C                    -0.029539
     72 C                    -0.015515
     73 C                    -0.024019
     74 C                    -0.017882
     75 C                    -0.005047
     76 C                     0.003588
     77 C                     0.000886
     78 C                    -0.001909
     79 C                     0.023734
     80 C                     0.012515
     81 C                     0.002267
     82 C                    -0.003378
     83 C                    -0.005728
     84 C                     0.007283
     85 C                    -0.004159
     86 C                    -0.002771
     87 C                     0.005545
     88 C                     0.024444
     89 O                    -0.448334
     90 C                    -0.093885
     91 H                     0.131183
     92 H                     0.126707
     93 H                     0.125798
     94 O                    -0.484791
     95 C                     0.590339
     96 C                    -0.262334
     97 H                     0.135692
     98 H                     0.133389
     99 C                    -0.190908
    100 H                     0.111909
    101 H                     0.123024
    102 C                    -0.185097
    103 H                     0.113496
    104 H                     0.107855
    105 C                     0.008460
    106 C                     0.102491
    107 C                    -0.110364
    108 H                     0.096953
    109 C                    -0.085401
    110 H                     0.089723
    111 C                    -0.079219
    112 H                     0.087265
    113 C                    -0.095319
    114 H                     0.095948
    115 C                    -0.101017
    116 H                     0.092846
    117 C                     0.004932
    118 C                     0.047963
    119 C                     0.002138
    120 C                    -0.001856
    121 C                     0.012453
    122 C                    -0.002143
    123 C                    -0.000833
    124 C                     0.032282
    125 C                    -0.006530
    126 C                     0.036637
    127 C                    -0.094805
    128 C                    -0.000209
    129 C                    -0.013146
    130 C                    -0.012976
    131 C                     0.017425
    132 C                    -0.005074
    133 C                    -0.084295
    134 C                     0.017795
    135 C                    -0.010551
    136 C                     0.012342
    137 C                    -0.020037
    138 C                    -0.023012
    139 C                    -0.006896
    140 C                    -0.015678
    141 C                     0.045130
    142 C                    -0.029219
    143 C                     0.005180
    144 C                    -0.002392
    145 C                    -0.011461
    146 C                    -0.007781
    147 C                     0.000702
    148 C                     0.018494
    149 C                     0.014615
    150 C                     0.022034
    151 C                     0.002303
    152 C                    -0.009176
    153 C                    -0.006913
    154 C                     0.016437
    155 C                     0.001530
    156 C                     0.018501
    157 C                    -0.017599
    158 C                     0.013395
    159 C                    -0.004728
    160 C                    -0.026586
    161 C                    -0.007483
    162 C                    -0.002553
    163 C                    -0.004408
    164 C                    -0.015751
    165 C                    -0.002771
    166 C                    -0.022900
    167 C                    -0.015514
    168 C                    -0.037546
    169 C                     0.018065
    170 C                     0.016821
    171 C                     0.011392
    172 C                    -0.012642
    173 C                    -0.008754
    174 C                     0.029280
    175 C                     0.002490
    176 C                    -0.015572
  ----------------------------------------
  Sum of atomic charges =     0.000000

                    Cartesian Multipole Moments
 -----------------------------------------------------------------
    Charge (ESU x 10^10)
                 0.0000
    Dipole Moment (Debye)
         X      -3.8296      Y      -0.0302      Z       1.9524
       Tot       4.2987
    Quadrupole Moments (Debye-Ang)
        XX    -774.8843     XY     -62.9457     YY    -772.0671
        XZ       7.5052     YZ      -5.3589     ZZ    -790.0357

 Total job time:  837.49s(wall), 7029.09s(cpu)
        *  Thank you very much for using Q-Chem.  Have a nice day.  *
