 Q-Chem 4.4, Q-Chem, Inc., Pleasanton, CA (2016)
 Q-Chem 4.4.2 for Intel X86 Linux

User input:
--------------------------------------------------------------
$comment
SP
$end

$rem
MEM_STATIC 5000
MEM_TOTAL 20000
JOBTYPE SP
EXCHANGE B3LYP
BASIS 6-31g(d,p)
$end

$molecule
0 1
O          11.388000    -20.278000     -9.672000
C          11.540000    -18.800000     -9.751000
H          12.281000    -18.557000    -10.523000
H          12.019000    -18.418000     -8.841000
H          10.567000    -18.323000     -9.923000
O          11.418000    -20.710000    -11.958000
C          11.356000    -21.053000    -10.796000
C          11.159000    -22.507000    -10.420000
H          10.624000    -22.956000    -11.266000
H          10.405000    -22.453000     -9.625000
C          12.475000    -23.246000     -9.997000
H          13.000000    -23.658000    -10.868000
H          13.176000    -22.606000     -9.449000
C          12.134000    -24.336000     -8.934000
H          11.063000    -24.551000     -9.033000
H          12.743000    -25.204000     -9.218000
C          12.402000    -23.972000     -7.469000
C          11.622000    -22.699000     -7.049000
C          10.231000    -22.730000     -6.705000
H           9.704000    -23.678000     -6.654000
C           9.506000    -21.550000     -6.353000
H           8.439000    -21.618000     -6.159000
C          10.182000    -20.370000     -6.185000
H           9.573000    -19.500000     -5.957000
C          11.566000    -20.294000     -6.418000
H          12.062000    -19.353000     -6.198000
C          12.263000    -21.462000     -6.920000
H          13.302000    -21.477000     -7.235000
C          16.221000    -23.411000     -3.611000
C          14.292000    -24.171000     -2.373000
C          15.848000    -28.267000     -1.281000
C          17.297000    -26.590000     -7.293000
C          14.093000    -29.726000     -3.935000
C          14.818000    -23.402000     -3.412000
C          16.567000    -29.190000     -6.500000
C          17.025000    -26.155000     -1.253000
C          12.034000    -26.424000     -4.626000
C          16.102000    -27.127000     -7.755000
C          12.629000    -25.127000     -6.523000
C          12.241000    -27.294000     -5.712000
C          14.333000    -28.453000     -7.194000
C          16.011000    -29.829000     -5.423000
C          12.881000    -24.287000     -4.107000
C          16.326000    -29.613000     -3.073000
C          13.784000    -24.232000     -6.874000
C          14.952000    -24.962000     -7.610000
C          14.955000    -29.667000     -2.848000
C          18.854000    -26.757000     -4.181000
C          18.021000    -27.993000     -2.460000
C          18.067000    -26.694000     -2.044000
C          16.508000    -24.871000     -1.650000
C          16.176000    -24.422000     -7.053000
C          12.267000    -25.134000     -5.026000
C          15.140000    -24.835000     -1.442000
C          15.702000    -28.430000     -7.346000
C          13.052000    -24.708000     -2.742000
C          12.750000    -28.591000     -5.380000
C          18.129000    -25.115000     -5.838000
C          15.871000    -26.911000     -0.851000
C          12.709000    -26.568000     -6.812000
C          18.114000    -24.558000     -3.381000
C          13.802000    -29.186000     -6.167000
C          12.123000    -26.860000     -3.246000
C          17.941000    -28.927000     -4.688000
C          17.764000    -28.569000     -5.994000
C          12.617000    -28.137000     -2.914000
C          17.335000    -25.264000     -6.976000
C          14.921000    -26.363000     -7.890000
C          18.710000    -26.381000     -5.520000
C          14.496000    -23.470000     -5.836000
C          13.504000    -26.707000     -1.424000
C          13.840000    -27.147000     -7.444000
C          12.984000    -28.946000     -3.969000
C          17.811000    -24.250000     -4.761000
C          14.678000    -28.826000     -1.731000
C          17.006000    -24.077000     -2.648000
C          16.841000    -28.771000     -2.108000
C          12.705000    -25.957000     -2.309000
C          13.485000    -28.048000     -1.772000
C          13.956000    -23.473000     -4.515000
C          15.908000    -23.459000     -6.046000
C          18.517000    -28.052000     -3.760000
C          14.715000    -26.151000     -1.038000
C          14.579000    -29.858000     -5.197000
C          18.119000    -27.248000     -6.380000
C          16.889000    -29.771000     -4.318000
C          16.745000    -23.470000     -4.888000
C          18.574000    -25.876000     -3.113000
O          28.195000    -30.547000     -7.107000
C          29.301000    -30.753000     -7.997000
H          30.166000    -31.306000     -7.611000
H          29.737000    -29.752000     -8.107000
H          29.037000    -31.028000     -9.026000
O          29.444000    -29.491000     -5.494000
C          28.373000    -29.973000     -5.894000
C          27.084000    -29.961000     -5.167000
H          27.315000    -29.309000     -4.316000
H          26.863000    -30.947000     -4.740000
C          25.939000    -29.169000     -5.934000
H          26.349000    -28.294000     -6.454000
H          25.489000    -29.811000     -6.701000
C          24.843000    -28.682000     -4.976000
H          24.373000    -29.607000     -4.619000
H          25.362000    -28.339000     -4.072000
C          23.930000    -27.590000     -5.589000
C          22.918000    -28.207000     -6.525000
C          21.740000    -28.773000     -6.004000
H          21.271000    -28.597000     -5.040000
C          20.835000    -29.318000     -6.910000
H          19.850000    -29.614000     -6.559000
C          21.215000    -29.555000     -8.204000
H          20.602000    -30.201000     -8.825000
C          22.397000    -29.011000     -8.723000
H          22.666000    -29.163000     -9.764000
C          23.231000    -28.324000     -7.823000
H          24.121000    -27.796000     -8.154000
C          23.953000    -22.656000     -7.975000
C          21.885000    -22.654000     -6.691000
C          23.086000    -19.701000     -3.418000
C          27.732000    -23.751000     -4.792000
C          23.714000    -22.213000     -0.995000
C          22.857000    -23.322000     -7.464000
C          27.079000    -22.858000     -2.189000
C          23.517000    -19.688000     -5.830000
C          22.100000    -25.013000     -3.420000
C          27.226000    -24.565000     -3.796000
C          23.533000    -26.477000     -4.656000
C          23.108000    -25.289000     -2.572000
C          25.873000    -24.851000     -2.020000
C          26.116000    -22.161000     -1.426000
C          22.098000    -24.734000     -5.863000
C          24.761000    -20.255000     -1.966000
C          24.521000    -26.199000     -5.805000
C          25.937000    -25.781000     -5.464000
C          23.595000    -20.951000     -1.483000
C          26.890000    -20.401000     -5.418000
C          25.333000    -19.320000     -4.189000
C          24.841000    -19.403000     -5.557000
C          23.142000    -20.561000     -6.851000
C          26.387000    -24.846000     -6.458000
C          22.391000    -25.544000     -4.717000
C          21.976000    -21.262000     -6.435000
C          26.934000    -24.179000     -2.501000
C          21.425000    -23.547000     -5.784000
C          23.503000    -24.393000     -1.565000
C          27.225000    -22.563000     -6.628000
C          22.614000    -19.826000     -4.751000
C          24.094000    -26.031000     -3.321000
C          25.417000    -20.995000     -7.290000
C          24.836000    -24.161000     -1.371000
C          21.461000    -23.788000     -3.303000
C          26.926000    -20.715000     -2.965000
C          27.531000    -21.958000     -3.186000
C          21.782000    -22.894000     -2.291000
C          27.344000    -23.862000     -6.102000
C          26.316000    -25.519000     -4.143000
C          27.597000    -21.626000     -5.636000
C          24.226000    -25.285000     -6.968000
C          21.246000    -21.710000     -4.193000
C          25.465000    -25.687000     -3.048000
C          22.790000    -23.151000     -1.398000
C          26.089000    -22.228000     -7.417000
C          22.612000    -20.655000     -2.465000
C          24.079000    -21.277000     -7.620000
C          24.415000    -19.517000     -3.096000
C          21.105000    -23.106000     -4.501000
C          21.681000    -21.617000     -2.850000
C          22.938000    -24.672000     -7.000000
C          25.350000    -24.526000     -7.355000
C          26.552000    -19.995000     -4.099000
C          21.702000    -20.830000     -5.114000
C          24.982000    -22.812000     -0.962000
C          27.918000    -22.391000     -4.516000
C          26.016000    -20.883000     -1.985000
C          25.175000    -23.201000     -7.884000
C          25.856000    -20.058000     -6.300000
$end

--------------------------------------------------------------

             Standard Nuclear Orientation (Angstroms)
    I     Atom           X                Y                Z
 ----------------------------------------------------------------
    1      O       8.3485699362     5.4016584537     3.1113803480
    2      C       8.1365045427     6.8713616052     3.0174127191
    3      H       7.4594982058     7.1875601874     3.8210263553
    4      H       7.5584596486     7.1151975381     2.1174832006
    5      H       9.0981859733     7.3993718687     3.0321092416
    6      O       8.5496263522     5.2701739093     5.4255990352
    7      C       8.5198756745     4.7811152162     4.3157911726
    8      C       8.7481842809     3.2980527743     4.1091466138
    9      H       9.3791139896     2.9813905245     4.9489053424
   10      H       9.4223005679     3.2736007629     3.2440302455
   11      C       7.4342525782     2.4661303768     3.9132011999
   12      H       7.0114396271     2.1534862034     4.8762654912
   13      H       6.6569015656     3.0052299128     3.3596652088
   14      C       7.7256022545     1.2591988138     2.9683300084
   15      H       8.8099396070     1.0953141889     2.9888564709
   16      H       7.1860954418     0.4154351632     3.4177254924
   17      C       7.3070413449     1.4200913434     1.5022245010
   18      C       7.9854052277     2.6532601135     0.8507291235
   19      C       9.3386647156     2.6248685601     0.3794959773
   20      H       9.9018687234     1.6966940037     0.3975857164
   21      C       9.9728870160     3.7728725023    -0.1877588351
   22      H      11.0194252966     3.7163718401    -0.4746635271
   23      C       9.2305667665     4.8973813265    -0.4368382432
   24      H       9.7751495021     5.7504172114    -0.8312040926
   25      C       7.8719504208     4.9561503128    -0.0815512726
   26      H       7.3148936029     5.8431580180    -0.3693046956
   27      C       7.2788685453     3.8405135015     0.6295362004
   28      H       6.2751758451     3.8314693597     1.0436499130
   29      C       3.1264973911     1.3443924649    -2.0050490740
   30      C       4.9660022623     0.4954616675    -3.3191355743
   31      C       3.5064395071    -3.7581716415    -3.7279096398
   32      C       2.5426660086    -1.3628110994     2.1363432979
   33      C       5.5642992450    -4.7989586242    -1.0945851713
   34      C       4.5032298460     1.3749207292    -2.3393644533
   35      C       3.3155009746    -4.0176933141     1.6109143860
   36      C       2.2357281361    -1.7088757157    -3.9077312734
   37      C       7.5237903608    -1.3672774940    -1.0303575468
   38      C       3.7986935028    -1.7943119105     2.5438233392
   39      C       7.0472177734     0.1447451908     0.7364217178
   40      C       7.4582460626    -2.0949988366     0.1718365276
   41      C       5.5676363102    -3.1213813549     1.9851767302
   42      C       3.7986105548    -4.7722649683     0.5742790827
   43      C       6.5348511970     0.6540464146    -1.7302060926
   44      C       3.2584509398    -4.8748336197    -1.7422027891
   45      C       5.8894960745     1.0381880240     1.0823861263
   46      C       4.8293220602     0.3710818140     2.0150277316
   47      C       4.6038602991    -4.9112013634    -2.0911054163
   48      C       0.7144747395    -1.9861646254    -0.7629374862
   49      C       1.4412066621    -3.4067683877    -2.3868745734
   50      C       1.2971484337    -2.1752903107    -2.9572095389
   51      C       2.7273880101    -0.3673523501    -3.7284559877
   52      C       3.5355435346     0.7922055169     1.5162121811
   53      C       7.2694526931    -0.0448192450    -0.7757882429
   54      C       4.0672313657    -0.3124265493    -4.0716570056
   55      C       4.2189089664    -3.1251676884     2.2657372689
   56      C       6.2582067706     0.0533776330    -3.0078491868
   57      C       6.9811418383    -3.4406710137     0.0575913920
   58      C       1.5127969257    -0.1188162701     0.5946816824
   59      C       3.3813375832    -2.4712552735    -4.3215094801
   60      C       7.0607769600    -1.2482432503     1.2116073146
   61      C       1.2752740261     0.1137623292    -1.9026795384
   62      C       6.0348291403    -3.9634360492     1.0122153993
   63      C       7.3280158373    -1.9819855379    -2.3289041792
   64      C       1.7694762391    -4.0395155271    -0.0771970760
   65      C       2.0495492595    -3.5087518982     1.1495784021
   66      C       6.8649091398    -3.3073314726    -2.4471384390
   67      C       2.4144563912    -0.0914190731     1.6595481538
   68      C       4.9506134519    -0.9796824926     2.4654566232
   69      C       0.9639392041    -1.4343861132     0.4973565090
   70      C       5.0503555099     1.6340150419     0.0307848342
   71      C       5.7791789170    -2.1143468953    -4.0123051016
   72      C       6.0208431541    -1.7780081166     2.0188946648
   73      C       6.6345443196    -3.9840619194    -1.2676627284
   74      C       1.6898100852     0.6088815598    -0.6088133154
   75      C       4.7375076173    -4.2138814300    -3.3270594223
   76      C       2.2875293048     0.5324901720    -2.7950473125
   77      C       2.6183064652    -4.1835581175    -2.7510472923
   78      C       6.6209995846    -1.2288884283    -3.3112863666
   79      C       5.8920426954    -3.3972103179    -3.5011601061
   80      C       5.4656988666     1.4773555116    -1.3255328600
   81      C       3.6647638315     1.6244322288     0.3743090264
   82      C       1.0705499633    -3.3127890424    -1.0477410871
   83      C       4.5133744394    -1.6546665356    -4.3456007534
   84      C       5.2034490699    -4.7819241640     0.2152854247
   85      C       1.6711408331    -2.1615299307     1.3982991957
   86      C       2.8206419170    -4.8883838563    -0.4383248613
   87      C       2.7258674728     1.4344292244    -0.6858921271
   88      C       0.8537833399    -1.2427275375    -1.9558664071
   89      O      -8.1318411726    -5.6771559288     3.5148113354
   90      C      -9.1403011702    -5.8028763243     4.5272217341
   91      H     -10.0108034892    -6.4303978479     4.3003463277
   92      H      -9.6099901920    -4.8114205110     4.5518102086
   93      H      -8.7700615752    -5.9324743166     5.5520578199
   94      O      -9.5717417357    -4.8830452112     1.9107600467
   95      C      -8.4473110958    -5.2723171015     2.2621688279
   96      C      -7.2328370714    -5.3114152505     1.4173503984
   97      H      -7.5712131287    -4.7839530728     0.5173774571
   98      H      -7.0069480471    -6.3365580003     1.0988814183
   99      C      -6.0596899672    -4.3879820699     1.9628547821
  100      H      -6.4598680918    -3.4671242343     2.4055773987
  101      H      -5.5116960493    -4.9090536233     2.7572980477
  102      C      -5.0804123306    -3.9930070146     0.8487816174
  103      H      -4.6032052712    -4.9401580008     0.5674411977
  104      H      -5.6958913035    -3.7883902218    -0.0363983654
  105      C      -4.1660760319    -2.8002065934     1.2269592052
  106      C      -3.0446374338    -3.2554700285     2.1303083489
  107      C      -1.8949014669    -3.8442557899     1.5727067585
  108      H      -1.5254878869    -3.7794705179     0.5531139597
  109      C      -0.8859812675    -4.2357031085     2.4477696295
  110      H       0.0750209433    -4.5413478569     2.0426794684
  111      C      -1.1336011260    -4.3149583235     3.7921683860
  112      H      -0.4367667066    -4.8534801527     4.4271030531
  113      C      -2.2864856551    -3.7483684482     4.3509654652
  114      H      -2.4509672048    -3.7725739025     5.4240479018
  115      C      -3.2307802386    -3.2130260137     3.4569625472
  116      H      -4.1098353335    -2.6768761591     3.8037340475
  117      C      -4.1963151960     2.3987928470     2.9611366503
  118      C      -2.2579418256     2.3036553408     1.4918029469
  119      C      -3.8907899094     4.7630412090    -1.9953688709
  120      C      -8.1984008194     0.7713756197     0.3255762107
  121      C      -4.6231972894     1.9371630909    -4.0086868515
  122      C      -3.1226066216     1.7094406557     2.4340347117
  123      C      -7.8302992749     1.3395010650    -2.4205486466
  124      C      -4.0974892082     5.0753343351     0.4260816042
  125      C      -2.6648705090    -0.4670235080    -1.4182305174
  126      C      -7.7494778015    -0.1477538046    -0.6041104168
  127      C      -3.9086329727    -1.8053404794     0.1265813216
  128      C      -3.7330226960    -0.8850517424    -2.1222527477
  129      C      -6.5544119678    -0.6165409058    -2.4530661510
  130      C      -6.9750010831     1.9634492141    -3.3556960736
  131      C      -2.4502878075     0.1275526273     0.9580117858
  132      C      -5.6653033262     3.9683173379    -3.1955193207
  133      C      -4.7981426294    -1.4137453582     1.3220121359
  134      C      -6.2573354047    -1.0918953250     1.0705563730
  135      C      -4.5180005788     3.2552537964    -3.6980109045
  136      C      -7.4576278596     4.2009408077     0.4381730284
  137      C      -6.0722166203     5.1648498309    -1.0634148288
  138      C      -5.4527631673     5.2773617247     0.2495952600
  139      C      -3.5899997067     4.3558894586     1.5077693944
  140      C      -6.6563225216    -0.0512294256     1.9775209624
  141      C      -2.8101287705    -0.8342017245    -0.0423921567
  142      C      -2.4362830116     3.6465938198     1.0720510402
  143      C      -7.5963527052     0.0760365599    -1.9597488560
  144      C      -1.8429160546     1.3162725607     0.6644415659
  145      C      -4.2601742183    -0.1416706741    -3.1910772701
  146      C      -7.5794565328     2.2047704079     1.9385164921
  147      C      -3.2925227352     4.8287009704    -0.7096538231
  148      C      -4.6104147312    -1.5561924570    -1.1929980152
  149      C      -5.7923279476     3.9059355932     2.2176946288
  150      C      -5.6146649135     0.0178183088    -3.2820015290
  151      C      -2.0965768980     0.7532524587    -1.7508022192
  152      C      -7.7053377626     3.5692294104    -1.9402048882
  153      C      -8.2293846061     2.3458079016    -1.5060047990
  154      C      -2.5504925166     1.4965070212    -2.8315215475
  155      C      -7.6864537235     0.8450689306     1.5950030368
  156      C      -6.7683100256    -1.0170883096    -0.2296877760
  157      C      -8.0842374376     2.9915105837     0.8770773116
  158      C      -4.4395400507    -0.3466553673     2.3258612988
  159      C      -1.8964274487     2.9355126144    -1.1557477592
  160      C      -6.0151590371    -1.2972931243    -1.3723595795
  161      C      -3.6236739993     1.0914477284    -3.5823680528
  162      C      -6.3921535991     2.6779165479     2.5643650950
  163      C      -3.4632707258     3.7096984608    -2.8617968266
  164      C      -4.4180066082     3.7147756893     2.4487070682
  165      C      -5.2509010763     4.8584381381    -2.2069770929
  166      C      -1.6633695878     1.5970735695    -0.6890294755
  167      C      -2.4573390746     2.8380949653    -2.4508967659
  168      C      -3.1837325107     0.3085612375     2.1544681161
  169      C      -5.5568322848     0.4177601800     2.7215290061
  170      C      -7.2618855939     4.4429828660    -0.9481680578
  171      C      -2.3055829466     3.9119716277    -0.3133128513
  172      C      -5.8598495454     1.2963664175    -3.8419990558
  173      C      -8.4716049354     2.0767837509    -0.1006175504
  174      C      -6.8828884260     3.3059942011    -2.9751002033
  175      C      -5.3950562228     1.8055125190     3.0592610766
  176      C      -6.3635667344     4.6906669723     1.1647592505
 ----------------------------------------------------------------

    9   -5804.2193862755      9.15E-06 Convergence criterion met
 Total energy in the final basis set = -5804.2193862755

                    Orbital Energies (a.u.)
 --------------------------------------------------------------

 Alpha MOs
 -- Occupied --
-19.194 -19.191 -19.132 -19.130 -10.316 -10.310 -10.251 -10.246
-10.245 -10.245 -10.244 -10.244 -10.243 -10.241 -10.238 -10.236
-10.233 -10.231 -10.231 -10.230 -10.229 -10.229 -10.228 -10.226
-10.224 -10.224 -10.224 -10.224 -10.223 -10.223 -10.223 -10.223
-10.223 -10.222 -10.222 -10.222 -10.221 -10.221 -10.221 -10.221
-10.220 -10.220 -10.220 -10.220 -10.220 -10.219 -10.219 -10.219
-10.219 -10.218 -10.218 -10.217 -10.217 -10.217 -10.217 -10.217
-10.217 -10.217 -10.216 -10.216 -10.216 -10.216 -10.216 -10.216
-10.216 -10.216 -10.215 -10.215 -10.215 -10.215 -10.215 -10.215
-10.215 -10.215 -10.215 -10.215 -10.215 -10.215 -10.214 -10.214
-10.214 -10.214 -10.214 -10.214 -10.214 -10.214 -10.214 -10.214
-10.213 -10.213 -10.213 -10.213 -10.213 -10.213 -10.213 -10.213
-10.212 -10.212 -10.212 -10.212 -10.212 -10.212 -10.212 -10.211
-10.211 -10.211 -10.211 -10.211 -10.211 -10.210 -10.210 -10.210
-10.210 -10.209 -10.209 -10.209 -10.209 -10.208 -10.208 -10.208
-10.208 -10.208 -10.207 -10.207 -10.207 -10.207 -10.206 -10.206
-10.206 -10.205 -10.204 -10.204 -10.204 -10.203 -10.203 -10.202
-10.201 -10.201 -10.200 -10.199 -10.199 -10.199 -10.199 -10.196
-10.195 -10.192 -10.192 -10.189  -1.092  -1.081  -1.007  -1.000
 -0.987  -0.983  -0.968  -0.967  -0.966  -0.965  -0.962  -0.960
 -0.938  -0.933  -0.931  -0.928  -0.928  -0.927  -0.927  -0.924
 -0.923  -0.917  -0.899  -0.896  -0.894  -0.891  -0.891  -0.881
 -0.876  -0.873  -0.859  -0.852  -0.848  -0.842  -0.841  -0.840
 -0.838  -0.838  -0.823  -0.819  -0.804  -0.804  -0.803  -0.801
 -0.798  -0.797  -0.796  -0.794  -0.793  -0.790  -0.786  -0.783
 -0.778  -0.772  -0.771  -0.769  -0.768  -0.767  -0.764  -0.764
 -0.753  -0.747  -0.747  -0.742  -0.735  -0.732  -0.720  -0.718
 -0.717  -0.716  -0.716  -0.714  -0.712  -0.712  -0.711  -0.710
 -0.708  -0.706  -0.706  -0.704  -0.702  -0.700  -0.676  -0.676
 -0.662  -0.661  -0.660  -0.656  -0.649  -0.646  -0.637  -0.633
 -0.633  -0.625  -0.625  -0.624  -0.622  -0.621  -0.621  -0.619
 -0.618  -0.616  -0.616  -0.615  -0.614  -0.610  -0.610  -0.608
 -0.607  -0.604  -0.603  -0.603  -0.573  -0.567  -0.566  -0.564
 -0.562  -0.561  -0.560  -0.558  -0.558  -0.556  -0.555  -0.553
 -0.539  -0.539  -0.535  -0.534  -0.532  -0.531  -0.526  -0.525
 -0.525  -0.522  -0.521  -0.520  -0.516  -0.516  -0.515  -0.513
 -0.507  -0.506  -0.496  -0.495  -0.494  -0.491  -0.490  -0.485
 -0.485  -0.482  -0.481  -0.481  -0.480  -0.479  -0.477  -0.476
 -0.474  -0.473  -0.471  -0.470  -0.469  -0.468  -0.468  -0.467
 -0.466  -0.465  -0.464  -0.463  -0.462  -0.461  -0.460  -0.458
 -0.458  -0.454  -0.454  -0.453  -0.451  -0.449  -0.449  -0.444
 -0.444  -0.442  -0.441  -0.440  -0.439  -0.438  -0.437  -0.435
 -0.433  -0.432  -0.431  -0.429  -0.429  -0.427  -0.426  -0.424
 -0.424  -0.422  -0.422  -0.421  -0.420  -0.420  -0.419  -0.418
 -0.418  -0.417  -0.416  -0.416  -0.415  -0.414  -0.414  -0.413
 -0.412  -0.411  -0.409  -0.407  -0.403  -0.401  -0.397  -0.397
 -0.394  -0.393  -0.392  -0.391  -0.391  -0.387  -0.386  -0.384
 -0.382  -0.375  -0.374  -0.372  -0.370  -0.370  -0.368  -0.367
 -0.366  -0.364  -0.362  -0.361  -0.360  -0.360  -0.360  -0.359
 -0.357  -0.357  -0.355  -0.354  -0.354  -0.353  -0.353  -0.352
 -0.350  -0.350  -0.349  -0.348  -0.347  -0.346  -0.345  -0.344
 -0.344  -0.343  -0.341  -0.339  -0.339  -0.337  -0.337  -0.334
 -0.334  -0.332  -0.331  -0.330  -0.329  -0.327  -0.325  -0.322
 -0.317  -0.314  -0.300  -0.294  -0.290  -0.282  -0.275  -0.272
 -0.271  -0.270  -0.270  -0.269  -0.266  -0.266  -0.265  -0.264
 -0.263  -0.261  -0.261  -0.259  -0.258  -0.258  -0.254  -0.251
 -0.250  -0.250  -0.247  -0.246  -0.226  -0.220  -0.218  -0.212
 -0.211  -0.209  -0.205  -0.203  -0.200  -0.197

          Ground-State Mulliken Net Atomic Charges

     Atom                 Charge (a.u.)
  ----------------------------------------
      1 O                    -0.465110
      2 C                    -0.089009
      3 H                     0.135491
      4 H                     0.122564
      5 H                     0.133004
      6 O                    -0.465811
      7 C                     0.574942
      8 C                    -0.245844
      9 H                     0.127274
     10 H                     0.130291
     11 C                    -0.190013
     12 H                     0.120982
     13 H                     0.115829
     14 C                    -0.175187
     15 H                     0.112102
     16 H                     0.102976
     17 C                    -0.002546
     18 C                     0.107050
     19 C                    -0.134819
     20 H                     0.087460
     21 C                    -0.075846
     22 H                     0.093024
     23 C                    -0.078352
     24 H                     0.089357
     25 C                    -0.092966
     26 H                     0.092041
     27 C                    -0.100852
     28 H                     0.089735
     29 C                    -0.009145
     30 C                     0.000313
     31 C                     0.003744
     32 C                     0.019898
     33 C                     0.029968
     34 C                    -0.027833
     35 C                    -0.016039
     36 C                    -0.002475
     37 C                     0.034241
     38 C                    -0.005793
     39 C                    -0.088567
     40 C                    -0.020652
     41 C                     0.018729
     42 C                    -0.003072
     43 C                    -0.019225
     44 C                     0.028407
     45 C                    -0.077615
     46 C                     0.008723
     47 C                    -0.017130
     48 C                     0.010539
     49 C                    -0.018323
     50 C                    -0.004547
     51 C                     0.033475
     52 C                    -0.004898
     53 C                     0.031462
     54 C                    -0.018638
     55 C                    -0.007731
     56 C                     0.020353
     57 C                    -0.033172
     58 C                    -0.022896
     59 C                    -0.018884
     60 C                     0.036438
     61 C                    -0.042107
     62 C                    -0.021590
     63 C                    -0.006491
     64 C                     0.021558
     65 C                    -0.045283
     66 C                    -0.022619
     67 C                    -0.000200
     68 C                    -0.009474
     69 C                    -0.010652
     70 C                     0.032077
     71 C                     0.025173
     72 C                     0.015170
     73 C                     0.025617
     74 C                     0.034389
     75 C                    -0.011042
     76 C                    -0.001614
     77 C                     0.011343
     78 C                    -0.015500
     79 C                    -0.007113
     80 C                     0.015590
     81 C                    -0.011913
     82 C                    -0.001073
     83 C                     0.007174
     84 C                     0.003896
     85 C                     0.038942
     86 C                    -0.018464
     87 C                     0.023036
     88 C                     0.013996
     89 O                    -0.447905
     90 C                    -0.093643
     91 H                     0.131255
     92 H                     0.126398
     93 H                     0.125750
     94 O                    -0.485235
     95 C                     0.590141
     96 C                    -0.262582
     97 H                     0.135540
     98 H                     0.133795
     99 C                    -0.190828
    100 H                     0.111357
    101 H                     0.123680
    102 C                    -0.185518
    103 H                     0.114536
    104 H                     0.107228
    105 C                     0.010981
    106 C                     0.100948
    107 C                    -0.115656
    108 H                     0.093753
    109 C                    -0.075698
    110 H                     0.085718
    111 C                    -0.086026
    112 H                     0.085834
    113 C                    -0.096539
    114 H                     0.093951
    115 C                    -0.101919
    116 H                     0.090499
    117 C                     0.003440
    118 C                     0.038796
    119 C                     0.002250
    120 C                    -0.000374
    121 C                     0.012708
    122 C                    -0.001024
    123 C                    -0.001238
    124 C                     0.032792
    125 C                    -0.003509
    126 C                     0.036180
    127 C                    -0.095769
    128 C                    -0.003554
    129 C                    -0.013949
    130 C                    -0.012862
    131 C                     0.018683
    132 C                    -0.003481
    133 C                    -0.085531
    134 C                     0.018822
    135 C                    -0.010053
    136 C                     0.012571
    137 C                    -0.019538
    138 C                    -0.022498
    139 C                    -0.009887
    140 C                    -0.015953
    141 C                     0.050797
    142 C                    -0.036494
    143 C                     0.005799
    144 C                     0.002798
    145 C                    -0.011125
    146 C                    -0.008273
    147 C                     0.000426
    148 C                     0.019543
    149 C                     0.014030
    150 C                     0.022833
    151 C                     0.013111
    152 C                    -0.008417
    153 C                    -0.006461
    154 C                     0.012897
    155 C                     0.001018
    156 C                     0.018796
    157 C                    -0.017383
    158 C                     0.015323
    159 C                    -0.006549
    160 C                    -0.025791
    161 C                    -0.007712
    162 C                    -0.001784
    163 C                    -0.005195
    164 C                    -0.017574
    165 C                    -0.003399
    166 C                    -0.019776
    167 C                    -0.015345
    168 C                    -0.039708
    169 C                     0.017587
    170 C                     0.016741
    171 C                     0.010162
    172 C                    -0.012232
    173 C                    -0.009873
    174 C                     0.028087
    175 C                     0.002803
    176 C                    -0.016746
  ----------------------------------------
  Sum of atomic charges =     0.000000

                    Cartesian Multipole Moments
 -----------------------------------------------------------------
    Charge (ESU x 10^10)
                 0.0000
    Dipole Moment (Debye)
         X       4.3514      Y      -0.9780      Z       0.5841
       Tot       4.4980
    Quadrupole Moments (Debye-Ang)
        XX    -821.4069     XY      19.8006     YY    -786.8971
        XZ     -26.3918     YZ     -25.7322     ZZ    -814.4379

 Total job time:  844.67s(wall), 7124.51s(cpu)
        *  Thank you very much for using Q-Chem.  Have a nice day.  *
