 Q-Chem 4.4, Q-Chem, Inc., Pleasanton, CA (2016)
 Q-Chem 4.4.2 for Intel X86 Linux

User input:
--------------------------------------------------------------
$comment
SP
$end

$rem
MEM_STATIC 5000
MEM_TOTAL 20000
JOBTYPE SP
EXCHANGE B3LYP
BASIS 6-31g(d,p)
$end

$molecule
0 1
O          -9.669000     17.734000      9.701000
C         -10.932000     18.108000      9.126000
H         -11.767000     17.969000      9.825000
H         -11.109000     17.455000      8.263000
H         -10.879000     19.143000      8.765000
O          -8.371000     19.059000      8.364000
C          -8.493000     18.281000      9.315000
C          -7.355000     17.584000     10.071000
H          -7.457000     17.912000     11.113000
H          -6.448000     18.039000      9.655000
C          -7.346000     16.018000      9.935000
H          -6.438000     15.576000     10.362000
H          -8.179000     15.678000     10.562000
C          -7.435000     15.535000      8.473000
H          -8.196000     16.104000      7.924000
H          -6.507000     15.767000      7.936000
C          -7.812000     14.101000      8.259000
C          -9.292000     13.846000      8.548000
C         -10.302000     14.153000      7.659000
H         -10.093000     14.478000      6.644000
C         -11.624000     13.815000      7.914000
H         -12.365000     13.900000      7.125000
C         -11.957000     13.108000      9.107000
H         -12.990000     12.809000      9.254000
C         -11.011000     12.854000     10.072000
H         -11.279000     12.267000     10.946000
C          -9.702000     13.329000      9.857000
H          -8.945000     13.103000     10.603000
C          -6.345000      8.841000      9.220000
C          -7.720000      8.589000      7.216000
C          -4.267000      7.940000      4.485000
C          -2.624000     12.370000      8.604000
C          -4.072000     11.193000      3.357000
C          -7.395000      9.260000      8.409000
C          -1.801000     12.325000      5.907000
C          -4.656000      6.964000      6.666000
C          -7.429000     12.037000      5.112000
C          -3.131000     13.345000      7.697000
C          -7.289000     13.281000      7.107000
C          -6.490000     13.072000      4.910000
C          -3.869000     13.693000      5.597000
C          -2.072000     11.777000      4.641000
C          -8.136000     10.911000      7.039000
C          -2.620000      9.421000      4.162000
C          -6.754000     13.006000      8.535000
C          -5.290000     13.183000      8.776000
C          -3.780000      9.837000      3.450000
C          -2.072000      8.958000      8.029000
C          -2.449000      7.913000      6.037000
C          -3.349000      7.384000      6.937000
C          -5.732000      7.194000      7.504000
C          -4.829000     12.155000      9.640000
C          -7.877000     12.145000      6.417000
C          -6.835000      7.609000      6.752000
C          -2.705000     13.308000      6.325000
C          -8.139000      9.647000      6.335000
C          -5.396000     12.873000      4.027000
C          -3.194000     10.394000      9.650000
C          -5.126000      7.221000      5.361000
C          -6.278000     13.786000      6.075000
C          -4.149000      8.251000      9.047000
C          -4.135000     13.178000      4.359000
C          -7.450000     10.834000      4.401000
C          -1.382000     10.110000      6.064000
C          -1.356000     11.347000      6.771000
C          -6.425000     10.590000      3.521000
C          -3.457000     11.771000      9.571000
C          -4.479000     13.752000      7.768000
C          -2.161000     10.163000      8.743000
C          -7.053000     11.650000      9.156000
C          -6.951000      8.596000      4.501000
C          -4.952000     13.976000      6.494000
C          -5.395000     11.602000      3.337000
C          -4.207000      9.436000      9.842000
C          -4.750000      8.852000      3.579000
C          -5.450000      7.852000      8.736000
C          -2.898000      8.148000      4.731000
C          -7.799000      9.603000      4.968000
C          -6.106000      9.186000      3.595000
C          -7.677000     10.640000      8.352000
C          -5.878000     11.189000      9.832000
C          -1.608000      8.902000      6.672000
C          -6.473000      7.589000      5.410000
C          -3.222000     12.193000      3.929000
C          -1.802000     11.364000      8.088000
C          -1.790000     10.365000      4.779000
C          -5.578000      9.834000      9.909000
C          -3.120000      8.018000      8.167000
O         -11.184000      8.192000     10.099000
C         -10.990000      9.414000      9.371000
H         -11.931000      9.670000      8.868000
H         -10.178000      9.334000      8.638000
H         -10.828000     10.254000     10.057000
O          -8.993000      8.186000     10.729000
C         -10.129000      7.743000     10.786000
C         -10.385000      6.468000     11.616000
H          -9.762000      6.726000     12.481000
H         -10.047000      5.635000     10.988000
C         -11.821000      6.309000     12.238000
H         -11.836000      5.561000     13.041000
H         -12.098000      7.279000     12.670000
C         -12.939000      5.933000     11.224000
H         -13.913000      5.991000     11.725000
H         -13.048000      6.711000     10.458000
C         -12.786000      4.578000     10.591000
C         -12.807000      3.555000     11.649000
C         -14.084000      3.268000     12.254000
H         -15.006000      3.706000     11.885000
C         -14.222000      2.243000     13.178000
H         -15.179000      1.860000     13.520000
C         -13.056000      1.501000     13.530000
H         -13.128000      0.596000     14.126000
C         -11.790000      1.894000     13.118000
H         -10.975000      1.247000     13.428000
C         -11.630000      2.929000     12.168000
H         -10.626000      3.196000     11.852000
C          -9.782000      1.422000      7.404000
C         -12.013000      0.382000      7.258000
C         -12.897000      1.612000      2.988000
C          -9.933000      6.261000      6.135000
C         -14.806000      4.385000      3.946000
C         -11.007000      1.042000      7.960000
C         -11.988000      6.654000      4.241000
C         -10.825000      0.741000      3.960000
C         -14.848000      3.149000      7.774000
C         -11.179000      6.758000      6.545000
C         -13.293000      4.279000      9.229000
C         -14.903000      4.521000      7.382000
C         -13.421000      6.666000      6.237000
C         -13.015000      5.962000      3.608000
C         -13.005000      1.864000      8.603000
C         -13.019000      3.804000      2.454000
C         -11.832000      4.412000      9.481000
C         -11.108000      5.433000      8.606000
C         -14.213000      3.379000      3.101000
C          -9.209000      3.828000      3.853000
C         -10.833000      2.755000      2.558000
C         -10.149000      1.830000      3.424000
C         -10.556000      0.359000      5.301000
C          -9.905000      4.896000      8.162000
C         -13.865000      2.999000      8.794000
C         -11.739000     -0.022000      5.926000
C         -12.227000      6.940000      5.599000
C         -13.272000      0.862000      7.660000
C         -15.241000      4.971000      6.113000
C          -8.709000      4.366000      6.096000
C         -12.228000      0.697000      3.794000
C         -13.932000      5.171000      8.186000
C          -8.844000      2.106000      5.476000
C         -14.459000      6.009000      5.500000
C         -15.028000      2.196000      6.775000
C         -11.026000      5.173000      2.878000
C         -10.750000      6.131000      3.840000
C         -15.384000      2.569000      5.452000
C          -9.382000      5.322000      6.931000
C         -11.796000      6.381000      7.761000
C          -8.944000      4.825000      4.816000
C         -11.012000      3.163000      9.151000
C         -14.065000      0.659000      5.412000
C         -13.182000      6.233000      7.563000
C         -15.395000      3.961000      5.129000
C          -8.575000      3.031000      6.473000
C         -14.129000      2.072000      3.418000
C          -9.599000      1.069000      6.060000
C         -12.198000      2.659000      2.328000
C         -14.279000      1.055000      6.703000
C         -14.665000      1.641000      4.606000
C         -11.637000      1.913000      8.811000
C          -9.831000      3.539000      8.532000
C         -10.219000      3.990000      2.846000
C         -12.807000      0.182000      5.003000
C         -14.237000      5.578000      4.198000
C          -9.703000      5.993000      4.777000
C         -12.389000      5.073000      2.696000
C          -9.160000      2.616000      7.696000
C          -9.165000      2.530000      4.183000
$end

--------------------------------------------------------------

             Standard Nuclear Orientation (Angstroms)
    I     Atom           X                Y                Z
 ----------------------------------------------------------------
    1      O      -7.7551491811    -6.4324194754    -2.2382476942
    2      C      -7.3017070849    -7.0553870818    -3.4514960722
    3      H      -6.7336120990    -7.9754195918    -3.2618773297
    4      H      -6.6313610673    -6.3489983110    -3.9556370457
    5      H      -8.1587755704    -7.2417990721    -4.1110710725
    6      O      -9.5293538816    -5.3241664666    -3.1612704181
    7      C      -8.8662388329    -5.6624785269    -2.1761854563
    8      C      -8.9921472817    -5.0945899552    -0.7570171672
    9      H      -9.2438515486    -5.9540695462    -0.1232255652
   10      H      -9.8709997032    -4.4410828607    -0.8142613688
   11      C      -7.7182024024    -4.3279264066    -0.2468951742
   12      H      -7.9039945811    -3.8138711511     0.7035707434
   13      H      -6.9847701433    -5.1148968742    -0.0338867135
   14      C      -7.2117677706    -3.2630920625    -1.2410308709
   15      H      -7.2094046065    -3.6600824871    -2.2641027248
   16      H      -7.9163444831    -2.4240337287    -1.2951582075
   17      C      -5.8177777629    -2.7555754790    -1.0324648719
   18      C      -4.7635427679    -3.7885114856    -1.4331864482
   19      C      -4.3891662021    -4.0217126085    -2.7409056165
   20      H      -4.7317107956    -3.3913337521    -3.5562685412
   21      C      -3.3577160721    -4.8948439004    -3.0582467207
   22      H      -2.9632154518    -4.9198883801    -4.0694682764
   23      C      -2.6401149413    -5.5523157578    -2.0157658461
   24      H      -1.8035610274    -6.1868397535    -2.2908219277
   25      C      -3.0236605639    -5.4311231533    -0.7009038351
   26      H      -2.4278388698    -5.8986275179     0.0780089828
   27      C      -4.1606631595    -4.6505768565    -0.4122802458
   28      H      -4.4479729375    -4.5273947210     0.6283542976
   29      C      -2.4329411535    -0.1329463404     2.4900211151
   30      C      -1.3448316190     0.3350373867     0.3529310673
   31      C      -2.7057137280     4.5679717736     0.1711692424
   32      C      -7.4364738367     1.1487008873     2.4556835016
   33      C      -5.4162552348     3.9964176614    -1.8827802791
   34      C      -2.1297266083    -0.4892625100     1.1797227800
   35      C      -7.7632294371     3.3897975825     0.7752432675
   36      C      -1.7787758189     3.3723158907     2.0611034006
   37      C      -4.2282654643     0.3521022553    -2.4906088128
   38      C      -7.8965124907     0.9655330203     1.1195933215
   39      C      -5.4057256400    -1.3412778449    -1.3534138554
   40      C      -5.6064012968     0.6423052468    -2.5919688195
   41      C      -7.6620019395     1.6487936789    -1.0143953556
   42      C      -7.1066028946     4.2417804076    -0.1300013677
   43      C      -2.9839810334    -0.8267370506    -0.8958837124
   44      C      -4.8523777131     5.2017018091     0.1483881688
   45      C      -5.5532495673    -1.7677824116     0.1289371643
   46      C      -6.5572524951    -1.0430303186     0.9652496206
   47      C      -4.4870682034     4.7132514734    -1.1375221047
   48      C      -4.9580346642     3.3395263052     3.6109740524
   49      C      -3.8049411174     4.7910681559     2.2822078850
   50      C      -2.8905094731     3.8713713634     2.7489129071
   51      C      -1.3767307449     2.0494369967     2.0967571547
   52      C      -6.0255896386    -0.8400090084     2.2659870863
   53      C      -4.1113789387    -0.8018691785    -1.7355720785
   54      C      -1.0419998091     1.6234919755     0.8080120132
   55      C      -8.0555199487     2.1164617640     0.2738341033
   56      C      -1.9245489865     0.1570084796    -0.9521817562
   57      C      -6.0421943151     1.9916510770    -2.6659706837
   58      C      -5.5431652638     0.9766687073     3.7631159385
   59      C      -1.6595651079     3.7719295473     0.7134863437
   60      C      -6.3594777462    -0.2565088006    -1.8591836058
   61      C      -3.2206187303     1.6576028733     3.6621740694
   62      C      -7.0362997322     2.4722770742    -1.9082615902
   63      C      -3.2076899331     1.3021994723    -2.5850114784
   64      C      -6.2119807076     4.5198568418     1.9681508287
   65      C      -7.2629363250     3.5608401431     2.0486074120
   66      C      -3.5669637619     2.6242262671    -2.6729231937
   67      C      -6.5068569019     0.2608727277     3.0347797920
   68      C      -7.4479646185    -0.1309204554     0.3551401954
   69      C      -5.9165087932     2.3151717220     3.6530101314
   70      C      -4.3033843695    -1.7653858878     0.9958911677
   71      C      -1.6817607446     2.5298424367    -1.3883169210
   72      C      -7.3014932851     0.2615968151    -0.9569029978
   73      C      -4.9799860477     2.9722629061    -2.7066651215
   74      C      -4.1842611831     0.6113798378     3.7903324987
   75      C      -3.1284980419     4.4269684096    -1.1277689684
   76      C      -2.1277475701     1.1784007731     2.9379358665
   77      C      -3.6799890760     5.2144541364     0.9526992167
   78      C      -2.0281534800     1.2519168186    -1.8334687912
   79      C      -2.6136128339     3.3912094198    -1.9104850969
   80      C      -3.0857614314    -1.2324640926     0.4580429170
   81      C      -4.6392823298    -1.2252516745     2.2786809369
   82      C      -5.1242874533     4.5139798922     2.8029519104
   83      C      -1.1789514832     2.7067134774    -0.0523852305
   84      C      -6.7470983820     3.7598317307    -1.4110095560
   85      C      -7.0737227388     2.4399332336     2.8495193416
   86      C      -6.1279830466     4.9481366583     0.6672915773
   87      C      -3.7148737488    -0.4936423224     3.0150032382
   88      C      -3.5911592607     2.9774835906     3.5719265916
   89      O       0.8665482346    -3.5487313899     1.0563038230
   90      C      -0.2088629313    -3.4946580436     0.1068456103
   91      H       0.1505563642    -3.9023784575    -0.8463636186
   92      H      -0.5840832819    -2.4738138642    -0.0349988465
   93      H      -1.0150532596    -4.1808054574     0.3926757717
   94      O      -0.4271715986    -2.5156046202     2.6235801454
   95      C       0.5900857748    -3.0986742882     2.2841523941
   96      C       1.7402584022    -3.2339738181     3.3033962140
   97      H       1.1321208189    -3.4811881680     4.1820154404
   98      H       2.2480464955    -2.2620349051     3.3051287853
   99      C       2.6767630650    -4.4879729864     3.1462144648
  100      H       3.2596479936    -4.6771099067     4.0567145392
  101      H       2.0304763811    -5.3568000296     2.9681524216
  102      C       3.6745206843    -4.4184927571     1.9549343841
  103      H       4.1715125723    -5.3900871716     1.8451875984
  104      H       3.1376535781    -4.3460603255     1.0007602631
  105      C       4.7143801224    -3.3384533040     2.0659754972
  106      C       5.5135488057    -3.5722890945     3.2796411178
  107      C       6.4625589487    -4.6570459899     3.2371531609
  108      H       6.6572704480    -5.2147482691     2.3265793858
  109      C       7.3369565370    -4.8822901152     4.2898349465
  110      H       8.1894257954    -5.5530985574     4.2367859385
  111      C       7.2485232863    -4.0241336069     5.4255157852
  112      H       8.0009427080    -4.0531318478     6.2081070680
  113      C       6.2115173895    -3.1129640358     5.5715903639
  114      H       6.2513714253    -2.4977452797     6.4653753145
  115      C       5.3173201502    -2.8614721609     4.5055283890
  116      H       4.5307904709    -2.1263087000     4.6471855426
  117      C       5.6720644633     1.9695454712     2.2880356359
  118      C       7.8190334673     1.0591105023     1.4868432349
  119      C       7.5131433993     2.6238724131    -2.7540537727
  120      C       1.8786934124     0.5768157549    -0.6648820750
  121      C       6.3258018246    -0.4129978872    -4.0265366859
  122      C       6.6685905420     0.9893713025     2.2691842856
  123      C       2.8323918329     0.2555656230    -3.3015405047
  124      C       6.9773746760     3.7390233105    -0.6407626543
  125      C       7.1928626977    -2.3008158477    -0.5816284448
  126      C       2.1804663845    -0.7041542806    -1.1503445777
  127      C       5.3096012649    -2.6873241733     0.8729806746
  128      C       6.1257700001    -2.6834825253    -1.4499327627
  129      C       3.5698219963    -1.9295157779    -2.4534455657
  130      C       4.0181193035     0.2823103087    -4.0279130588
  131      C       7.1327403930    -1.0664766117     1.4696899018
  132      C       5.8241807299     1.9325975533    -4.0861379178
  133      C       4.3426520397    -1.9524145567     1.7335799143
  134      C       3.1292557137    -1.3750896994     1.0079027372
  135      C       6.8354431659     0.9350893956    -4.0013100870
  136      C       3.5336171038     3.5244965971    -1.1377395883
  137      C       5.4037961739     3.7414893790    -2.5237678630
  138      C       5.7221678126     4.0438002076    -1.1523872949
  139      C       7.0749616775     3.2401536466     0.6851980674
  140      C       2.8864126628    -0.0835537340     1.4614180098
  141      C       6.7009374490    -2.2348400978     0.7536040257
  142      C       8.0449930208     2.2445682351     0.7410897609
  143      C       2.6809641646    -0.8724760379    -2.4722801882
  144      C       8.1425159182    -0.2179729497     0.9954147451
  145      C       6.0098887939    -2.3038436041    -2.7801774153
  146      C       2.7107444368     2.2147417916     0.6449314198
  147      C       7.8346361180     2.9496370402    -1.4406833606
  148      C       4.9994493878    -2.8354488719    -0.6013662611
  149      C       4.6531414371     3.4899311383     0.9784145876
  150      C       4.7378861085    -1.8599889069    -3.2799165234
  151      C       8.1146656197    -1.3818722553    -1.0760291395
  152      C       3.5360502836     2.3724726904    -3.3135093367
  153      C       2.5560231133     1.5369256751    -2.8028314236
  154      C       8.0741369467    -0.9469397778    -2.4270972972
  155      C       2.2886250011     0.8424709179     0.5922262843
  156      C       2.7936127173    -1.7030587225    -0.3580595971
  157      C       2.5282199745     2.6643430443    -0.6469081733
  158      C       4.8962708422    -0.6739393865     2.3662792589
  159      C       8.8632802391     0.7598502048    -1.0656341801
  160      C       3.7269311668    -2.4165024245    -1.1339582734
  161      C       6.9623122636    -1.3527793264    -3.2278807478
  162      C       3.7025272126     2.6421856397     1.5258222656
  163      C       7.8360277255     1.3554638421    -3.2026174903
  164      C       5.9098876227     3.0813347925     1.4684023948
  165      C       6.2839974840     3.0392714911    -3.3346172274
  166      C       8.6107351148    -0.3575057040    -0.3192899344
  167      C       8.4472516688     0.4500350558    -2.3713503828
  168      C       6.2899490743    -0.3282688109     2.2832260326
  169      C       3.9312117590     0.3187511522     2.3160352499
  170      C       4.0309065419     3.4276584458    -2.4807654955
  171      C       8.5382357556     2.0393664343    -0.5813219849
  172      C       5.0147142606    -0.7154494615    -4.0172391339
  173      C       2.0207087918     1.6912385284    -1.5055850628
  174      C       4.4163071075     1.6432640171    -4.0844150603
  175      C       4.3277005047     1.6761068296     2.3540909946
  176      C       4.5495518134     3.9068510514    -0.3520413402
 ----------------------------------------------------------------

    9   -5804.2855815194      9.62E-06 Convergence criterion met
 Total energy in the final basis set = -5804.2855815194

                    Orbital Energies (a.u.)
 --------------------------------------------------------------

 Alpha MOs
 -- Occupied --
-19.205 -19.193 -19.136 -19.135 -10.320 -10.318 -10.247 -10.243
-10.242 -10.240 -10.239 -10.239 -10.239 -10.234 -10.232 -10.231
-10.230 -10.227 -10.226 -10.225 -10.225 -10.224 -10.222 -10.222
-10.222 -10.222 -10.221 -10.221 -10.220 -10.220 -10.219 -10.219
-10.218 -10.218 -10.218 -10.218 -10.218 -10.218 -10.218 -10.217
-10.217 -10.217 -10.217 -10.217 -10.217 -10.217 -10.216 -10.216
-10.216 -10.216 -10.216 -10.216 -10.216 -10.216 -10.216 -10.215
-10.215 -10.215 -10.215 -10.215 -10.215 -10.215 -10.215 -10.215
-10.215 -10.215 -10.214 -10.214 -10.214 -10.214 -10.214 -10.213
-10.213 -10.213 -10.213 -10.213 -10.213 -10.213 -10.213 -10.213
-10.213 -10.213 -10.212 -10.212 -10.212 -10.212 -10.212 -10.212
-10.211 -10.211 -10.211 -10.211 -10.211 -10.211 -10.211 -10.211
-10.211 -10.211 -10.211 -10.210 -10.210 -10.210 -10.210 -10.210
-10.210 -10.210 -10.209 -10.209 -10.209 -10.209 -10.209 -10.209
-10.209 -10.209 -10.209 -10.208 -10.208 -10.208 -10.208 -10.208
-10.208 -10.208 -10.208 -10.208 -10.208 -10.207 -10.207 -10.207
-10.206 -10.206 -10.206 -10.205 -10.205 -10.205 -10.205 -10.205
-10.205 -10.205 -10.203 -10.203 -10.203 -10.203 -10.203 -10.202
-10.201 -10.200 -10.198 -10.197  -1.109  -1.094  -1.016  -1.005
 -0.984  -0.979  -0.967  -0.965  -0.962  -0.962  -0.960  -0.956
 -0.939  -0.929  -0.928  -0.927  -0.925  -0.922  -0.920  -0.920
 -0.919  -0.916  -0.899  -0.893  -0.892  -0.886  -0.885  -0.880
 -0.878  -0.871  -0.855  -0.854  -0.842  -0.839  -0.837  -0.837
 -0.835  -0.833  -0.825  -0.821  -0.805  -0.804  -0.796  -0.796
 -0.793  -0.792  -0.792  -0.791  -0.790  -0.788  -0.785  -0.782
 -0.771  -0.768  -0.768  -0.767  -0.766  -0.766  -0.764  -0.763
 -0.756  -0.754  -0.744  -0.740  -0.737  -0.732  -0.715  -0.715
 -0.712  -0.712  -0.712  -0.711  -0.709  -0.709  -0.708  -0.707
 -0.707  -0.706  -0.706  -0.705  -0.704  -0.699  -0.676  -0.670
 -0.658  -0.657  -0.656  -0.656  -0.651  -0.647  -0.635  -0.630
 -0.629  -0.628  -0.626  -0.624  -0.622  -0.619  -0.618  -0.617
 -0.615  -0.613  -0.612  -0.612  -0.610  -0.610  -0.610  -0.609
 -0.607  -0.607  -0.602  -0.600  -0.571  -0.567  -0.565  -0.564
 -0.562  -0.561  -0.558  -0.556  -0.555  -0.555  -0.550  -0.550
 -0.539  -0.537  -0.536  -0.532  -0.527  -0.526  -0.525  -0.523
 -0.522  -0.519  -0.519  -0.517  -0.517  -0.515  -0.513  -0.510
 -0.508  -0.504  -0.502  -0.496  -0.496  -0.491  -0.489  -0.485
 -0.485  -0.484  -0.482  -0.481  -0.479  -0.477  -0.476  -0.476
 -0.474  -0.472  -0.471  -0.468  -0.467  -0.466  -0.465  -0.465
 -0.464  -0.463  -0.462  -0.461  -0.460  -0.460  -0.459  -0.458
 -0.456  -0.456  -0.455  -0.451  -0.450  -0.447  -0.444  -0.443
 -0.443  -0.441  -0.441  -0.439  -0.439  -0.437  -0.437  -0.433
 -0.433  -0.432  -0.431  -0.430  -0.429  -0.425  -0.424  -0.423
 -0.423  -0.421  -0.420  -0.420  -0.418  -0.418  -0.417  -0.417
 -0.416  -0.416  -0.415  -0.415  -0.414  -0.413  -0.411  -0.411
 -0.410  -0.409  -0.408  -0.406  -0.402  -0.401  -0.400  -0.396
 -0.394  -0.391  -0.389  -0.388  -0.388  -0.387  -0.385  -0.384
 -0.380  -0.376  -0.375  -0.373  -0.372  -0.372  -0.369  -0.366
 -0.364  -0.363  -0.362  -0.362  -0.360  -0.359  -0.357  -0.356
 -0.356  -0.355  -0.355  -0.355  -0.354  -0.353  -0.352  -0.350
 -0.349  -0.349  -0.348  -0.347  -0.347  -0.345  -0.344  -0.344
 -0.343  -0.342  -0.340  -0.339  -0.337  -0.336  -0.335  -0.333
 -0.332  -0.331  -0.329  -0.328  -0.326  -0.326  -0.325  -0.323
 -0.315  -0.306  -0.306  -0.298  -0.290  -0.283  -0.273  -0.271
 -0.269  -0.269  -0.268  -0.267  -0.266  -0.265  -0.263  -0.262
 -0.261  -0.260  -0.260  -0.258  -0.257  -0.256  -0.254  -0.254
 -0.249  -0.248  -0.242  -0.242  -0.225  -0.222  -0.211  -0.209
 -0.207  -0.207  -0.206  -0.204  -0.199  -0.192

          Ground-State Mulliken Net Atomic Charges

     Atom                 Charge (a.u.)
  ----------------------------------------
      1 O                    -0.449512
      2 C                    -0.088964
      3 H                     0.126430
      4 H                     0.125990
      5 H                     0.136634
      6 O                    -0.479226
      7 C                     0.577548
      8 C                    -0.249411
      9 H                     0.126102
     10 H                     0.130038
     11 C                    -0.184343
     12 H                     0.110731
     13 H                     0.123523
     14 C                    -0.183274
     15 H                     0.118451
     16 H                     0.109657
     17 C                     0.022089
     18 C                     0.089522
     19 C                    -0.108632
     20 H                     0.094165
     21 C                    -0.093690
     22 H                     0.094881
     23 C                    -0.087541
     24 H                     0.086923
     25 C                    -0.089951
     26 H                     0.097652
     27 C                    -0.116028
     28 H                     0.096628
     29 C                     0.014006
     30 C                    -0.014310
     31 C                     0.033355
     32 C                     0.004571
     33 C                     0.006758
     34 C                     0.038327
     35 C                     0.002897
     36 C                    -0.017527
     37 C                     0.038059
     38 C                    -0.037280
     39 C                    -0.109092
     40 C                     0.001235
     41 C                    -0.017611
     42 C                    -0.027258
     43 C                    -0.012012
     44 C                    -0.005799
     45 C                    -0.088823
     46 C                     0.047012
     47 C                     0.017006
     48 C                    -0.026196
     49 C                    -0.017902
     50 C                     0.055999
     51 C                     0.002537
     52 C                     0.003892
     53 C                     0.044023
     54 C                     0.021914
     55 C                     0.014854
     56 C                    -0.021759
     57 C                    -0.020796
     58 C                     0.009170
     59 C                    -0.026680
     60 C                    -0.002327
     61 C                     0.018133
     62 C                     0.012637
     63 C                     0.017959
     64 C                     0.036625
     65 C                     0.008332
     66 C                    -0.013728
     67 C                    -0.029892
     68 C                    -0.001983
     69 C                     0.012569
     70 C                    -0.011905
     71 C                     0.022367
     72 C                     0.034989
     73 C                    -0.018539
     74 C                    -0.014390
     75 C                     0.002029
     76 C                    -0.019731
     77 C                    -0.041395
     78 C                    -0.030390
     79 C                    -0.022677
     80 C                     0.026934
     81 C                     0.003727
     82 C                    -0.021144
     83 C                    -0.001435
     84 C                     0.006618
     85 C                     0.000769
     86 C                    -0.005916
     87 C                    -0.003254
     88 C                    -0.001673
     89 O                    -0.441954
     90 C                    -0.094767
     91 H                     0.118444
     92 H                     0.141555
     93 H                     0.120017
     94 O                    -0.475794
     95 C                     0.593550
     96 C                    -0.258459
     97 H                     0.137973
     98 H                     0.139705
     99 C                    -0.192950
    100 H                     0.117446
    101 H                     0.100229
    102 C                    -0.187242
    103 H                     0.099898
    104 H                     0.119648
    105 C                     0.037482
    106 C                     0.069689
    107 C                    -0.101668
    108 H                     0.093811
    109 C                    -0.091537
    110 H                     0.096278
    111 C                    -0.079969
    112 H                     0.087459
    113 C                    -0.090185
    114 H                     0.093830
    115 C                    -0.110094
    116 H                     0.100489
    117 C                     0.016837
    118 C                     0.007742
    119 C                    -0.009062
    120 C                     0.005777
    121 C                     0.011961
    122 C                    -0.009336
    123 C                    -0.014235
    124 C                    -0.022417
    125 C                    -0.008387
    126 C                    -0.032189
    127 C                    -0.082769
    128 C                     0.031868
    129 C                    -0.008539
    130 C                    -0.016960
    131 C                     0.008784
    132 C                    -0.009816
    133 C                    -0.093631
    134 C                     0.005818
    135 C                    -0.004045
    136 C                     0.001589
    137 C                     0.012644
    138 C                    -0.010439
    139 C                     0.008462
    140 C                     0.015519
    141 C                     0.021660
    142 C                    -0.020333
    143 C                     0.008533
    144 C                    -0.014256
    145 C                    -0.025799
    146 C                     0.015809
    147 C                     0.016642
    148 C                     0.028276
    149 C                    -0.017616
    150 C                    -0.037789
    151 C                     0.017399
    152 C                     0.004848
    153 C                     0.022601
    154 C                    -0.025004
    155 C                     0.014192
    156 C                     0.006562
    157 C                    -0.008245
    158 C                     0.022455
    159 C                    -0.001520
    160 C                    -0.015153
    161 C                    -0.017281
    162 C                    -0.016861
    163 C                     0.032061
    164 C                    -0.000139
    165 C                    -0.011907
    166 C                     0.011901
    167 C                    -0.010495
    168 C                     0.006055
    169 C                     0.000837
    170 C                    -0.026705
    171 C                    -0.008640
    172 C                     0.049440
    173 C                    -0.006583
    174 C                    -0.005813
    175 C                    -0.008972
    176 C                     0.039509
  ----------------------------------------
  Sum of atomic charges =     0.000000

                    Cartesian Multipole Moments
 -----------------------------------------------------------------
    Charge (ESU x 10^10)
                 0.0000
    Dipole Moment (Debye)
         X       2.3401      Y      -5.9281      Z       1.4674
       Tot       6.5400
    Quadrupole Moments (Debye-Ang)
        XX    -833.4716     XY      -5.1162     YY    -777.6664
        XZ       5.5587     YZ      -2.9782     ZZ    -804.7949

 Total job time:  864.67s(wall), 7316.64s(cpu)
        *  Thank you very much for using Q-Chem.  Have a nice day.  *
