 Q-Chem 4.4, Q-Chem, Inc., Pleasanton, CA (2016)
 Q-Chem 4.4.2 for Intel X86 Linux

User input:
--------------------------------------------------------------
$comment
SP
$end

$rem
MEM_STATIC 5000
MEM_TOTAL 20000
JOBTYPE SP
EXCHANGE B3LYP
BASIS 6-31g(d,p)
$end

$molecule
0 1
O          28.620000    -29.701000     -7.239000
C          29.481000    -30.269000     -8.203000
H          30.288000    -29.528000     -8.246000
H          28.952000    -30.489000     -9.139000
H          30.078000    -31.125000     -7.865000
O          27.127000    -31.468000     -7.358000
C          27.517000    -30.420000     -6.858000
C          26.809000    -29.632000     -5.774000
H          27.384000    -29.411000     -4.866000
H          26.099000    -30.351000     -5.346000
C          26.010000    -28.471000     -6.298000
H          26.639000    -27.592000     -6.486000
H          25.499000    -28.798000     -7.212000
C          24.843000    -28.081000     -5.369000
H          24.353000    -29.047000     -5.198000
H          25.217000    -27.725000     -4.400000
C          23.849000    -27.080000     -5.888000
C          22.811000    -27.695000     -6.710000
C          21.564000    -28.111000     -6.161000
H          21.348000    -27.982000     -5.105000
C          20.618000    -28.711000     -6.978000
H          19.680000    -29.158000     -6.660000
C          20.782000    -28.820000     -8.310000
H          20.008000    -29.264000     -8.929000
C          21.977000    -28.352000     -8.912000
H          22.033000    -28.442000     -9.992000
C          22.992000    -27.846000     -8.110000
H          23.919000    -27.526000     -8.576000
C          23.479000    -22.036000     -8.205000
C          21.314000    -22.303000     -7.014000
C          22.205000    -19.320000     -3.732000
C          27.323000    -22.838000     -4.918000
C          23.007000    -21.748000     -1.291000
C          22.396000    -22.887000     -7.728000
C          26.457000    -21.981000     -2.335000
C          22.706000    -19.234000     -6.160000
C          21.711000    -24.679000     -3.799000
C          26.906000    -23.791000     -3.964000
C          23.407000    -25.915000     -5.030000
C          22.784000    -24.942000     -2.865000
C          25.309000    -24.083000     -2.287000
C          25.424000    -21.377000     -1.553000
C          21.723000    -24.408000     -6.231000
C          23.850000    -19.620000     -2.243000
C          24.404000    -25.640000     -6.148000
C          25.742000    -25.073000     -5.777000
C          22.760000    -20.443000     -1.858000
C          26.093000    -19.674000     -5.614000
C          24.390000    -18.728000     -4.426000
C          24.002000    -18.821000     -5.807000
C          22.444000    -20.122000     -7.191000
C          26.072000    -24.026000     -6.628000
C          22.158000    -25.124000     -5.075000
C          21.363000    -20.954000     -6.757000
C          26.414000    -23.328000     -2.690000
C          20.912000    -23.248000     -6.115000
C          22.989000    -23.976000     -1.796000
C          26.684000    -21.667000     -6.836000
C          21.810000    -19.453000     -5.102000
C          23.862000    -25.589000     -3.578000
C          24.782000    -20.337000     -7.573000
C          24.288000    -23.589000     -1.450000
C          20.952000    -23.508000     -3.694000
C          26.039000    -19.899000     -3.190000
C          26.812000    -21.084000     -3.343000
C          21.121000    -22.616000     -2.674000
C          26.881000    -22.966000     -6.264000
C          26.100000    -24.870000     -4.406000
C          26.932000    -20.756000     -5.782000
C          23.956000    -24.707000     -7.203000
C          20.443000    -21.481000     -4.562000
C          25.152000    -25.124000     -3.307000
C          22.176000    -22.855000     -1.754000
C          25.619000    -21.479000     -7.697000
C          21.704000    -20.247000     -2.797000
C          23.509000    -20.690000     -7.862000
C          23.458000    -18.929000     -3.379000
C          20.516000    -22.796000     -4.874000
C          20.864000    -21.311000     -3.207000
C          22.649000    -24.185000     -7.244000
C          25.006000    -23.792000     -7.466000
C          25.652000    -19.266000     -4.322000
C          20.921000    -20.531000     -5.460000
C          24.340000    -22.202000     -1.188000
C          27.292000    -21.464000     -4.640000
C          25.163000    -20.088000     -2.096000
C          24.774000    -22.541000     -7.972000
C          25.026000    -19.403000     -6.511000
O          25.142000    -31.942000    -14.597000
C          24.024000    -31.310000    -15.253000
H          24.373000    -30.492000    -15.895000
H          23.356000    -30.788000    -14.556000
H          23.444000    -32.023000    -15.853000
O          26.342000    -32.864000    -16.383000
C          26.217000    -32.527000    -15.222000
C          27.301000    -32.822000    -14.168000
H          27.047000    -33.824000    -13.802000
H          27.192000    -32.154000    -13.305000
C          28.742000    -32.874000    -14.680000
H          29.374000    -33.441000    -13.985000
H          28.830000    -33.536000    -15.550000
C          29.305000    -31.503000    -15.149000
H          30.239000    -31.691000    -15.692000
H          28.718000    -30.972000    -15.908000
C          29.641000    -30.564000    -13.879000
C          30.809000    -31.096000    -13.128000
C          32.082000    -30.909000    -13.657000
H          32.246000    -30.391000    -14.597000
C          33.148000    -31.590000    -13.045000
H          34.142000    -31.500000    -13.475000
C          33.054000    -32.397000    -11.924000
H          33.878000    -32.841000    -11.373000
C          31.777000    -32.507000    -11.412000
H          31.734000    -33.108000    -10.509000
C          30.622000    -31.917000    -12.011000
H          29.631000    -32.026000    -11.582000
C          27.874000    -27.480000     -9.710000
C          29.887000    -26.377000    -10.407000
C          27.905000    -22.717000    -12.214000
C          24.670000    -28.063000    -13.655000
C          28.116000    -23.915000    -15.577000
C          29.155000    -27.533000    -10.192000
C          25.049000    -25.822000    -15.387000
C          27.428000    -23.919000    -10.129000
C          30.489000    -26.935000    -14.280000
C          25.464000    -28.209000    -14.848000
C          29.495000    -29.013000    -14.057000
C          29.697000    -27.058000    -15.387000
C          27.038000    -27.132000    -16.177000
C          25.825000    -24.695000    -15.591000
C          30.438000    -27.856000    -12.004000
C          26.512000    -22.949000    -13.968000
C          28.467000    -29.713000    -13.239000
C          27.082000    -29.528000    -13.646000
C          27.848000    -23.017000    -14.456000
C          24.454000    -25.330000    -11.480000
C          25.645000    -23.378000    -11.747000
C          26.089000    -24.010000    -10.552000
C          27.987000    -25.093000     -9.638000
C          26.353000    -29.314000    -12.450000
C          30.355000    -28.068000    -13.443000
C          29.331000    -25.106000    -10.075000
C          25.707000    -27.085000    -15.677000
C          30.681000    -26.614000    -11.475000
C          29.028000    -25.893000    -15.877000
C          24.760000    -27.754000    -11.421000
C          28.388000    -23.274000    -10.947000
C          29.001000    -28.305000    -15.229000
C          25.900000    -26.350000     -9.848000
C          27.759000    -25.983000    -16.354000
C          30.761000    -25.688000    -13.777000
C          24.590000    -24.418000    -13.694000
C          24.292000    -25.731000    -14.252000
C          30.114000    -24.513000    -14.318000
C          25.098000    -28.605000    -12.440000
C          26.669000    -28.871000    -14.741000
C          24.211000    -26.596000    -12.006000
C          28.502000    -29.306000    -11.770000
C          30.284000    -24.227000    -12.061000
C          27.617000    -28.271000    -15.574000
C          29.289000    -24.697000    -15.369000
C          25.681000    -27.633000    -10.386000
C          28.721000    -22.889000    -13.364000
C          27.274000    -26.269000     -9.530000
C          26.554000    -22.698000    -12.583000
C          30.855000    -25.511000    -12.355000
C          29.910000    -23.624000    -13.284000
C          29.484000    -28.445000    -11.246000
C          27.184000    -29.173000    -11.361000
C          24.651000    -24.210000    -12.312000
C          29.521000    -23.982000    -10.897000
C          27.116000    -24.794000    -16.088000
C          24.107000    -26.786000    -13.379000
C          25.470000    -23.765000    -14.576000
C          26.891000    -28.295000    -10.330000
C          25.303000    -25.169000    -10.325000
$end

--------------------------------------------------------------

             Standard Nuclear Orientation (Angstroms)
    I     Atom           X                Y                Z
 ----------------------------------------------------------------
    1      O      -1.8246696184    -4.1781383298    -2.6993989352
    2      C      -3.1821365390    -4.0215064489    -3.0543510636
    3      H      -3.1180867294    -3.2824102452    -3.8617006927
    4      H      -3.8006533553    -3.7626245028    -2.1855852230
    5      H      -3.6221272005    -4.8424460109    -3.6338814367
    6      O      -2.3071646802    -5.7672129381    -1.0846112077
    7      C      -1.5113813869    -5.1186966989    -1.7528623864
    8      C      -0.0026675504    -5.1385429300    -1.6091519594
    9      H       0.5779565801    -5.3757333418    -2.5094554236
   10      H       0.1962966014    -6.0559734065    -1.0408390288
   11      C       0.5409821463    -3.9882418149    -0.8078091167
   12      H       0.6393687589    -3.0778633082    -1.4120913761
   13      H      -0.1261413498    -3.8280064011     0.0481796994
   14      C       1.8918158157    -4.3117211887    -0.1387504552
   15      H       1.6805143655    -5.2680251536     0.3545358956
   16      H       2.6679580125    -4.4945912477    -0.8935582664
   17      C       2.4263228085    -3.3212529133     0.8575792442
   18      C       1.8717578320    -3.5154541905     2.1940284766
   19      C       2.5303104650    -4.3129616377     3.1737000039
   20      H       3.4724208379    -4.8046386472     2.9520814947
   21      C       1.9526542060    -4.4860263845     4.4222058468
   22      H       2.3040521526    -5.1459255091     5.2107675936
   23      C       0.8347849269    -3.8345984518     4.7950475336
   24      H       0.4246649052    -3.9639980375     5.7922588026
   25      C       0.1846628943    -2.9715734970     3.8774516148
   26      H      -0.6933236950    -2.4542546873     4.2504888760
   27      C       0.6737157363    -2.8599928654     2.5821361782
   28      H       0.1467184664    -2.2268357317     1.8748378525
   29      C       3.5784100614     2.0816740530     1.5121020924
   30      C       5.1473284167     0.9466435120     3.0700481329
   31      C       8.8859426033     1.7582489698     0.6559738705
   32      C       4.1383538918     0.1091691580    -3.1804021800
   33      C       9.0855386068    -1.4837172490    -0.7392628375
   34      C       3.8840734318     0.9818355155     2.4184927892
   35      C       6.8657904558    -0.6851071851    -3.4745260994
   36      C       6.9263002320     3.2073382238     1.1180594802
   37      C       6.1081220569    -2.7215760951     1.7433038112
   38      C       4.4919587305    -1.2515804867    -3.0557505763
   39      C       3.8699514374    -2.8723385207     0.8013186897
   40      C       6.2554567508    -3.3136349698     0.4315825081
   41      C       6.1947156150    -2.6005052086    -2.2019220881
   42      C       8.1721463392    -0.7344605516    -2.8962289863
   43      C       4.4321265881    -1.1769912837     2.6340933201
   44      C       9.2106702444     0.9054260673    -1.3886265932
   45      C       2.8042226636    -1.9146398054     0.2849919023
   46      C       2.8812710657    -1.4788654514    -1.1480252840
   47      C       9.4654236470    -0.1221495850    -0.4437229037
   48      C       5.8070405293     2.9645111529    -2.1456466542
   49      C       7.8579377101     2.8966252712    -1.1478083603
   50      C       6.9220762407     3.5196493896    -0.2520638331
   51      C       5.7717520092     2.9953905439     1.8544327430
   52      C       2.6889302289    -0.1065414689    -1.2431141346
   53      C       4.7416943365    -2.3448224628     1.8734651939
   54      C       6.0548324649     1.9348945483     2.7733204939
   55      C       5.8837991479    -1.6178509957    -3.1459457363
   56      C       5.4584465582    -0.3757982619     3.2011330548
   57      C       7.5025408497    -3.0644833389    -0.2759814218
   58      C       3.5840292276     2.0429262781    -1.9922971479
   59      C       7.9392080580     2.3411942035     1.5584607430
   60      C       4.9601954391    -3.3318526203    -0.2095323424
   61      C       4.4798425506     3.3127486563    -0.1175324644
   62      C       7.4777951095    -2.7696224953    -1.6432161242
   63      C       7.1124219970    -1.8988481074     2.2656516728
   64      C       7.5180539152     1.4573085753    -3.0001000369
   65      C       6.4649136038     0.6506827112    -3.5152827228
   66      C       8.2962915831    -1.6891143409     1.6182804113
   67      C       3.2301651539     0.6774545826    -2.2446089909
   68      C       3.8809101979    -2.0087352763    -2.0249366671
   69      C       4.7736170610     2.2598003163    -2.7272715952
   70      C       2.6931967357    -0.6227478651     0.9941508817
   71      C       7.7596509878     0.1936368748     2.8347169001
   72      C       4.9252174143    -2.9326218689    -1.5486205938
   73      C       8.4530593529    -2.2558611806     0.3256985431
   74      C       3.4474435507     2.5340692811    -0.7073796784
   75      C       9.2714318413     0.4190222442     0.8619467447
   76      C       4.5558270850     3.0184814262     1.2001519241
   77      C       8.8861041239     2.0469540240    -0.6722385996
   78      C       6.7831089811    -0.7214611269     3.0368538745
   79      C       8.7054083497    -0.3472065786     1.9099480796
   80      C       3.4436397812    -0.3281962808     2.1484855817
   81      C       2.5949530095     0.4102557444     0.0286739462
   82      C       7.1630223353     2.5490707617    -2.2832388887
   83      C       7.4230949242     1.5290909892     2.6330232597
   84      C       8.4085717484    -1.7521196491    -1.9489280905
   85      C       5.1055925467     1.0969318451    -3.4146995518
   86      C       8.5666006577     0.5990701148    -2.5952426871
   87      C       2.9853751686     1.6957331996     0.2932098602
   88      C       5.6894481963     3.5439135391    -0.8545215952
   89      O      -7.2240486653    -2.4841560327     3.5644544223
   90      C      -6.9455971868    -1.7415425182     4.7688936870
   91      H      -7.1134443931    -0.6704910553     4.6022651203
   92      H      -5.8862500481    -1.7678724880     5.0545637282
   93      H      -7.5616452334    -2.0808740642     5.6115726923
   94      O      -9.5178145396    -2.1344811022     3.2542197423
   95      C      -8.4186230087    -2.4988868116     2.8853004323
   96      C      -8.2031350020    -3.1812114332     1.5211175157
   97      H      -8.3779448100    -4.2439243733     1.7274152081
   98      H      -7.1528176006    -3.1069962146     1.2141982144
   99      C      -9.1624209669    -2.7688222392     0.4026209398
  100      H      -9.1914941027    -3.5386278261    -0.3787190062
  101      H     -10.2067220516    -2.8368531942     0.7307901545
  102      C      -8.9814130013    -1.3053314414    -0.0893158460
  103      H      -9.8450412369    -1.0518959299    -0.7157866851
  104      H      -9.0369063914    -0.5252097214     0.6794114045
  105      C      -7.6485173449    -1.1713416172    -0.9909548513
  106      C      -7.8205306522    -1.8761175446    -2.2890115967
  107      C      -8.5986034486    -1.2766047580    -3.2741644489
  108      H      -9.0821757322    -0.3163496684    -3.1228766126
  109      C      -8.9168430657    -2.0425408918    -4.4085040740
  110      H      -9.5675323800    -1.6118098031    -5.1648837046
  111      C      -8.4817590319    -3.3324692422    -4.6605214033
  112      H      -8.6246353852    -3.8982527069    -5.5765936815
  113      C      -7.6729866187    -3.8592532883    -3.6739319484
  114      H      -7.3082645827    -4.8534970235    -3.9125031774
  115      C      -7.3606830445    -3.1870166218    -2.4526660716
  116      H      -6.7222197345    -3.6326299744    -1.6964939075
  117      C      -2.1806213807    -1.0850749462    -1.3204662872
  118      C      -2.8674377532     0.4584633654    -3.0235105471
  119      C      -1.4737874559     4.2351642965    -0.9298434470
  120      C      -4.2296161829     0.1717355229     3.1951264475
  121      C      -4.7209774775     5.0876218126     0.3024581179
  122      C      -3.0571597307    -0.7095574189    -2.3037063940
  123      C      -4.4498817111     3.0200970922     3.2572993346
  124      C      -0.3869675405     2.0471485844    -1.1556037510
  125      C      -6.2965699449     2.1676646976    -2.0267256067
  126      C      -5.5032750679     0.7949866943     2.9414494443
  127      C      -6.8822793839     0.1964346778    -0.9651015383
  128      C      -6.8901722717     2.5673228003    -0.8623581052
  129      C      -6.5099332538     2.6050851851     1.8860685887
  130      C      -4.2844456957     4.1634898013     2.4962441214
  131      C      -5.0760491256     0.1624300111    -2.7480998381
  132      C      -2.3819910618     4.8204792199     1.0458492545
  133      C      -6.2603514777    -0.9558492102    -0.2570369079
  134      C      -5.9373169466    -0.7527752649     1.1474233673
  135      C      -3.2920964993     5.1935790232     0.0162043501
  136      C      -1.0338913931     1.2384708133     2.2485595517
  137      C      -0.6245679876     3.1531560649     1.0375646148
  138      C      -0.2435547942     2.0351359709     0.2441889056
  139      C      -0.8710879648     0.8742451755    -1.7228453292
  140      C      -4.6491408331    -1.3130848237     1.3326489023
  141      C      -6.2360357894     0.7556691874    -2.0961395483
  142      C      -1.7161705756     1.2664217547    -2.7856279559
  143      C      -5.6041800390     2.2086435509     2.9089151776
  144      C      -4.0971194566     0.9383313924    -3.3147811855
  145      C      -6.3683626959     3.7186006688    -0.1936578463
  146      C      -2.4249450861    -0.7707818712     2.2208779195
  147      C      -1.0129552310     3.1453014739    -1.7950946755
  148      C      -7.1857255832     1.3589896104    -0.1433531384
  149      C      -0.9182480537    -0.3149961401     0.4133192289
  150      C      -6.2914160418     3.7453357169     1.1625701764
  151      C      -5.3453951141     2.9653970711    -2.6105847519
  152      C      -2.2452686750     3.2131385278     2.8692756689
  153      C      -3.2635963422     2.3871265629     3.5055539068
  154      C      -4.8646549616     4.1553435639    -1.9436280442
  155      C      -3.7785945456    -0.8842814654     2.3985207714
  156      C      -6.2417302649     0.3356746725     1.8711997592
  157      C      -2.0236347573     0.4409921527     2.8168172914
  158      C      -4.9535804863    -1.4091721737    -0.8986620842
  159      C      -3.0857231557     3.1911351450    -2.9974063675
  160      C      -6.8988547642     1.4030622757     1.2535719611
  161      C      -5.4370115403     4.4698662074    -0.7635579388
  162      C      -1.9353433200    -1.1171372143     0.9661129666
  163      C      -2.7378000669     4.8162213479    -1.2172191983
  164      C      -1.1589419389    -0.2500731694    -0.9771527994
  165      C      -1.2255782070     4.2838524305     0.4477430782
  166      C      -4.2213483690     2.3536335508    -3.2621316114
  167      C      -3.5300789866     4.3088748280    -2.2541568156
  168      C      -4.4667497603    -0.8559151870    -2.0974629646
  169      C      -4.0740409098    -1.6832031553     0.1373934908
  170      C      -1.1217204688     2.6447399579     2.2597910556
  171      C      -1.7916821101     2.6697319720    -2.7722697349
  172      C      -5.2010324662     4.5101310807     1.5148168365
  173      C      -3.1143041529     1.0141606477     3.4602169696
  174      C      -2.8843414589     4.3427290604     2.3267406877
  175      C      -2.7138426725    -1.5481959103    -0.0891629019
  176      C      -0.4053957080     0.8514416139     1.0092256288
 ----------------------------------------------------------------

    9   -5804.2630983277      8.01E-06 Convergence criterion met
 Total energy in the final basis set = -5804.2630983277

                    Orbital Energies (a.u.)
 --------------------------------------------------------------

 Alpha MOs
 -- Occupied --
-19.195 -19.194 -19.143 -19.141 -10.323 -10.321 -10.250 -10.248
-10.247 -10.244 -10.241 -10.240 -10.240 -10.236 -10.235 -10.232
-10.231 -10.230 -10.230 -10.229 -10.229 -10.228 -10.227 -10.226
-10.226 -10.226 -10.226 -10.225 -10.225 -10.223 -10.223 -10.223
-10.222 -10.221 -10.221 -10.221 -10.221 -10.221 -10.221 -10.221
-10.221 -10.221 -10.220 -10.220 -10.220 -10.220 -10.219 -10.219
-10.219 -10.219 -10.219 -10.219 -10.219 -10.218 -10.218 -10.218
-10.218 -10.218 -10.218 -10.217 -10.217 -10.217 -10.217 -10.217
-10.217 -10.217 -10.217 -10.216 -10.216 -10.216 -10.216 -10.216
-10.216 -10.216 -10.216 -10.216 -10.215 -10.215 -10.215 -10.215
-10.215 -10.215 -10.215 -10.215 -10.215 -10.215 -10.215 -10.215
-10.214 -10.214 -10.214 -10.214 -10.214 -10.214 -10.214 -10.213
-10.213 -10.213 -10.213 -10.213 -10.212 -10.212 -10.212 -10.212
-10.212 -10.212 -10.212 -10.211 -10.211 -10.211 -10.211 -10.211
-10.211 -10.211 -10.210 -10.210 -10.210 -10.210 -10.209 -10.209
-10.209 -10.209 -10.209 -10.209 -10.209 -10.208 -10.208 -10.207
-10.207 -10.207 -10.206 -10.206 -10.206 -10.205 -10.204 -10.203
-10.202 -10.201 -10.201 -10.200 -10.200 -10.199 -10.197 -10.197
-10.195 -10.194 -10.189 -10.188  -1.097  -1.087  -1.017  -1.016
 -0.990  -0.980  -0.972  -0.969  -0.968  -0.962  -0.959  -0.957
 -0.939  -0.935  -0.933  -0.931  -0.928  -0.925  -0.924  -0.921
 -0.918  -0.914  -0.902  -0.897  -0.893  -0.889  -0.885  -0.885
 -0.879  -0.870  -0.861  -0.853  -0.851  -0.843  -0.841  -0.841
 -0.838  -0.835  -0.823  -0.822  -0.810  -0.806  -0.803  -0.801
 -0.799  -0.796  -0.795  -0.792  -0.790  -0.789  -0.789  -0.787
 -0.777  -0.776  -0.771  -0.770  -0.770  -0.769  -0.765  -0.764
 -0.751  -0.750  -0.747  -0.746  -0.737  -0.732  -0.722  -0.720
 -0.719  -0.715  -0.715  -0.714  -0.711  -0.710  -0.710  -0.709
 -0.709  -0.709  -0.705  -0.705  -0.703  -0.702  -0.680  -0.671
 -0.665  -0.662  -0.659  -0.656  -0.653  -0.647  -0.635  -0.633
 -0.629  -0.628  -0.627  -0.626  -0.625  -0.622  -0.621  -0.620
 -0.620  -0.616  -0.616  -0.615  -0.614  -0.613  -0.611  -0.611
 -0.609  -0.608  -0.604  -0.600  -0.571  -0.570  -0.567  -0.564
 -0.563  -0.562  -0.560  -0.559  -0.556  -0.556  -0.555  -0.552
 -0.541  -0.538  -0.536  -0.534  -0.533  -0.530  -0.528  -0.525
 -0.524  -0.521  -0.521  -0.520  -0.519  -0.518  -0.513  -0.512
 -0.512  -0.508  -0.501  -0.499  -0.496  -0.494  -0.492  -0.488
 -0.486  -0.486  -0.484  -0.483  -0.482  -0.481  -0.477  -0.477
 -0.475  -0.475  -0.474  -0.472  -0.471  -0.470  -0.470  -0.469
 -0.468  -0.466  -0.465  -0.462  -0.462  -0.461  -0.460  -0.458
 -0.457  -0.457  -0.455  -0.453  -0.453  -0.451  -0.450  -0.448
 -0.444  -0.442  -0.442  -0.440  -0.438  -0.437  -0.436  -0.434
 -0.432  -0.431  -0.430  -0.429  -0.428  -0.427  -0.426  -0.426
 -0.425  -0.424  -0.422  -0.422  -0.421  -0.420  -0.419  -0.419
 -0.418  -0.418  -0.417  -0.417  -0.416  -0.416  -0.414  -0.414
 -0.413  -0.412  -0.410  -0.408  -0.408  -0.401  -0.401  -0.401
 -0.396  -0.394  -0.393  -0.392  -0.391  -0.390  -0.389  -0.384
 -0.383  -0.377  -0.375  -0.374  -0.371  -0.370  -0.369  -0.368
 -0.366  -0.366  -0.364  -0.363  -0.362  -0.361  -0.360  -0.360
 -0.357  -0.357  -0.356  -0.355  -0.354  -0.354  -0.352  -0.352
 -0.349  -0.349  -0.349  -0.348  -0.347  -0.346  -0.345  -0.345
 -0.343  -0.343  -0.342  -0.341  -0.339  -0.338  -0.337  -0.336
 -0.334  -0.334  -0.332  -0.331  -0.329  -0.329  -0.326  -0.326
 -0.309  -0.307  -0.303  -0.302  -0.293  -0.287  -0.276  -0.274
 -0.273  -0.273  -0.272  -0.269  -0.268  -0.267  -0.266  -0.265
 -0.263  -0.262  -0.262  -0.260  -0.259  -0.259  -0.257  -0.255
 -0.253  -0.250  -0.245  -0.244  -0.227  -0.222  -0.215  -0.212
 -0.211  -0.209  -0.206  -0.204  -0.202  -0.199

          Ground-State Mulliken Net Atomic Charges

     Atom                 Charge (a.u.)
  ----------------------------------------
      1 O                    -0.447659
      2 C                    -0.085387
      3 H                     0.120978
      4 H                     0.128645
      5 H                     0.112901
      6 O                    -0.470632
      7 C                     0.586145
      8 C                    -0.241478
      9 H                     0.124638
     10 H                     0.121817
     11 C                    -0.187834
     12 H                     0.121437
     13 H                     0.117574
     14 C                    -0.191636
     15 H                     0.115330
     16 H                     0.104677
     17 C                     0.030431
     18 C                     0.067796
     19 C                    -0.112375
     20 H                     0.091973
     21 C                    -0.075117
     22 H                     0.086439
     23 C                    -0.077507
     24 H                     0.086531
     25 C                    -0.098960
     26 H                     0.087952
     27 C                    -0.090192
     28 H                     0.087563
     29 C                    -0.043856
     30 C                     0.025241
     31 C                     0.006093
     32 C                    -0.021009
     33 C                    -0.025278
     34 C                    -0.031172
     35 C                    -0.014236
     36 C                     0.004405
     37 C                    -0.000264
     38 C                    -0.004002
     39 C                    -0.085510
     40 C                    -0.010819
     41 C                     0.023880
     42 C                    -0.006347
     43 C                    -0.009578
     44 C                     0.011032
     45 C                    -0.085634
     46 C                     0.020962
     47 C                    -0.015929
     48 C                     0.006965
     49 C                    -0.011980
     50 C                    -0.016557
     51 C                     0.009331
     52 C                     0.023368
     53 C                     0.041459
     54 C                    -0.007681
     55 C                     0.005521
     56 C                    -0.015969
     57 C                     0.004650
     58 C                    -0.011726
     59 C                     0.000313
     60 C                     0.011107
     61 C                     0.003351
     62 C                    -0.023160
     63 C                     0.001351
     64 C                    -0.010190
     65 C                     0.003564
     66 C                     0.006161
     67 C                    -0.007219
     68 C                    -0.007768
     69 C                    -0.005753
     70 C                     0.037590
     71 C                     0.000788
     72 C                    -0.026392
     73 C                     0.007347
     74 C                    -0.007437
     75 C                     0.010385
     76 C                     0.026247
     77 C                    -0.000889
     78 C                     0.018116
     79 C                    -0.023606
     80 C                     0.013077
     81 C                     0.015481
     82 C                     0.030758
     83 C                    -0.016157
     84 C                     0.016057
     85 C                     0.013475
     86 C                    -0.009262
     87 C                     0.019946
     88 C                    -0.007279
     89 O                    -0.479602
     90 C                    -0.084965
     91 H                     0.124137
     92 H                     0.129096
     93 H                     0.126156
     94 O                    -0.464829
     95 C                     0.612581
     96 C                    -0.253510
     97 H                     0.134500
     98 H                     0.123397
     99 C                    -0.184666
    100 H                     0.111809
    101 H                     0.120521
    102 C                    -0.189196
    103 H                     0.110223
    104 H                     0.120303
    105 C                     0.008750
    106 C                     0.083432
    107 C                    -0.084279
    108 H                     0.097999
    109 C                    -0.108651
    110 H                     0.082378
    111 C                    -0.057800
    112 H                     0.100505
    113 C                    -0.109300
    114 H                     0.084903
    115 C                    -0.100930
    116 H                     0.101439
    117 C                    -0.001443
    118 C                     0.029774
    119 C                    -0.001084
    120 C                    -0.039469
    121 C                    -0.069498
    122 C                    -0.026507
    123 C                    -0.006142
    124 C                    -0.025198
    125 C                     0.015664
    126 C                    -0.021721
    127 C                    -0.092251
    128 C                    -0.024310
    129 C                    -0.007536
    130 C                     0.020626
    131 C                    -0.013345
    132 C                    -0.004197
    133 C                    -0.116174
    134 C                     0.077327
    135 C                     0.000741
    136 C                    -0.019259
    137 C                    -0.002729
    138 C                     0.029240
    139 C                     0.011271
    140 C                    -0.001943
    141 C                     0.062922
    142 C                    -0.018821
    143 C                    -0.014562
    144 C                    -0.018732
    145 C                     0.039953
    146 C                    -0.003940
    147 C                     0.008009
    148 C                     0.007676
    149 C                    -0.007596
    150 C                    -0.009283
    151 C                    -0.024743
    152 C                    -0.008149
    153 C                     0.012359
    154 C                     0.010396
    155 C                     0.000661
    156 C                     0.020005
    157 C                     0.032326
    158 C                     0.013740
    159 C                     0.003927
    160 C                    -0.010025
    161 C                     0.041305
    162 C                    -0.012729
    163 C                     0.009264
    164 C                     0.024931
    165 C                    -0.010580
    166 C                    -0.018965
    167 C                    -0.012654
    168 C                     0.029536
    169 C                     0.013500
    170 C                     0.008788
    171 C                     0.008334
    172 C                     0.018356
    173 C                     0.001756
    174 C                    -0.014700
    175 C                    -0.006359
    176 C                    -0.011560
  ----------------------------------------
  Sum of atomic charges =     0.000000

                    Cartesian Multipole Moments
 -----------------------------------------------------------------
    Charge (ESU x 10^10)
                 0.0000
    Dipole Moment (Debye)
         X      -2.5994      Y      -1.5335      Z      -1.3987
       Tot       3.3264
    Quadrupole Moments (Debye-Ang)
        XX    -820.5981     XY      -1.4594     YY    -810.0149
        XZ      24.8196     YZ       5.9530     ZZ    -790.1991

 Total job time:  889.04s(wall), 7614.15s(cpu)
        *  Thank you very much for using Q-Chem.  Have a nice day.  *
