 Q-Chem 4.4, Q-Chem, Inc., Pleasanton, CA (2016)
 Q-Chem 4.4.2 for Intel X86 Linux

User input:
--------------------------------------------------------------
$comment
SP
$end

$rem
MEM_STATIC 5000
MEM_TOTAL 20000
JOBTYPE SP
EXCHANGE B3LYP
BASIS 6-31g(d,p)
$end

$molecule
0 1
O         -22.491000     28.342000      0.623000
C         -21.202000     27.643000      0.837000
H         -20.496000     28.294000      1.367000
H         -20.796000     27.176000     -0.069000
H         -21.431000     26.898000      1.608000
O         -23.501000     26.349000      0.088000
C         -23.585000     27.570000      0.183000
C         -24.770000     28.450000     -0.250000
H         -24.684000     29.273000      0.470000
H         -25.707000     27.890000     -0.140000
C         -24.543000     28.858000     -1.698000
H         -25.256000     29.669000     -1.893000
H         -23.517000     29.194000     -1.893000
C         -24.832000     27.719000     -2.712000
H         -24.640000     26.713000     -2.317000
H         -25.916000     27.871000     -2.778000
C         -24.270000     27.974000     -4.149000
C         -24.942000     29.165000     -4.857000
C         -24.194000     30.240000     -5.216000
H         -23.166000     30.362000     -4.889000
C         -24.658000     31.111000     -6.234000
H         -24.072000     31.982000     -6.511000
C         -25.814000     30.935000     -6.931000
H         -26.087000     31.563000     -7.774000
C         -26.634000     29.853000     -6.502000
H         -27.554000     29.602000     -7.021000
C         -26.200000     29.038000     -5.436000
H         -26.832000     28.213000     -5.121000
C         -22.196000     25.559000     -8.639000
C         -20.708000     27.411000     -8.257000
C         -17.037000     25.083000     -6.919000
C         -22.523000     22.780000     -4.292000
C         -17.768000     25.697000     -3.508000
C         -22.015000     26.881000     -8.311000
C         -20.033000     22.989000     -2.978000
C         -18.686000     24.613000     -8.658000
C         -20.583000     28.439000     -4.386000
C         -22.356000     23.675000     -3.245000
C         -22.778000     27.769000     -4.216000
C         -20.658000     27.724000     -3.170000
C         -20.936000     25.138000     -2.268000
C         -18.763000     23.579000     -3.046000
C         -21.821000     28.243000     -6.459000
C         -17.232000     23.857000     -4.982000
C         -23.691000     26.804000     -4.925000
C         -23.689000     25.356000     -4.475000
C         -17.099000     25.191000     -4.648000
C         -20.192000     21.954000     -6.894000
C         -18.100000     22.871000     -6.986000
C         -18.816000     23.284000     -8.136000
C         -19.829000     25.338000     -9.134000
C         -23.687000     24.531000     -5.512000
C         -21.768000     28.425000     -5.058000
C         -19.618000     26.640000     -8.723000
C         -21.142000     23.804000     -2.608000
C         -20.604000     28.286000     -7.142000
C         -19.538000     26.971000     -2.797000
C         -22.551000     22.643000     -6.625000
C         -17.764000     25.477000     -8.036000
C         -21.929000     27.257000     -3.082000
C         -21.186000     23.457000     -8.516000
C         -19.678000     25.663000     -2.319000
C         -19.341000     28.459000     -5.135000
C         -18.985000     22.182000     -4.792000
C         -20.211000     22.165000     -4.075000
C         -18.307000     27.673000     -4.670000
C         -23.133000     23.232000     -5.460000
C         -22.919000     24.937000     -3.318000
C         -21.436000     21.918000     -6.137000
C         -23.625000     26.608000     -6.382000
C         -18.298000     27.596000     -6.959000
C         -22.061000     25.859000     -2.675000
C         -18.341000     26.989000     -3.467000
C         -22.422000     23.395000     -7.809000
C         -16.967000     25.956000     -5.795000
C         -21.085000     24.748000     -9.066000
C         -17.193000     23.775000     -6.401000
C         -19.340000     28.403000     -6.516000
C         -17.613000     27.204000     -5.830000
C         -22.702000     27.372000     -7.185000
C         -23.615000     25.262000     -6.744000
C         -18.972000     22.063000     -6.205000
C         -18.412000     26.727000     -8.019000
C         -18.586000     24.911000     -2.747000
C         -21.425000     21.982000     -4.705000
C         -18.098000     23.014000     -4.162000
C         -22.987000     24.742000     -7.819000
C         -20.062000     22.688000     -8.094000
O         -10.786000     11.730000     -7.193000
C         -11.604000     10.981000     -8.084000
H         -12.543000     11.517000     -8.268000
H         -11.905000     10.035000     -7.617000
H         -11.142000     10.843000     -9.070000
O         -11.948000     11.076000     -5.372000
C         -11.142000     11.843000     -5.891000
C         -10.207000     12.782000     -5.101000
H          -9.161000     12.803000     -5.432000
H         -10.216000     12.401000     -4.072000
C         -10.610000     14.272000     -4.946000
H         -11.589000     14.121000     -4.474000
H         -10.047000     14.875000     -4.223000
C         -10.726000     14.966000     -6.336000
H          -9.680000     14.974000     -6.665000
H         -11.186000     14.275000     -7.054000
C         -11.484000     16.258000     -6.298000
C         -10.871000     17.311000     -5.454000
C          -9.813000     18.009000     -5.988000
H          -9.518000     17.912000     -7.029000
C          -9.318000     19.156000     -5.402000
H          -8.636000     19.839000     -5.898000
C          -9.791000     19.525000     -4.150000
H          -9.437000     20.428000     -3.662000
C         -10.883000     18.773000     -3.564000
H         -11.234000     18.996000     -2.561000
C         -11.385000     17.647000     -4.202000
H         -12.174000     17.122000     -3.672000
C         -16.484000     18.520000     -6.236000
C         -15.127000     20.105000     -7.556000
C         -16.967000     19.131000    -11.593000
C         -15.987000     13.794000     -8.183000
C         -14.358000     17.013000    -12.668000
C         -15.235000     19.269000     -6.442000
C         -15.569000     13.961000    -10.998000
C         -18.014000     19.466000     -9.394000
C         -12.155000     18.224000     -9.437000
C         -14.720000     13.636000     -8.764000
C         -11.994000     16.741000     -7.574000
C         -12.058000     16.947000     -9.962000
C         -13.305000     14.479000    -10.324000
C         -15.479000     14.888000    -12.067000
C         -13.184000     18.995000     -7.403000
C         -16.775000     17.015000    -12.433000
C         -12.986000     16.234000     -6.543000
C         -13.811000     15.049000     -6.968000
C         -15.580000     17.691000    -12.659000
C         -18.625000     15.965000     -9.047000
C         -18.443000     17.413000    -10.766000
C         -18.714000     18.222000     -9.603000
C         -17.414000     19.625000     -8.154000
C         -15.132000     15.182000     -6.399000
C         -12.232000     18.156000     -8.023000
C         -16.265000     20.357000     -8.368000
C         -14.483000     13.812000    -10.144000
C         -13.845000     20.024000     -8.093000
C         -12.618000     16.645000    -11.210000
C         -17.423000     15.245000     -7.112000
C         -17.089000     19.828000    -10.372000
C         -12.018000     16.009000     -8.887000
C         -18.303000     17.580000     -7.264000
C         -13.214000     15.390000    -11.396000
C         -12.802000     19.264000    -10.164000
C         -17.528000     15.154000    -11.092000
C         -16.870000     14.175000    -10.385000
C         -13.429000     18.924000    -11.395000
C         -16.199000     14.526000     -7.027000
C         -13.631000     14.246000     -8.153000
C         -17.991000     14.962000     -8.310000
C         -14.007000     17.182000     -5.958000
C         -14.739000     20.479000    -10.320000
C         -12.726000     14.773000     -9.099000
C         -13.338000     17.623000    -11.935000
C         -17.569000     16.536000     -6.560000
C         -15.652000     18.995000    -12.114000
C         -17.630000     18.780000     -7.069000
C         -17.643000     17.906000    -11.807000
C         -13.606000     20.277000     -9.444000
C         -14.589000     19.683000    -11.515000
C         -14.033000     18.535000     -6.381000
C         -15.254000     16.507000     -5.849000
C         -18.453000     16.029000    -10.446000
C         -16.010000     20.479000     -9.732000
C         -14.307000     15.608000    -12.304000
C         -17.061000     14.135000     -8.962000
C         -16.701000     15.628000    -12.120000
C         -16.484000     17.166000     -5.926000
C         -18.823000     17.312000     -8.550000
$end

--------------------------------------------------------------

             Standard Nuclear Orientation (Angstroms)
    I     Atom           X                Y                Z
 ----------------------------------------------------------------
    1      O      10.0409364002     4.7419229159    -1.4058369687
    2      C       8.8035888169     5.4860181518    -1.0723534789
    3      H       9.0252783137     6.3092556112    -0.3822296838
    4      H       7.9713697137     4.8432578001    -0.7592536631
    5      H       8.5682306434     6.0322716619    -1.9932881306
    6      O       8.9686447981     3.7127178130    -3.1577791984
    7      C       9.9780410759     3.8164120257    -2.4669183842
    8      C      11.2358951113     2.9334448084    -2.5323868405
    9      H      12.0032121008     3.6515147420    -2.2181811625
   10      H      11.3862994690     2.5784105780    -3.5595179053
   11      C      11.0380375834     1.7684593441    -1.5740767307
   12      H      12.0275748165     1.3087037951    -1.4576469258
   13      H      10.6416088911     2.0778834868    -0.5990392997
   14      C      10.0714392660     0.6817067829    -2.1160126713
   15      H       9.2908207367     1.0729775516    -2.7811945241
   16      H      10.8078209605     0.1367758335    -2.7187632502
   17      C       9.5623472534    -0.3282174225    -1.0358661896
   18      C      10.6853160930    -1.2075696709    -0.4553409030
   19      C      10.9756673778    -1.1357283658     0.8692514714
   20      H      10.5500333495    -0.3713213563     1.5119913861
   21      C      11.6505564357    -2.2111052057     1.5004015420
   22      H      11.9012071639    -2.1496891137     2.5549954336
   23      C      12.0137350771    -3.3653046651     0.8766661155
   24      H      12.4357815857    -4.2095765531     1.4139218495
   25      C      11.7785639343    -3.4080058777    -0.5269136435
   26      H      11.9919207738    -4.3000447480    -1.1078676114
   27      C      11.1767000795    -2.3009689441    -1.1602904097
   28      H      10.9982152898    -2.3473697898    -2.2304605557
   29      C       5.3245233337    -3.4901900354     0.4927209427
   30      C       5.9680278542    -2.3860930436     2.5315548655
   31      C       2.3754324567     0.3649671558     2.9908968834
   32      C       4.5196717535     0.0953873528    -3.1434896848
   33      C       4.1634175326     3.0940688389     1.6119873969
   34      C       6.3161882149    -3.0539493168     1.3378977282
   35      C       3.5583276782     2.4069433797    -1.8385363128
   36      C       2.5319008260    -1.9539712272     2.2410539496
   37      C       7.6897717454     1.1611267724     1.8174963594
   38      C       5.3796624690     1.1444700214    -2.8520029375
   39      C       8.5109368186     0.2816682003    -0.1441523203
   40      C       7.5027282805     2.1745648382     0.8513369373
   41      C       5.9200583780     2.7283620726    -1.3319515463
   42      C       3.2461137548     2.9523041676    -0.5852494035
   43      C       7.7276043464    -1.2548252235     1.6439058993
   44      C       2.0551935266     1.9408251337     1.3455432250
   45      C       8.1237876698    -0.8097247241    -1.1066760973
   46      C       7.1305874897    -0.4768309517    -2.2030077709
   47      C       3.0858249327     2.3611175960     2.1640504949
   48      C       1.8394904489    -1.1960937760    -1.1347722662
   49      C       1.2883741128    -0.2825392363     0.8869858517
   50      C       1.7261836956    -1.6115396564     1.1056308896
   51      C       3.6351436923    -2.8633494698     2.1204869986
   52      C       6.2274891952    -1.4368050367    -2.3403439525
   53      C       8.2005966771     0.0235799619     1.2688159942
   54      C       4.6154635671    -2.3405944523     2.9416728088
   55      C       4.9307713828     2.2695075794    -2.1970271473
   56      C       6.8674301362    -1.3061638736     2.7424921140
   57      C       6.3647411289     2.9805729077     0.9773299319
   58      C       3.8238226294    -1.9982207128    -2.3721005067
   59      C       2.8137443734    -0.9405918116     3.1775849821
   60      C       7.9149553449     1.6523202537    -0.3312887183
   61      C       3.1527644471    -3.0200218332    -0.2256370464
   62      C       5.5695329251     3.2803178843    -0.1347603799
   63      C       6.7801032604     1.0614001837     2.9428953353
   64      C       1.8519402988     1.2330396693    -0.9723139452
   65      C       2.7461719031     1.3117368681    -2.0730457876
   66      C       5.6913361299     1.9085141087     2.9555891765
   67      C       4.9203670186    -1.1995352352    -2.8221692907
   68      C       6.6582652255     0.8826901772    -2.3920156505
   69      C       2.7401610532    -1.0909171418    -2.2747772390
   70      C       7.5555491008    -2.0844171781    -0.6398944820
   71      C       5.0311550162    -0.1263062185     3.7736344887
   72      C       7.0276207327     1.8883407954    -1.4690095057
   73      C       5.5005563358     2.9305136235     2.0416192306
   74      C       4.0158000423    -2.9568855155    -1.3581441620
   75      C       3.2956295661     1.4373290596     3.1744240673
   76      C       3.9391289861    -3.4023379458     0.8765640251
   77      C       1.6000418370     0.6929959971     1.8530522252
   78      C       6.3770953272    -0.1687135424     3.4273567131
   79      C       4.6221850301     1.1708998811     3.5556209897
   80      C       7.3892256982    -2.3423451915     0.7694470897
   81      C       6.4243866499    -2.4650822752    -1.3599122551
   82      C       1.3852901658    -0.0230299251    -0.5081740660
   83      C       4.1565448334    -1.1616007457     3.5391579013
   84      C       4.2402399861     3.3614090865     0.2745762774
   85      C       3.1555210490     0.1903823250    -2.7652757100
   86      C       2.1319259349     2.2360957554    -0.0827187949
   87      C       5.3770899375    -3.1595585246    -0.8687082903
   88      C       2.0129266310    -2.1693770577    -0.1256659564
   89      O     -11.5984528074     2.3382104203    -1.2857288479
   90      C     -11.9233630536     1.1383950719    -1.9777421871
   91      H     -11.0087800159     0.5726120844    -2.1929176458
   92      H     -12.3495117570     1.3721126127    -2.9612966562
   93      H     -12.5573077718     0.4654729853    -1.3861562173
   94      O     -10.9423724052     3.3976979312    -3.1674954966
   95      C     -10.9636945632     3.3391789698    -1.9413605543
   96      C     -10.5883050510     4.5113841997    -1.0112725943
   97      H     -11.2731863104     4.6941623000    -0.1736283819
   98      H     -10.6069776373     5.4043070650    -1.6487858029
   99      C      -9.1697379623     4.5358890554    -0.3838963702
  100      H      -8.5871099140     4.5028614361    -1.3131324724
  101      H      -8.8505223218     5.4633875200     0.1071789531
  102      C      -8.9318170369     3.2798119290     0.5065281835
  103      H      -9.6261356946     3.4637566027     1.3350853382
  104      H      -9.3776786771     2.3995001962     0.0260454565
  105      C      -7.4867237774     3.0293836758     0.8135512465
  106      C      -6.8206930283     4.1084051113     1.5810340040
  107      C      -7.0468899319     4.1480033322     2.9371280058
  108      H      -7.5655911058     3.3520940928     3.4639985543
  109      C      -6.3066657433     4.9483347496     3.7830403966
  110      H      -6.3134624802     4.8498731940     4.8637291244
  111      C      -5.4200590783     5.8636376533     3.2320928345
  112      H      -4.8093790679     6.5011707304     3.8641454435
  113      C      -5.2017051845     5.8522591531     1.7990694199
  114      H      -4.5634655758     6.5948202520     1.3298229854
  115      C      -5.9352664115     5.0034933355     0.9815068760
  116      H      -5.7356991601     5.0909188923    -0.0822485865
  117      C      -2.7990824192     0.9151309378    -1.1038537333
  118      C      -2.7261965700     0.4336819821     1.3166769019
  119      C      -3.4417847889    -4.0392059193     0.9807419039
  120      C      -7.2182142675    -0.8122470955    -3.0686267066
  121      C      -6.8775092295    -3.9071984756     1.7724499332
  122      C      -3.0130848935     1.3357110065     0.2892555039
  123      C      -8.0688202849    -3.1171223346    -1.6226469227
  124      C      -1.9973103963    -2.5447307178    -0.3322975476
  125      C      -6.4035650765     0.0254019643     2.8064333568
  126      C      -8.2351892643    -0.7595915233    -2.1038452564
  127      C      -7.1491745482     1.6854068258     1.2622735932
  128      C      -7.5754429620    -0.4573502905     2.2501820809
  129      C      -8.8272500719    -1.4629568646    -0.0299081318
  130      C      -7.6899306882    -3.9830497471    -0.5658582069
  131      C      -4.6786474204     1.4018755180     1.8470493691
  132      C      -5.3941841396    -4.7982852612     0.0686808707
  133      C      -6.6860757852     2.1267514009    -0.1142541042
  134      C      -7.2195335423     1.3175824815    -1.2658371369
  135      C      -5.6375727255    -4.4235025860     1.3863974345
  136      C      -4.2296378237    -2.6790466859    -3.1160727680
  137      C      -3.6749515998    -4.0565375060    -1.4191251455
  138      C      -2.5931998265    -3.1077212709    -1.5193840752
  139      C      -1.9053545868    -1.1615877247    -0.2956834800
  140      C      -6.1930937108     1.2285015937    -2.2782485493
  141      C      -6.0422810238     1.2444303355     2.1792231341
  142      C      -2.0756859136    -0.7944374543     1.0226521822
  143      C      -8.5989347961    -1.8704796948    -1.3131736062
  144      C      -3.6815507608     0.5359116431     2.3242985901
  145      C      -7.8025306010    -1.8361292515     2.1516540093
  146      C      -4.9838983881    -0.4452900707    -3.5018853972
  147      C      -2.5183022687    -2.9762691228     0.8865113274
  148      C      -8.0376053071     0.4725659292     1.2710340884
  149      C      -2.7176186896    -0.8711080448    -2.5362848687
  150      C      -8.4619853285    -2.3318495255     1.0184206387
  151      C      -5.4159034154    -0.8665709813     3.3140224697
  152      C      -6.0280270205    -4.0362321137    -2.1327116892
  153      C      -6.9806344222    -3.1541650765    -2.5863093966
  154      C      -5.6282936785    -2.2625184390     3.1399217188
  155      C      -6.2319450577     0.1535762896    -3.1761545374
  156      C      -8.2489305798     0.3080669874    -1.2143181456
  157      C      -5.1787130557    -1.7823581200    -3.6123990920
  158      C      -5.2075039606     2.2267988007    -0.4095266517
  159      C      -3.3873295617    -1.8297599406     2.8561085601
  160      C      -8.6234456277    -0.0963569703     0.0848545686
  161      C      -6.8189341764    -2.7624685130     2.5699154659
  162      C      -3.7654671539     0.0398252946    -2.9795929410
  163      C      -4.4544999580    -3.9103173876     1.9691536261
  164      C      -2.1432086992    -0.3349257730    -1.3901977278
  165      C      -4.0385280184    -4.5948242235    -0.1762294951
  166      C      -3.9799396546    -0.5446570265     3.1547601596
  167      C      -4.3963351424    -2.8614926105     2.8958129169
  168      C      -4.2659390017     1.9025179620     0.5996865893
  169      C      -4.9632451873     1.7243625636    -1.7173532760
  170      C      -4.6459179897    -3.8416851607    -2.4335307544
  171      C      -2.4872100292    -1.8854471743     1.7847221875
  172      C      -7.8889602685    -3.6264461142     0.7688230566
  173      C      -6.5285546392    -1.9777054468    -3.2752046059
  174      C      -6.4186426752    -4.5515643569    -0.8888302280
  175      C      -3.7555495988     1.1270550431    -2.0885743576
  176      C      -2.9520652797    -2.2638686153    -2.5719610473
 ----------------------------------------------------------------

    9   -5804.2816528290      9.48E-06 Convergence criterion met
 Total energy in the final basis set = -5804.2816528290

                    Orbital Energies (a.u.)
 --------------------------------------------------------------

 Alpha MOs
 -- Occupied --
-19.195 -19.185 -19.138 -19.137 -10.323 -10.318 -10.243 -10.242
-10.242 -10.242 -10.241 -10.238 -10.235 -10.234 -10.234 -10.232
-10.229 -10.227 -10.226 -10.225 -10.224 -10.223 -10.222 -10.222
-10.222 -10.221 -10.221 -10.221 -10.221 -10.220 -10.220 -10.220
-10.219 -10.219 -10.219 -10.219 -10.219 -10.219 -10.219 -10.219
-10.219 -10.219 -10.218 -10.218 -10.218 -10.218 -10.218 -10.218
-10.218 -10.217 -10.217 -10.217 -10.217 -10.217 -10.217 -10.217
-10.217 -10.217 -10.216 -10.216 -10.216 -10.216 -10.216 -10.216
-10.216 -10.215 -10.215 -10.215 -10.215 -10.215 -10.215 -10.214
-10.214 -10.214 -10.214 -10.214 -10.214 -10.214 -10.214 -10.214
-10.214 -10.213 -10.213 -10.213 -10.213 -10.213 -10.213 -10.213
-10.213 -10.213 -10.213 -10.212 -10.212 -10.212 -10.212 -10.212
-10.212 -10.212 -10.212 -10.212 -10.212 -10.211 -10.211 -10.211
-10.211 -10.211 -10.210 -10.210 -10.210 -10.210 -10.210 -10.210
-10.210 -10.210 -10.210 -10.210 -10.210 -10.209 -10.209 -10.209
-10.209 -10.209 -10.208 -10.208 -10.208 -10.206 -10.206 -10.206
-10.206 -10.206 -10.205 -10.204 -10.204 -10.203 -10.203 -10.202
-10.201 -10.201 -10.200 -10.200 -10.199 -10.199 -10.199 -10.199
-10.197 -10.195 -10.195 -10.195  -1.099  -1.073  -1.008  -0.997
 -0.983  -0.980  -0.964  -0.964  -0.963  -0.961  -0.960  -0.957
 -0.935  -0.933  -0.927  -0.926  -0.923  -0.922  -0.921  -0.920
 -0.919  -0.914  -0.898  -0.896  -0.888  -0.885  -0.885  -0.877
 -0.876  -0.875  -0.858  -0.857  -0.842  -0.840  -0.840  -0.836
 -0.836  -0.834  -0.820  -0.819  -0.810  -0.805  -0.798  -0.797
 -0.795  -0.795  -0.794  -0.791  -0.791  -0.787  -0.783  -0.782
 -0.772  -0.768  -0.768  -0.767  -0.766  -0.766  -0.764  -0.762
 -0.758  -0.747  -0.743  -0.742  -0.732  -0.731  -0.717  -0.715
 -0.715  -0.713  -0.711  -0.710  -0.709  -0.708  -0.708  -0.707
 -0.705  -0.705  -0.704  -0.702  -0.701  -0.699  -0.674  -0.672
 -0.660  -0.656  -0.654  -0.653  -0.646  -0.645  -0.630  -0.629
 -0.627  -0.627  -0.624  -0.623  -0.622  -0.622  -0.617  -0.617
 -0.615  -0.613  -0.613  -0.612  -0.611  -0.610  -0.608  -0.608
 -0.607  -0.606  -0.600  -0.600  -0.569  -0.565  -0.565  -0.561
 -0.560  -0.560  -0.556  -0.555  -0.554  -0.554  -0.553  -0.552
 -0.538  -0.536  -0.531  -0.531  -0.529  -0.527  -0.525  -0.525
 -0.523  -0.521  -0.517  -0.517  -0.516  -0.516  -0.515  -0.514
 -0.507  -0.506  -0.502  -0.499  -0.491  -0.490  -0.486  -0.486
 -0.484  -0.483  -0.481  -0.479  -0.478  -0.474  -0.474  -0.473
 -0.473  -0.470  -0.470  -0.470  -0.467  -0.465  -0.465  -0.465
 -0.464  -0.462  -0.462  -0.461  -0.460  -0.460  -0.459  -0.458
 -0.455  -0.454  -0.451  -0.451  -0.450  -0.447  -0.444  -0.444
 -0.442  -0.442  -0.441  -0.439  -0.437  -0.436  -0.432  -0.432
 -0.431  -0.430  -0.427  -0.427  -0.426  -0.425  -0.424  -0.423
 -0.421  -0.421  -0.420  -0.419  -0.419  -0.418  -0.418  -0.416
 -0.416  -0.415  -0.415  -0.414  -0.413  -0.412  -0.412  -0.412
 -0.411  -0.410  -0.409  -0.407  -0.406  -0.400  -0.397  -0.395
 -0.394  -0.392  -0.391  -0.390  -0.390  -0.387  -0.386  -0.385
 -0.383  -0.377  -0.376  -0.372  -0.370  -0.370  -0.366  -0.366
 -0.364  -0.363  -0.360  -0.359  -0.359  -0.358  -0.357  -0.357
 -0.355  -0.355  -0.354  -0.354  -0.352  -0.352  -0.351  -0.351
 -0.348  -0.347  -0.347  -0.346  -0.345  -0.344  -0.344  -0.342
 -0.341  -0.341  -0.340  -0.339  -0.337  -0.337  -0.335  -0.333
 -0.333  -0.330  -0.330  -0.328  -0.327  -0.325  -0.324  -0.324
 -0.312  -0.309  -0.296  -0.294  -0.285  -0.283  -0.272  -0.270
 -0.269  -0.269  -0.267  -0.267  -0.266  -0.265  -0.264  -0.263
 -0.262  -0.261  -0.260  -0.259  -0.259  -0.259  -0.255  -0.254
 -0.252  -0.248  -0.242  -0.240  -0.224  -0.220  -0.215  -0.212
 -0.210  -0.208  -0.207  -0.202  -0.196  -0.195

          Ground-State Mulliken Net Atomic Charges

     Atom                 Charge (a.u.)
  ----------------------------------------
      1 O                    -0.494080
      2 C                    -0.085858
      3 H                     0.122804
      4 H                     0.135512
      5 H                     0.130023
      6 O                    -0.468187
      7 C                     0.588352
      8 C                    -0.232273
      9 H                     0.130977
     10 H                     0.129294
     11 C                    -0.196554
     12 H                     0.115810
     13 H                     0.118170
     14 C                    -0.208577
     15 H                     0.138059
     16 H                     0.102418
     17 C                     0.016610
     18 C                     0.099054
     19 C                    -0.123356
     20 H                     0.097495
     21 C                    -0.093126
     22 H                     0.084572
     23 C                    -0.069911
     24 H                     0.096501
     25 C                    -0.096607
     26 H                     0.093109
     27 C                    -0.110267
     28 H                     0.087311
     29 C                    -0.008992
     30 C                    -0.005072
     31 C                    -0.001809
     32 C                    -0.017622
     33 C                    -0.000896
     34 C                    -0.001746
     35 C                    -0.012889
     36 C                    -0.002817
     37 C                    -0.018064
     38 C                     0.014613
     39 C                    -0.081015
     40 C                     0.025281
     41 C                     0.006755
     42 C                    -0.016675
     43 C                     0.036358
     44 C                    -0.010277
     45 C                    -0.062662
     46 C                     0.023901
     47 C                     0.028033
     48 C                    -0.000475
     49 C                     0.000561
     50 C                     0.001700
     51 C                    -0.002123
     52 C                     0.016426
     53 C                     0.006133
     54 C                     0.004534
     55 C                    -0.005878
     56 C                    -0.007341
     57 C                     0.005199
     58 C                    -0.014177
     59 C                     0.001773
     60 C                     0.016384
     61 C                     0.018888
     62 C                    -0.018475
     63 C                    -0.009875
     64 C                     0.004930
     65 C                     0.031846
     66 C                     0.017986
     67 C                     0.013728
     68 C                    -0.024680
     69 C                    -0.006753
     70 C                     0.016306
     71 C                     0.028802
     72 C                     0.027730
     73 C                    -0.033123
     74 C                    -0.014615
     75 C                    -0.019672
     76 C                    -0.008937
     77 C                    -0.017496
     78 C                    -0.027215
     79 C                    -0.011297
     80 C                    -0.016152
     81 C                     0.020052
     82 C                     0.004252
     83 C                     0.006572
     84 C                     0.019391
     85 C                    -0.014182
     86 C                    -0.014039
     87 C                     0.012003
     88 C                    -0.010671
     89 O                    -0.448323
     90 C                    -0.097016
     91 H                     0.121763
     92 H                     0.138098
     93 H                     0.124530
     94 O                    -0.472780
     95 C                     0.599446
     96 C                    -0.258593
     97 H                     0.123712
     98 H                     0.133509
     99 C                    -0.205850
    100 H                     0.110253
    101 H                     0.118230
    102 C                    -0.183619
    103 H                     0.110657
    104 H                     0.115916
    105 C                     0.044597
    106 C                     0.083551
    107 C                    -0.112081
    108 H                     0.092619
    109 C                    -0.080266
    110 H                     0.095395
    111 C                    -0.086646
    112 H                     0.089518
    113 C                    -0.098257
    114 H                     0.090514
    115 C                    -0.100034
    116 H                     0.099708
    117 C                    -0.025707
    118 C                    -0.008652
    119 C                    -0.018606
    120 C                     0.019690
    121 C                    -0.033368
    122 C                    -0.023865
    123 C                    -0.028054
    124 C                    -0.042147
    125 C                     0.000131
    126 C                    -0.015564
    127 C                    -0.101312
    128 C                     0.012726
    129 C                     0.010494
    130 C                    -0.006285
    131 C                     0.024869
    132 C                     0.012728
    133 C                    -0.095067
    134 C                     0.047659
    135 C                     0.015523
    136 C                    -0.007434
    137 C                     0.000267
    138 C                    -0.009966
    139 C                     0.048647
    140 C                    -0.006629
    141 C                     0.024699
    142 C                    -0.003447
    143 C                     0.021134
    144 C                     0.041979
    145 C                    -0.008599
    146 C                     0.007355
    147 C                     0.019313
    148 C                     0.044621
    149 C                    -0.024065
    150 C                    -0.016276
    151 C                    -0.019798
    152 C                     0.003365
    153 C                    -0.006297
    154 C                     0.016746
    155 C                    -0.014737
    156 C                    -0.027439
    157 C                     0.004448
    158 C                     0.014780
    159 C                    -0.022498
    160 C                    -0.010466
    161 C                     0.027772
    162 C                     0.006166
    163 C                     0.008567
    164 C                     0.010707
    165 C                    -0.016016
    166 C                    -0.049724
    167 C                    -0.001811
    168 C                     0.009938
    169 C                    -0.001499
    170 C                     0.004237
    171 C                     0.022999
    172 C                    -0.013677
    173 C                    -0.005044
    174 C                     0.005865
    175 C                     0.012740
    176 C                     0.015633
  ----------------------------------------
  Sum of atomic charges =     0.000000

                    Cartesian Multipole Moments
 -----------------------------------------------------------------
    Charge (ESU x 10^10)
                 0.0000
    Dipole Moment (Debye)
         X       3.1180      Y       1.2927      Z       2.8630
       Tot       4.4260
    Quadrupole Moments (Debye-Ang)
        XX    -751.5661     XY     -12.4719     YY    -791.2239
        XZ     -21.0306     YZ      16.7458     ZZ    -818.7774

 Total job time:  844.16s(wall), 7164.95s(cpu)
        *  Thank you very much for using Q-Chem.  Have a nice day.  *
