 Q-Chem 4.4, Q-Chem, Inc., Pleasanton, CA (2016)
 Q-Chem 4.4.2 for Intel X86 Linux

User input:
--------------------------------------------------------------
$comment
SP
$end

$rem
MEM_STATIC 5000
MEM_TOTAL 20000
JOBTYPE SP
EXCHANGE B3LYP
BASIS 6-31g(d,p)
$end

$molecule
0 1
O         -10.127000     17.780000      9.422000
C         -11.276000     18.507000      9.017000
H         -11.480000     18.373000      7.947000
H         -11.011000     19.556000      9.201000
H         -12.112000     18.113000      9.607000
O          -8.784000     18.746000      7.738000
C          -8.969000     17.975000      8.720000
C          -7.753000     17.365000      9.421000
H          -7.927000     17.671000     10.460000
H          -6.801000     17.816000      9.113000
C          -7.749000     15.852000      9.425000
H          -6.936000     15.559000     10.101000
H          -8.752000     15.609000      9.795000
C          -7.448000     15.244000      8.060000
H          -7.968000     15.793000      7.266000
H          -6.376000     15.325000      7.838000
C          -7.781000     13.748000      7.950000
C          -9.244000     13.524000      8.358000
C         -10.214000     13.878000      7.421000
H          -9.988000     14.140000      6.392000
C         -11.587000     13.736000      7.700000
H         -12.353000     13.903000      6.949000
C         -11.978000     13.211000      8.970000
H         -13.027000     12.968000      9.112000
C         -10.983000     12.777000      9.940000
H         -11.247000     12.331000     10.895000
C          -9.636000     12.949000      9.596000
H          -8.850000     12.596000     10.257000
C          -6.121000      8.538000      8.749000
C          -7.537000      8.326000      6.829000
C          -4.375000      7.612000      3.705000
C          -2.509000     12.120000      7.911000
C          -4.303000     10.962000      2.572000
C          -7.304000      8.898000      8.056000
C          -1.976000     12.183000      5.068000
C          -4.597000      6.709000      6.002000
C          -7.657000     11.809000      4.686000
C          -3.111000     13.034000      7.089000
C          -7.276000     12.912000      6.785000
C          -6.644000     12.780000      4.510000
C          -3.952000     13.572000      5.012000
C          -2.336000     11.521000      3.817000
C          -8.144000     10.513000      6.693000
C          -2.792000      9.166000      3.350000
C          -6.702000     12.698000      8.115000
C          -5.223000     12.907000      8.290000
C          -3.943000      9.598000      2.700000
C          -2.041000      8.746000      7.273000
C          -2.490000      7.758000      5.292000
C          -3.323000      7.178000      6.291000
C          -5.620000      6.876000      6.998000
C          -4.634000     11.888000      9.064000
C          -7.878000     11.746000      6.094000
C          -6.719000      7.346000      6.248000
C          -2.894000     13.000000      5.686000
C          -8.124000      9.329000      6.048000
C          -5.657000     12.555000      3.540000
C          -3.025000     10.118000      8.910000
C          -5.112000      7.023000      4.746000
C          -6.322000     13.460000      5.674000
C          -3.995000      7.979000      8.457000
C          -4.347000     12.957000      3.754000
C          -7.675000     10.612000      3.985000
C          -1.503000      9.951000      5.256000
C          -1.436000     11.153000      5.961000
C          -6.640000     10.387000      3.059000
C          -3.333000     11.482000      8.821000
C          -4.457000     13.462000      7.249000
C          -2.029000      9.916000      7.994000
C          -6.856000     11.242000      8.722000
C          -7.050000      8.355000      4.077000
C          -4.964000     13.758000      5.966000
C          -5.632000     11.346000      2.776000
C          -4.012000      9.168000      9.213000
C          -4.924000      8.663000      2.914000
C          -5.293000      7.528000      8.209000
C          -3.050000      7.985000      4.030000
C          -7.848000      9.351000      4.675000
C          -6.250000      9.085000      3.159000
C          -7.687000     10.283000      8.005000
C          -5.634000     10.909000      9.277000
C          -1.706000      8.754000      5.910000
C          -6.430000      7.339000      4.864000
C          -3.509000     11.931000      3.157000
C          -1.754000     11.082000      7.330000
C          -2.035000     10.144000      3.999000
C          -5.314000      9.546000      9.399000
C          -2.994000      7.778000      7.470000
O         -11.034000      8.239000     10.009000
C         -10.763000      9.326000      9.044000
H         -11.771000      9.615000      8.720000
H         -10.219000      8.996000      8.150000
H         -10.305000     10.134000      9.628000
O          -8.906000      7.870000     10.510000
C         -10.061000      7.553000     10.618000
C         -10.545000      6.505000     11.546000
H         -10.005000      6.710000     12.479000
H         -10.060000      5.583000     11.205000
C         -12.052000      6.379000     11.852000
H         -12.126000      5.694000     12.706000
H         -12.325000      7.342000     12.302000
C         -12.980000      5.997000     10.714000
H         -13.950000      6.050000     11.224000
H         -13.006000      6.738000      9.906000
C         -12.724000      4.641000     10.087000
C         -12.858000      3.554000     11.108000
C         -14.126000      3.356000     11.713000
H         -14.942000      4.015000     11.431000
C         -14.229000      2.397000     12.723000
H         -15.141000      2.092000     13.228000
C         -13.171000      1.556000     13.032000
H         -13.289000      0.692000     13.678000
C         -11.882000      1.823000     12.446000
H         -10.999000      1.283000     12.775000
C         -11.734000      2.855000     11.520000
H         -10.759000      3.014000     11.069000
C         -10.099000      1.421000      6.502000
C         -12.469000      0.659000      6.326000
C         -13.210000      2.512000      2.249000
C          -9.786000      6.396000      5.866000
C         -14.878000      5.313000      3.567000
C         -11.364000      1.160000      7.138000
C         -11.815000      7.224000      4.096000
C         -11.292000      1.343000      3.092000
C         -14.941000      3.650000      7.229000
C         -10.984000      6.940000      6.359000
C         -13.273000      4.501000      8.731000
C         -14.809000      5.015000      7.075000
C         -13.196000      7.153000      6.084000
C         -12.900000      6.796000      3.315000
C         -13.290000      2.129000      7.866000
C         -13.108000      4.731000      2.000000
C         -11.793000      4.391000      8.939000
C         -10.953000      5.400000      8.237000
C         -14.322000      4.456000      2.605000
C          -9.295000      4.229000      3.180000
C         -10.986000      3.461000      1.858000
C         -10.445000      2.368000      2.575000
C         -11.028000      0.725000      4.340000
C          -9.790000      4.787000      7.699000
C         -14.008000      3.299000      8.269000
C         -12.272000      0.563000      4.978000
C         -11.955000      7.398000      5.490000
C         -13.580000      1.306000      6.773000
C         -15.045000      5.584000      5.769000
C          -8.690000      4.447000      5.559000
C         -12.634000      1.440000      2.946000
C         -13.807000      5.550000      7.839000
C          -9.116000      2.240000      4.640000
C         -14.309000      6.668000      5.313000
C         -15.339000      2.822000      6.126000
C         -10.987000      5.849000      2.435000
C         -10.648000      6.646000      3.544000
C         -15.569000      3.393000      4.885000
C          -9.180000      5.326000      6.543000
C         -11.615000      6.423000      7.492000
C          -9.018000      5.009000      4.344000
C         -11.095000      3.088000      8.571000
C         -14.468000      1.480000      4.534000
C         -13.012000      6.606000      7.323000
C         -15.496000      4.810000      4.711000
C          -8.722000      3.046000      5.758000
C         -14.419000      3.069000      2.702000
C          -9.928000      1.222000      5.101000
C         -12.419000      3.562000      1.718000
C         -14.662000      1.655000      5.894000
C         -15.011000      2.540000      3.874000
C         -11.891000      1.974000      8.118000
C          -9.932000      3.418000      7.871000
C         -10.237000      4.624000      2.210000
C         -13.248000      0.973000      4.063000
C         -14.140000      6.460000      3.937000
C          -9.702000      6.212000      4.501000
C         -12.374000      5.869000      2.391000
C          -9.367000      2.535000      6.882000
C          -9.410000      2.854000      3.413000
$end

--------------------------------------------------------------

             Standard Nuclear Orientation (Angstroms)
    I     Atom           X                Y                Z
 ----------------------------------------------------------------
    1      O      -7.2347978912    -7.0777289358    -2.4524788485
    2      C      -7.0866971531    -7.8726667692    -3.6181953716
    3      H      -6.8148508549    -7.2625139518    -4.4889910593
    4      H      -8.0833670182    -8.3024040219    -3.7808516765
    5      H      -6.2852576383    -8.5888294746    -3.4013136443
    6      O      -8.7566478586    -5.6138812620    -3.5078383440
    7      C      -8.0728495779    -5.9983668756    -2.5191115242
    8      C      -8.3656479245    -5.4021213239    -1.1403739240
    9      H      -8.5397359509    -6.3077567451    -0.5462772627
   10      H      -9.2940480233    -4.8177305173    -1.1067637815
   11      C      -7.1756285401    -4.7109860058    -0.5115759938
   12      H      -7.4698410596    -4.4958975574     0.5233007876
   13      H      -6.3822350008    -5.4615085735    -0.6074955807
   14      C      -6.8290150883    -3.3817932971    -1.1723300011
   15      H      -6.9120303918    -3.4558846383    -2.2631351774
   16      H      -7.5427499688    -2.6076769306    -0.8619183847
   17      C      -5.4410634357    -2.8371982855    -0.8008310329
   18      C      -4.3815871578    -3.9082475667    -1.0964193506
   19      C      -4.0290508900    -4.0844004786    -2.4339070446
   20      H      -4.3350102285    -3.4120233635    -3.2294313360
   21      C      -3.0845510471    -5.0550270766    -2.8198319777
   22      H      -2.7170148979    -5.1357252642    -3.8381889788
   23      C      -2.4791637152    -5.8628900016    -1.8087584529
   24      H      -1.6487969534    -6.4980258055    -2.1032199133
   25      C      -2.7852559839    -5.6554160274    -0.4007303732
   26      H      -2.3080889790    -6.2207238683     0.3951186668
   27      C      -3.7349488161    -4.6736612116    -0.0899732233
   28      H      -3.9647099593    -4.4385727835     0.9450481523
   29      C      -2.3843267119     0.0762392354     2.7637647945
   30      C      -1.2741197794     0.5011538183     0.6845129665
   31      C      -2.5337720790     4.7811273525     0.0824177659
   32      C      -7.3941404383     1.2298149880     2.3757681322
   33      C      -5.1753023448     4.0122625899    -2.1407641502
   34      C      -1.9150380284    -0.3902131043     1.5101586577
   35      C      -7.6623913422     3.3322125615     0.4063334682
   36      C      -1.7735042575     3.6022915611     2.1252689637
   37      C      -3.8639328417     0.1900413402    -2.4673460609
   38      C      -7.7134364656     0.9553840380     1.0733773687
   39      C      -5.0476672239    -1.4026738803    -1.1147181967
   40      C      -5.2447385043     0.4915893399    -2.5166464270
   41      C      -7.5415560575     1.4967349396    -1.1600169822
   42      C      -6.8716138786     4.2004054259    -0.4618584192
   43      C      -2.6200351792    -0.7917023649    -0.6143128980
   44      C      -4.7173533841     5.2861823997    -0.0716019845
   45      C      -5.2823858848    -1.7867511129     0.2786819001
   46      C      -6.3621669438    -1.0674803302     1.0392536625
   47      C      -4.3261170372     4.7796718381    -1.3062299333
   48      C      -4.9975902822     3.4673544288     3.4982246349
   49      C      -3.8672563074     4.8903750847     2.1567838729
   50      C      -2.9366898004     4.0024387715     2.7682616563
   51      C      -1.3149588448     2.2561292369     2.3350714934
   52      C      -5.9502839366    -0.7228664733     2.3415407576
   53      C      -3.7324051880    -0.8097623921    -1.4582043596
   54      C      -0.9817870511     1.8280276349     1.0324101506
   55      C      -7.7662380672     1.9938345031     0.1061717947
   56      C      -1.6743512556     0.1695266278    -0.6156320916
   57      C      -5.6364500289     1.8252817007    -2.6997332045
   58      C      -5.5373645134     1.1898151909     3.7259696656
   59      C      -1.6566772290     3.9308115874     0.7762756213
   60      C      -6.0230384062    -0.3535908330    -1.7414691969
   61      C      -3.2382247233     1.8464609916     3.7907964982
   62      C      -6.7660632057     2.3259844278    -2.0698357131
   63      C      -2.8825213398     1.1688424229    -2.5249125815
   64      C      -6.2006963654     4.5289019091     1.6994998923
   65      C      -7.2162959555     3.5759464658     1.7816667696
   66      C      -3.3053956788     2.5047460570    -2.6508680255
   67      C      -6.4199780024     0.4302815845     2.9466217781
   68      C      -7.2302717576    -0.1834877212     0.3733609539
   69      C      -5.9547990369     2.4844868267     3.5795122526
   70      C      -4.0633269857    -1.6018020884     1.2745685697
   71      C      -1.4907998177     2.5327602013    -1.2226155729
   72      C      -7.1031365653     0.1753331396    -0.9852553395
   73      C      -4.6695783193     2.8763054799    -2.7804184742
   74      C      -4.1939385851     0.8146376216     3.8773848786
   75      C      -2.9947952799     4.4576725676    -1.2269781293
   76      C      -2.0760563526     1.3971493848     3.1605641932
   77      C      -3.6539844518     5.2342757531     0.8173733884
   78      C      -1.8086781186     1.2003417926    -1.5543361930
   79      C      -2.5224358143     3.2803084818    -1.8491319245
   80      C      -2.7695965730    -1.2302949765     0.7154844213
   81      C      -4.5725717036    -1.0360217246     2.4290209928
   82      C      -5.1574995137     4.5351577517     2.6014063137
   83      C      -1.1008178100     2.8871799731     0.1034031521
   84      C      -6.4491418915     3.6965027306    -1.7057348174
   85      C      -7.0173969212     2.5437653986     2.7172774892
   86      C      -5.9780115841     4.9026921339     0.3914424181
   87      C      -3.6993787595    -0.2903031279     3.2392622266
   88      C      -3.6568022670     3.1886989116     3.5913943771
   89      O       0.8205254682    -3.6579277611     1.4990556004
   90      C      -0.1658292368    -3.3747355981     0.4345643628
   91      H       0.2378319516    -3.9325832575    -0.4200844737
   92      H      -0.2056088226    -2.3183161509     0.1405107350
   93      H      -1.1063640721    -3.8265489336     0.7735967115
   94      O      -0.2147045943    -2.4746783255     3.0623103752
   95      C       0.7403945070    -3.1208344800     2.7210686267
   96      C       1.8282385889    -3.5317194133     3.6384087080
   97      H       1.2993095278    -3.8774453743     4.5355272109
   98      H       2.2701866174    -2.5914533997     3.9879394845
   99      C       2.8413908340    -4.6105706224     3.2023311953
  100      H       3.3941240650    -4.8839535654     4.1099460596
  101      H       2.2327529446    -5.5058417474     3.0221992095
  102      C       3.7559767610    -4.2971321382     2.0329549091
  103      H       4.2904241669    -5.2507488197     1.9391988682
  104      H       3.2187575154    -4.1409868955     1.0897501883
  105      C       4.6916103181    -3.1210489050     2.2299804797
  106      C       5.5916829940    -3.3539308795     3.4036930356
  107      C       6.5033675871    -4.4394138829     3.3436026702
  108      H       6.4958493870    -5.0727074641     2.4612514268
  109      C       7.2839255477    -4.7044162272     4.4709415845
  110      H       8.0651380966    -5.4550411386     4.5488081104
  111      C       7.2852466855    -3.8536369572     5.5656099764
  112      H       8.0140572946    -3.9412581533     6.3649181911
  113      C       6.3055483651    -2.7985487100     5.6220545657
  114      H       6.1763176806    -2.2074136732     6.5239352665
  115      C       5.4365973322    -2.5918524534     4.5512582451
  116      H       4.7297121966    -1.7692589909     4.6056678065
  117      C       5.7547623104     2.2592056371     2.0460813155
  118      C       7.8177021854     1.2356930361     1.0841972125
  119      C       6.9681199216     2.5035384513    -3.1907761184
  120      C       1.6652939305     0.5845454893    -0.3465849293
  121      C       5.7342179204    -0.6530549224    -4.1279810717
  122      C       6.7130785862     1.1847772088     2.0373940876
  123      C       2.3264576845     0.0559739181    -3.0333673144
  124      C       6.6793840260     3.7045915781    -1.1340707508
  125      C       6.9436912027    -2.2483407416    -0.6391389236
  126      C       1.9533869946    -0.7252763392    -0.7655815450
  127      C       5.1910116900    -2.5431763631     0.9744333500
  128      C       5.7925459256    -2.6919252120    -1.2575743434
  129      C       3.1545287360    -2.0327248689    -2.1300502544
  130      C       3.3600696502     0.0664542085    -3.9830548776
  131      C       7.1042817009    -0.9232911253     1.2748791552
  132      C       5.1658642142     1.7111330324    -4.2492344392
  133      C       4.3608072725    -1.6984222679     1.8925374529
  134      C       3.0764190545    -1.1898786069     1.3373660829
  135      C       6.1050798068     0.6946122812    -4.2516078069
  136      C       3.1746393457     3.5800883995    -1.2953552341
  137      C       4.8691336867     3.7088000063    -2.8149312442
  138      C       5.3710076415     4.0932270791    -1.5493257136
  139      C       6.9566463475     3.3629528856     0.2133462629
  140      C       2.8659325489     0.1580185534     1.7331572857
  141      C       6.6075739047    -2.1618377745     0.7590142864
  142      C       7.8239515784     2.2551746554     0.1754908942
  143      C       2.2219576866    -0.9925614294    -2.0938113684
  144      C       7.9729328702    -0.0376587714     0.6289856037
  145      C       5.5389303457    -2.2737086498    -2.6162012402
  146      C       2.5402274213     2.3547610188     0.7465273092
  147      C       7.4327100399     2.9129180539    -1.9324703674
  148      C       4.7262162591    -2.7924679179    -0.4050737823
  149      C       4.5766922607     3.6775081874     0.7404539437
  150      C       4.2498851251    -2.0200487076    -3.0619669330
  151      C       7.8829953756    -1.4216760437    -1.3426516442
  152      C       2.9653236062     2.2524510335    -3.3534745080
  153      C       2.0864611905     1.3992377740    -2.6609147720
  154      C       7.6216318251    -1.0417196688    -2.6489227675
  155      C       2.1106478433     1.0244286472     0.9098495894
  156      C       2.7051072852    -1.6003326102     0.0207594289
  157      C       2.3451511584     2.6610704619    -0.5830488552
  158      C       4.9732972109    -0.4337641905     2.4806981646
  159      C       8.4668005321     0.7430009970    -1.6022934148
  160      C       3.4253020092    -2.4511620885    -0.8573452109
  161      C       6.4664977854    -1.5333280981    -3.3326482260
  162      C       3.6566125140     2.8489058739     1.4627194530
  163      C       7.2542515863     1.2061881407    -3.6513733849
  164      C       5.8601975134     3.3429841078     1.1263255629
  165      C       5.6749656446     2.8545671800    -3.6541041311
  166      C       8.3959775098    -0.3182797890    -0.7154291676
  167      C       7.9899868187     0.3363552789    -2.8111511164
  168      C       6.3576124553    -0.1364835491     2.2066242254
  169      C       4.0256838648     0.5857916112     2.3623600323
  170      C       3.4789231027     3.4235919956    -2.6618138945
  171      C       8.1351889632     2.0357749020    -1.1709473846
  172      C       4.3626865881    -0.9492182538    -3.9596299929
  173      C       1.8109600230     1.5842729001    -1.2865123168
  174      C       3.8030804761     1.4032995718    -4.0628476270
  175      C       4.4125457918     1.9680398668     2.2328895362
  176      C       4.3202043997     3.9889246367    -0.6034935152
 ----------------------------------------------------------------

   10   -5804.2468205662      2.95E-06 Convergence criterion met
 Total energy in the final basis set = -5804.2468205662

                    Orbital Energies (a.u.)
 --------------------------------------------------------------

 Alpha MOs
 -- Occupied --
-19.203 -19.183 -19.137 -19.121 -10.322 -10.305 -10.249 -10.242
-10.239 -10.238 -10.238 -10.235 -10.235 -10.232 -10.231 -10.228
-10.227 -10.227 -10.226 -10.226 -10.225 -10.225 -10.225 -10.224
-10.223 -10.223 -10.222 -10.222 -10.221 -10.220 -10.220 -10.219
-10.219 -10.218 -10.218 -10.218 -10.218 -10.218 -10.218 -10.218
-10.218 -10.217 -10.217 -10.217 -10.217 -10.217 -10.217 -10.216
-10.216 -10.216 -10.216 -10.216 -10.215 -10.215 -10.215 -10.215
-10.215 -10.215 -10.215 -10.215 -10.214 -10.214 -10.214 -10.214
-10.213 -10.213 -10.213 -10.213 -10.213 -10.213 -10.212 -10.212
-10.212 -10.212 -10.212 -10.212 -10.212 -10.212 -10.212 -10.212
-10.212 -10.212 -10.212 -10.211 -10.211 -10.211 -10.211 -10.211
-10.211 -10.211 -10.211 -10.210 -10.210 -10.210 -10.210 -10.210
-10.210 -10.210 -10.210 -10.210 -10.210 -10.210 -10.210 -10.209
-10.209 -10.209 -10.209 -10.209 -10.209 -10.209 -10.208 -10.208
-10.208 -10.208 -10.207 -10.207 -10.207 -10.207 -10.207 -10.207
-10.207 -10.206 -10.206 -10.206 -10.206 -10.206 -10.205 -10.205
-10.205 -10.205 -10.205 -10.205 -10.204 -10.203 -10.203 -10.202
-10.202 -10.202 -10.201 -10.201 -10.201 -10.200 -10.200 -10.198
-10.197 -10.197 -10.195 -10.194  -1.096  -1.092  -1.002  -0.999
 -0.984  -0.981  -0.969  -0.964  -0.963  -0.961  -0.961  -0.957
 -0.938  -0.931  -0.929  -0.926  -0.924  -0.923  -0.922  -0.921
 -0.921  -0.920  -0.900  -0.895  -0.893  -0.888  -0.887  -0.881
 -0.879  -0.873  -0.856  -0.851  -0.841  -0.840  -0.838  -0.837
 -0.834  -0.833  -0.821  -0.821  -0.810  -0.807  -0.798  -0.796
 -0.796  -0.794  -0.794  -0.792  -0.791  -0.787  -0.784  -0.781
 -0.770  -0.768  -0.767  -0.766  -0.766  -0.764  -0.763  -0.762
 -0.756  -0.754  -0.743  -0.740  -0.733  -0.732  -0.717  -0.714
 -0.713  -0.712  -0.711  -0.711  -0.709  -0.709  -0.708  -0.708
 -0.707  -0.706  -0.705  -0.705  -0.705  -0.703  -0.675  -0.671
 -0.658  -0.656  -0.656  -0.654  -0.648  -0.644  -0.635  -0.629
 -0.629  -0.626  -0.626  -0.623  -0.622  -0.620  -0.620  -0.615
 -0.614  -0.612  -0.611  -0.611  -0.610  -0.608  -0.608  -0.607
 -0.606  -0.606  -0.603  -0.601  -0.569  -0.564  -0.564  -0.562
 -0.560  -0.559  -0.559  -0.557  -0.556  -0.552  -0.552  -0.550
 -0.539  -0.533  -0.533  -0.528  -0.527  -0.527  -0.524  -0.523
 -0.522  -0.522  -0.519  -0.517  -0.516  -0.515  -0.513  -0.511
 -0.508  -0.507  -0.502  -0.495  -0.493  -0.491  -0.488  -0.485
 -0.484  -0.482  -0.481  -0.479  -0.478  -0.477  -0.477  -0.475
 -0.474  -0.474  -0.470  -0.469  -0.468  -0.466  -0.465  -0.465
 -0.464  -0.463  -0.463  -0.461  -0.461  -0.460  -0.457  -0.456
 -0.454  -0.452  -0.451  -0.451  -0.449  -0.445  -0.443  -0.443
 -0.442  -0.439  -0.439  -0.439  -0.437  -0.437  -0.436  -0.433
 -0.433  -0.432  -0.432  -0.430  -0.427  -0.426  -0.425  -0.424
 -0.423  -0.422  -0.421  -0.420  -0.419  -0.419  -0.418  -0.417
 -0.416  -0.415  -0.414  -0.413  -0.413  -0.413  -0.412  -0.411
 -0.410  -0.408  -0.408  -0.408  -0.401  -0.398  -0.397  -0.395
 -0.395  -0.393  -0.391  -0.391  -0.390  -0.387  -0.385  -0.382
 -0.379  -0.375  -0.375  -0.372  -0.369  -0.367  -0.367  -0.365
 -0.363  -0.362  -0.362  -0.360  -0.360  -0.359  -0.358  -0.358
 -0.355  -0.355  -0.354  -0.353  -0.353  -0.352  -0.352  -0.351
 -0.350  -0.349  -0.349  -0.349  -0.346  -0.346  -0.345  -0.342
 -0.342  -0.341  -0.340  -0.339  -0.337  -0.336  -0.332  -0.332
 -0.331  -0.330  -0.328  -0.326  -0.324  -0.324  -0.324  -0.320
 -0.311  -0.306  -0.300  -0.294  -0.287  -0.286  -0.271  -0.270
 -0.269  -0.267  -0.265  -0.265  -0.264  -0.263  -0.262  -0.262
 -0.261  -0.261  -0.260  -0.257  -0.256  -0.255  -0.254  -0.253
 -0.249  -0.248  -0.244  -0.241  -0.221  -0.219  -0.211  -0.209
 -0.208  -0.206  -0.205  -0.203  -0.200  -0.195

          Ground-State Mulliken Net Atomic Charges

     Atom                 Charge (a.u.)
  ----------------------------------------
      1 O                    -0.453919
      2 C                    -0.081525
      3 H                     0.132998
      4 H                     0.130848
      5 H                     0.126548
      6 O                    -0.495727
      7 C                     0.594251
      8 C                    -0.238618
      9 H                     0.124137
     10 H                     0.128062
     11 C                    -0.193579
     12 H                     0.103540
     13 H                     0.131086
     14 C                    -0.172107
     15 H                     0.119988
     16 H                     0.104256
     17 C                     0.007202
     18 C                     0.086729
     19 C                    -0.111914
     20 H                     0.097849
     21 C                    -0.089103
     22 H                     0.096659
     23 C                    -0.102695
     24 H                     0.088985
     25 C                    -0.100154
     26 H                     0.101073
     27 C                    -0.108202
     28 H                     0.098525
     29 C                    -0.005794
     30 C                     0.033164
     31 C                    -0.026902
     32 C                    -0.048689
     33 C                     0.014615
     34 C                     0.018981
     35 C                    -0.055062
     36 C                    -0.010427
     37 C                    -0.007294
     38 C                     0.015595
     39 C                    -0.078790
     40 C                     0.015877
     41 C                    -0.040393
     42 C                    -0.017167
     43 C                     0.019352
     44 C                    -0.014315
     45 C                    -0.100169
     46 C                     0.022861
     47 C                     0.014380
     48 C                    -0.017526
     49 C                    -0.008992
     50 C                     0.006644
     51 C                    -0.042545
     52 C                     0.009966
     53 C                     0.050991
     54 C                     0.012332
     55 C                     0.066653
     56 C                    -0.012340
     57 C                     0.014438
     58 C                     0.017953
     59 C                     0.030282
     60 C                     0.028779
     61 C                    -0.017511
     62 C                    -0.021340
     63 C                    -0.023450
     64 C                     0.032197
     65 C                    -0.023351
     66 C                     0.014277
     67 C                     0.006965
     68 C                     0.000723
     69 C                     0.010979
     70 C                     0.003055
     71 C                    -0.016179
     72 C                     0.001653
     73 C                    -0.021810
     74 C                     0.003688
     75 C                     0.002657
     76 C                     0.023162
     77 C                    -0.000609
     78 C                    -0.006399
     79 C                     0.001456
     80 C                    -0.033729
     81 C                     0.021396
     82 C                    -0.014897
     83 C                    -0.000755
     84 C                    -0.009423
     85 C                     0.011764
     86 C                     0.024644
     87 C                    -0.011835
     88 C                     0.025204
     89 O                    -0.482624
     90 C                    -0.083915
     91 H                     0.121574
     92 H                     0.134729
     93 H                     0.135638
     94 O                    -0.480870
     95 C                     0.610881
     96 C                    -0.278559
     97 H                     0.137494
     98 H                     0.134369
     99 C                    -0.184768
    100 H                     0.109476
    101 H                     0.102426
    102 C                    -0.174837
    103 H                     0.103577
    104 H                     0.122031
    105 C                     0.021949
    106 C                     0.089004
    107 C                    -0.098531
    108 H                     0.094771
    109 C                    -0.094354
    110 H                     0.090061
    111 C                    -0.082794
    112 H                     0.094012
    113 C                    -0.101882
    114 H                     0.090757
    115 C                    -0.100404
    116 H                     0.097908
    117 C                     0.007446
    118 C                    -0.030297
    119 C                    -0.013764
    120 C                    -0.006298
    121 C                     0.010782
    122 C                    -0.021583
    123 C                    -0.008568
    124 C                    -0.014476
    125 C                    -0.000371
    126 C                    -0.030589
    127 C                    -0.077188
    128 C                     0.007168
    129 C                    -0.031489
    130 C                    -0.008516
    131 C                     0.030356
    132 C                     0.015017
    133 C                    -0.093069
    134 C                     0.010363
    135 C                     0.014095
    136 C                     0.001230
    137 C                    -0.010860
    138 C                     0.000470
    139 C                    -0.028974
    140 C                     0.004188
    141 C                    -0.009087
    142 C                     0.024901
    143 C                     0.021086
    144 C                     0.027504
    145 C                     0.005673
    146 C                     0.017009
    147 C                     0.037665
    148 C                     0.054755
    149 C                     0.015384
    150 C                    -0.008457
    151 C                     0.011575
    152 C                     0.001769
    153 C                    -0.007632
    154 C                    -0.013193
    155 C                    -0.015276
    156 C                     0.031233
    157 C                     0.002866
    158 C                    -0.004094
    159 C                    -0.003489
    160 C                    -0.015843
    161 C                    -0.021684
    162 C                    -0.032862
    163 C                    -0.013082
    164 C                    -0.004711
    165 C                    -0.009227
    166 C                    -0.020352
    167 C                     0.007708
    168 C                     0.002862
    169 C                     0.029476
    170 C                    -0.025992
    171 C                     0.011588
    172 C                    -0.015011
    173 C                     0.034138
    174 C                     0.006116
    175 C                    -0.001121
    176 C                     0.011425
  ----------------------------------------
  Sum of atomic charges =     0.000000

                    Cartesian Multipole Moments
 -----------------------------------------------------------------
    Charge (ESU x 10^10)
                 0.0000
    Dipole Moment (Debye)
         X       2.3335      Y      -6.4257      Z       1.5569
       Tot       7.0113
    Quadrupole Moments (Debye-Ang)
        XX    -825.2636     XY      -1.6488     YY    -771.4384
        XZ       3.9893     YZ      -2.7872     ZZ    -803.9568

 Total job time:  953.47s(wall), 8131.85s(cpu)
        *  Thank you very much for using Q-Chem.  Have a nice day.  *
