 Q-Chem 4.4, Q-Chem, Inc., Pleasanton, CA (2016)
 Q-Chem 4.4.2 for Intel X86 Linux

User input:
--------------------------------------------------------------
$comment
SP
$end

$rem
MEM_STATIC 5000
MEM_TOTAL 20000
JOBTYPE SP
EXCHANGE B3LYP
BASIS 6-31g(d,p)
$end

$molecule
0 1
O         -18.761000      0.491000      9.280000
C         -20.028000      1.140000      8.984000
H         -20.517000      1.247000      9.960000
H         -20.668000      0.646000      8.243000
H         -19.929000      2.149000      8.565000
O         -17.778000      1.030000      7.292000
C         -17.711000      0.672000      8.439000
C         -16.401000      0.524000      9.223000
H         -16.231000      1.447000      9.791000
H         -15.547000      0.438000      8.540000
C         -16.399000     -0.629000     10.160000
H         -17.318000     -0.561000     10.756000
H         -16.497000     -1.524000      9.534000
C         -15.038000     -0.737000     10.914000
H         -14.274000     -0.506000     10.162000
H         -15.000000      0.145000     11.565000
C         -14.740000     -1.919000     11.790000
C         -15.769000     -2.179000     12.822000
C         -16.956000     -2.934000     12.489000
H         -17.113000     -3.360000     11.503000
C         -17.866000     -3.239000     13.556000
H         -18.626000     -3.996000     13.383000
C         -17.749000     -2.579000     14.797000
H         -18.497000     -2.734000     15.570000
C         -16.743000     -1.600000     14.981000
H         -16.713000     -1.053000     15.919000
C         -15.681000     -1.530000     14.041000
H         -14.916000     -0.868000     14.436000
C         -10.506000     -4.318000     14.453000
C         -11.909000     -6.230000     13.905000
C          -9.172000     -7.886000     10.584000
C          -9.446000     -1.529000     10.361000
C         -11.072000     -6.384000      7.925000
C         -11.765000     -4.879000     14.234000
C          -9.313000     -3.094000      8.046000
C          -8.608000     -6.942000     12.750000
C         -14.056000     -5.402000     10.498000
C         -10.550000     -1.620000      9.532000
C         -14.023000     -3.107000     11.159000
C         -13.751000     -4.634000      9.359000
C         -11.741000     -2.990000      8.233000
C          -9.501000     -4.430000      7.656000
C         -13.492000     -4.975000     12.816000
C          -8.796000     -6.567000      8.800000
C         -13.261000     -2.196000     12.038000
C         -12.106000     -1.490000     11.437000
C         -10.072000     -7.128000      8.551000
C          -7.298000     -4.002000     11.408000
C          -7.441000     -6.174000     10.789000
C          -7.626000     -6.124000     12.135000
C          -9.436000     -6.418000     13.769000
C         -10.983000     -1.454000     12.291000
C         -14.100000     -4.538000     11.597000
C         -10.756000     -6.971000     13.626000
C         -10.486000     -2.374000      8.346000
C         -13.022000     -6.285000     12.973000
C         -12.893000     -5.088000      8.362000
C          -8.743000     -2.257000     12.289000
C          -9.428000     -7.771000     11.993000
C         -13.648000     -3.289000      9.772000
C          -8.368000     -4.260000     13.558000
C         -11.883000     -4.277000      7.767000
C         -13.484000     -6.734000     10.653000
C          -7.722000     -4.381000      9.119000
C          -8.250000     -3.074000      9.006000
C         -12.646000     -7.184000      9.614000
C          -9.683000     -1.501000     11.713000
C         -11.820000     -1.622000     10.038000
C          -7.832000     -2.679000     11.349000
C         -12.630000     -2.683000     13.310000
C         -11.796000     -7.882000     11.644000
C         -12.584000     -2.487000      9.245000
C         -12.342000     -6.394000      8.519000
C          -9.002000     -2.985000     13.443000
C         -10.299000     -7.937000      9.718000
C          -9.330000     -5.066000     14.194000
C          -8.223000     -6.994000     10.009000
C         -12.958000     -7.131000     11.871000
C         -11.620000     -7.982000     10.228000
C         -12.766000     -4.096000     13.640000
C         -11.312000     -2.187000     13.471000
C          -7.180000     -4.842000     10.336000
C         -10.719000     -7.817000     12.515000
C         -10.753000     -5.053000      7.489000
C          -8.332000     -2.236000     10.115000
C          -8.530000     -5.218000      8.360000
C         -10.286000     -2.998000     14.010000
C          -7.525000     -4.794000     12.565000
O         -11.034000      8.239000     10.009000
C         -10.763000      9.326000      9.044000
H         -11.771000      9.615000      8.720000
H         -10.219000      8.996000      8.150000
H         -10.305000     10.134000      9.628000
O          -8.906000      7.870000     10.510000
C         -10.061000      7.553000     10.618000
C         -10.545000      6.505000     11.546000
H         -10.005000      6.710000     12.479000
H         -10.060000      5.583000     11.205000
C         -12.052000      6.379000     11.852000
H         -12.126000      5.694000     12.706000
H         -12.325000      7.342000     12.302000
C         -12.980000      5.997000     10.714000
H         -13.950000      6.050000     11.224000
H         -13.006000      6.738000      9.906000
C         -12.724000      4.641000     10.087000
C         -12.858000      3.554000     11.108000
C         -14.126000      3.356000     11.713000
H         -14.942000      4.015000     11.431000
C         -14.229000      2.397000     12.723000
H         -15.141000      2.092000     13.228000
C         -13.171000      1.556000     13.032000
H         -13.289000      0.692000     13.678000
C         -11.882000      1.823000     12.446000
H         -10.999000      1.283000     12.775000
C         -11.734000      2.855000     11.520000
H         -10.759000      3.014000     11.069000
C         -10.099000      1.421000      6.502000
C         -12.469000      0.659000      6.326000
C         -13.210000      2.512000      2.249000
C          -9.786000      6.396000      5.866000
C         -14.878000      5.313000      3.567000
C         -11.364000      1.160000      7.138000
C         -11.815000      7.224000      4.096000
C         -11.292000      1.343000      3.092000
C         -14.941000      3.650000      7.229000
C         -10.984000      6.940000      6.359000
C         -13.273000      4.501000      8.731000
C         -14.809000      5.015000      7.075000
C         -13.196000      7.153000      6.084000
C         -12.900000      6.796000      3.315000
C         -13.290000      2.129000      7.866000
C         -13.108000      4.731000      2.000000
C         -11.793000      4.391000      8.939000
C         -10.953000      5.400000      8.237000
C         -14.322000      4.456000      2.605000
C          -9.295000      4.229000      3.180000
C         -10.986000      3.461000      1.858000
C         -10.445000      2.368000      2.575000
C         -11.028000      0.725000      4.340000
C          -9.790000      4.787000      7.699000
C         -14.008000      3.299000      8.269000
C         -12.272000      0.563000      4.978000
C         -11.955000      7.398000      5.490000
C         -13.580000      1.306000      6.773000
C         -15.045000      5.584000      5.769000
C          -8.690000      4.447000      5.559000
C         -12.634000      1.440000      2.946000
C         -13.807000      5.550000      7.839000
C          -9.116000      2.240000      4.640000
C         -14.309000      6.668000      5.313000
C         -15.339000      2.822000      6.126000
C         -10.987000      5.849000      2.435000
C         -10.648000      6.646000      3.544000
C         -15.569000      3.393000      4.885000
C          -9.180000      5.326000      6.543000
C         -11.615000      6.423000      7.492000
C          -9.018000      5.009000      4.344000
C         -11.095000      3.088000      8.571000
C         -14.468000      1.480000      4.534000
C         -13.012000      6.606000      7.323000
C         -15.496000      4.810000      4.711000
C          -8.722000      3.046000      5.758000
C         -14.419000      3.069000      2.702000
C          -9.928000      1.222000      5.101000
C         -12.419000      3.562000      1.718000
C         -14.662000      1.655000      5.894000
C         -15.011000      2.540000      3.874000
C         -11.891000      1.974000      8.118000
C          -9.932000      3.418000      7.871000
C         -10.237000      4.624000      2.210000
C         -13.248000      0.973000      4.063000
C         -14.140000      6.460000      3.937000
C          -9.702000      6.212000      4.501000
C         -12.374000      5.869000      2.391000
C          -9.367000      2.535000      6.882000
C          -9.410000      2.854000      3.413000
$end

--------------------------------------------------------------

             Standard Nuclear Orientation (Angstroms)
    I     Atom           X                Y                Z
 ----------------------------------------------------------------
    1      O      -0.5509355291    -5.4043437648    -3.9540629909
    2      C      -1.3628595668    -6.3604811242    -4.6893770102
    3      H      -1.0025175960    -7.3413606182    -4.3559477338
    4      H      -1.3654676120    -6.2605401464    -5.7814951352
    5      H      -2.4331614134    -6.3170232017    -4.4527161427
    6      O      -1.9363765788    -3.6273553981    -4.3171324641
    7      C      -1.0441531363    -4.1629623140    -3.7127116172
    8      C      -0.4127693956    -3.6060565387    -2.4305764724
    9      H      -0.9050036946    -4.0754075636    -1.5698395728
   10      H      -0.6130255767    -2.5319494899    -2.3336615111
   11      C       1.0511373282    -3.8431739618    -2.3403853879
   12      H       1.2175575911    -4.9090843172    -2.5417318812
   13      H       1.4959895873    -3.2928499785    -3.1780935596
   14      C       1.6372266558    -3.2411649331    -1.0263894102
   15      H       1.1223131252    -2.2818599050    -0.8953973527
   16      H       1.2112006664    -3.8478973403    -0.2179670933
   17      C       3.1197492623    -3.2112914279    -0.7928550557
   18      C       3.7790120416    -4.5290587006    -0.9354278537
   19      C       4.1613791843    -5.0113043543    -2.2435247529
   20      H       4.0166225233    -4.4208926564    -3.1428470177
   21      C       4.8868248599    -6.2480240189    -2.3057103041
   22      H       5.3870240065    -6.5045125523    -3.2355449378
   23      C       4.9559527292    -7.0862398121    -1.1734622651
   24      H       5.4174913722    -8.0672787160    -1.2483137844
   25      C       4.2909165853    -6.7134009106     0.0194547819
   26      H       4.2969640768    -7.4042993404     0.8576527224
   27      C       3.8440845693    -5.3728435598     0.1594231305
   28      H       3.5380048522    -5.2188363600     1.1900011184
   29      C       6.8758529135    -0.9527322185     2.6077510167
   30      C       8.1259224570    -1.1459852830     0.5282230920
   31      C       8.0986467507     3.3583781784    -0.4579370590
   32      C       2.5012997285     1.5125022356     1.9501124248
   33      C       5.3084327607     3.1015233863    -2.7129351755
   34      C       7.1431265892    -1.6113626318     1.4066957469
   35      C       2.6882363199     3.4332048204    -0.0752505777
   36      C       8.4277429819     2.2237548620     1.6645882296
   37      C       5.5167487753    -0.9531836951    -2.6431933496
   38      C       2.0695989577     1.2039710678     0.6723092463
   39      C       3.8812738074    -1.9638160343    -1.2258440969
   40      C       4.3070665042    -0.2571940682    -2.8232967703
   41      C       2.4923613051     1.4678722574    -1.5035607314
   42      C       3.6237061001     3.8978076562    -1.0140692478
   43      C       6.3668029540    -2.0344718184    -0.6477553305
   44      C       6.0957714283     4.3396776489    -0.7568263226
   45      C       3.6053522009    -2.1709185383     0.2108819800
   46      C       2.7908978433    -1.1405886496     0.8955325623
   47      C       6.3464924391     3.6862104063    -1.9876868093
   48      C       5.3325057214     3.1904354608     2.9474362024
   49      C       6.8743974557     4.0589845042     1.5369800921
   50      C       7.4956711310     3.1012126873     2.2753114317
   51      C       8.4234441645     0.8461003826     1.9817169978
   52      C       3.2840498080    -0.8173856115     2.1777501475
   53      C       5.3255812269    -1.8843837059    -1.6172525577
   54      C       8.7171656094     0.0939578838     0.7914786292
   55      C       2.1239839131     2.1715343830    -0.3475297154
   56      C       7.6105440499    -1.4097355938    -0.8041578111
   57      C       4.2648091869     1.1103225757    -3.0770713705
   58      C       4.1583644146     1.0910487180     3.2984041435
   59      C       8.6900016761     2.2914524070     0.3010166620
   60      C       3.3684415056    -0.8019326228    -1.9219388952
   61      C       6.5510928731     1.1728211800     3.4749226642
   62      C       3.3511662364     1.9988150617    -2.4385702653
   63      C       6.7868239116    -0.2444671844    -2.7435081322
   64      C       4.4674352324     4.3461962751     1.0822799116
   65      C       3.2436860482     3.6524043974     1.2268232086
   66      C       6.7182704289     1.1320175706    -3.0348071866
   67      C       3.1402023398     0.5182047228     2.6487059468
   68      C       2.2216809472    -0.0523565294     0.1551515944
   69      C       4.1217749776     2.4553836956     3.1285327741
   70      C       4.7181961495    -2.3214656664     1.2069883540
   71      C       8.4132190386     0.7516695474    -1.5139230386
   72      C       2.5013308638     0.0889896264    -1.2096147550
   73      C       5.5118163991     1.7948100538    -3.1787370244
   74      C       5.3450572959     0.4094985053     3.5351113739
   75      C       7.6119937925     3.0435287809    -1.7566767386
   76      C       7.4851111999     0.2944883822     2.8955115308
   77      C       7.1204559295     4.1664786459     0.1878232306
   78      C       7.7863860413    -0.4667340924    -1.8111552105
   79      C       7.7988214561     1.7584808381    -2.3231687587
   80      C       6.0876299964    -2.2268139344     0.7174406151
   81      C       4.4823724948    -1.5656882665     2.3826790981
   82      C       5.5228069025     4.1544035395     1.9970368106
   83      C       8.8862295052     1.0220516832    -0.2387957511
   84      C       3.9710837740     3.2306404868    -2.2047575864
   85      C       3.0767623261     2.6939230468     2.2229652525
   86      C       4.7365510354     4.4263386540    -0.2781126361
   87      C       5.5362287878    -0.8907542295     3.0420492214
   88      C       6.5783516431     2.5489908472     3.1795110759
   89      O      -6.2007260958    -2.1951562208     4.8805539142
   90      C      -7.5994685195    -1.7177412922     4.9233279485
   91      H      -8.0947748800    -2.3620886020     4.1857310711
   92      H      -7.7222533761    -0.6823551591     4.5813170795
   93      H      -7.9609813051    -1.9481630225     5.9332281080
   94      O      -5.4546375869    -0.7927063890     6.4271735849
   95      C      -5.2233184141    -1.6367728969     5.6024183663
   96      C      -3.8943920708    -2.2630017172     5.4139077869
   97      H      -3.5548100470    -2.4722707730     6.4361624085
   98      H      -3.2342099467    -1.4374618529     5.1236777135
   99      C      -3.7563511949    -3.5432464950     4.5639201249
  100      H      -2.7427542012    -3.9183969673     4.7533937574
  101      H      -4.3791878668    -4.2860908954     5.0783661153
  102      C      -4.0794554988    -3.4535886279     3.0841508606
  103      H      -3.9477854192    -4.5022168448     2.7894461730
  104      H      -5.1262207226    -3.1967087098     2.8818731456
  105      C      -3.2097110832    -2.5080567958     2.2798404689
  106      C      -1.7713591931    -2.9160074956     2.3616088413
  107      C      -1.4007224117    -4.1753515635     1.8233394897
  108      H      -2.1768489088    -4.8037475652     1.3962480175
  109      C      -0.0753393537    -4.5891365293     1.9734452918
  110      H       0.3662083774    -5.4913253912     1.5600630732
  111      C       0.8908235124    -3.7442649041     2.4977040572
  112      H       1.9495692060    -3.9781776795     2.4521149154
  113      C       0.4722304554    -2.4997489506     3.0911397268
  114      H       1.1753822507    -1.8823042208     3.6423833739
  115      C      -0.8697436678    -2.1227383378     3.0540931284
  116      H      -1.1533686598    -1.1647689191     3.4797202620
  117      C      -2.0357120281     2.5062825802     0.3852753894
  118      C      -1.6659640764     1.0431555779    -1.6024534220
  119      C      -5.3777490559     2.4071699892    -3.8310709198
  120      C      -6.6055430139     1.7339638217     2.3277630975
  121      C      -7.2570604311    -0.4156586828    -2.9011375655
  122      C      -1.5950451390     1.2482313488    -0.1587483162
  123      C      -8.3784927358     1.0366331923     0.2527439947
  124      C      -3.7889965475     3.6704900666    -2.5520784066
  125      C      -3.9845793920    -2.1886978542    -1.3756927303
  126      C      -6.9232024241     0.3872038647     2.0837976960
  127      C      -3.8194440824    -2.0707606681     1.0162207610
  128      C      -5.2242457789    -2.3782002772    -0.7997751312
  129      C      -7.4281044170    -1.1699813792     0.5559933584
  130      C      -8.4948292551     0.8076869449    -1.1272630452
  131      C      -2.2194766429    -0.9046490227    -0.5506824980
  132      C      -7.4016374188     2.0136994581    -2.9676921872
  133      C      -3.4974433160    -1.0523048344     2.0673283774
  134      C      -4.6493009485    -0.2828132093     2.6128479768
  135      C      -6.9603716965     0.8164129766    -3.5036358815
  136      C      -6.0590315732     4.3134448429     0.0475944838
  137      C      -6.2065106602     4.0474446962    -2.2117157739
  138      C      -4.8606230268     4.3301624553    -1.8799385190
  139      C      -2.6060813551     3.2950557963    -1.8673268046
  140      C      -4.2979702199     1.0838006700     2.7762959014
  141      C      -3.0807264387    -2.0115278345    -0.2680146981
  142      C      -2.2477301223     2.0239725199    -2.3539022853
  143      C      -7.8358055929     0.0493856059     1.1035934926
  144      C      -2.0881477008    -0.2394564644    -1.7739361795
  145      C      -6.3920238885    -1.9333771066    -1.5233216975
  146      C      -4.9952100667     3.2847941725     2.0182166192
  147      C      -4.0571060073     2.7222887743    -3.4798287108
  148      C      -5.2152974253    -2.2313074620     0.5612051875
  149      C      -3.5981232506     4.1298250235     0.2207302384
  150      C      -7.4927336264    -1.4100469070    -0.8605611261
  151      C      -3.8629402995    -1.5972873717    -2.6780116514
  152      C      -7.9671154988     3.0355460738    -0.8290351238
  153      C      -8.0639719100     2.4048603730     0.4251041757
  154      C      -4.9991243088    -1.1873785460    -3.3563055786
  155      C      -5.2942330561     2.0830265518     2.6870490629
  156      C      -5.9591921648    -0.6201871117     2.1544138471
  157      C      -6.1186444646     3.6080259061     1.2881006010
  158      C      -2.5059015934     0.0557187242     1.7363211178
  159      C      -3.4415235950     0.3834753382    -3.6745336273
  160      C      -6.3173581626    -1.6199557624     1.2132237690
  161      C      -6.2984500369    -1.4237634119    -2.8091594853
  162      C      -3.6936174933     3.5325768994     1.5203346120
  163      C      -5.7276831464     1.0724347067    -4.1015646499
  164      C      -2.5578872486     3.5279843213    -0.4603614069
  165      C      -6.4825583907     3.0261585084    -3.1935824518
  166      C      -2.9213296593    -0.6242998118    -2.8797704447
  167      C      -4.7304452021     0.0743784953    -3.9862855039
  168      C      -1.8432998719     0.0391840260     0.4554985062
  169      C      -3.0466069528     1.2561418146     2.2033233858
  170      C      -6.9660948324     4.0753830632    -1.0035248399
  171      C      -3.1427279460     1.7232914130    -3.3866030007
  172      C      -7.9947197856    -0.4022855793    -1.6958024101
  173      C      -7.1296310988     2.6645802018     1.4540229573
  174      C      -8.1212926665     2.0140209564    -1.7557609923
  175      C      -2.7404648827     2.5183732804     1.5787565282
  176      C      -4.7694820417     4.4712753342    -0.4723002572
 ----------------------------------------------------------------

    9   -5804.2732708857      8.15E-06 Convergence criterion met
 Total energy in the final basis set = -5804.2732708857

                    Orbital Energies (a.u.)
 --------------------------------------------------------------

 Alpha MOs
 -- Occupied --
-19.198 -19.184 -19.141 -19.119 -10.319 -10.304 -10.252 -10.248
-10.240 -10.240 -10.236 -10.236 -10.232 -10.232 -10.232 -10.232
-10.228 -10.227 -10.226 -10.226 -10.225 -10.225 -10.225 -10.224
-10.224 -10.223 -10.223 -10.223 -10.223 -10.222 -10.222 -10.221
-10.221 -10.220 -10.220 -10.220 -10.219 -10.219 -10.219 -10.219
-10.219 -10.218 -10.218 -10.218 -10.218 -10.218 -10.218 -10.218
-10.218 -10.218 -10.218 -10.217 -10.217 -10.217 -10.217 -10.217
-10.217 -10.217 -10.217 -10.217 -10.217 -10.217 -10.216 -10.216
-10.216 -10.216 -10.216 -10.216 -10.216 -10.216 -10.216 -10.216
-10.215 -10.215 -10.215 -10.215 -10.215 -10.215 -10.214 -10.214
-10.214 -10.214 -10.214 -10.214 -10.214 -10.214 -10.213 -10.213
-10.213 -10.213 -10.213 -10.213 -10.213 -10.213 -10.213 -10.213
-10.212 -10.212 -10.212 -10.212 -10.212 -10.212 -10.212 -10.212
-10.212 -10.212 -10.212 -10.211 -10.211 -10.211 -10.211 -10.211
-10.211 -10.210 -10.210 -10.210 -10.210 -10.210 -10.209 -10.209
-10.209 -10.208 -10.208 -10.208 -10.208 -10.207 -10.207 -10.207
-10.206 -10.205 -10.205 -10.205 -10.205 -10.205 -10.204 -10.204
-10.204 -10.203 -10.202 -10.201 -10.201 -10.200 -10.198 -10.197
-10.195 -10.195 -10.195 -10.188  -1.100  -1.092  -1.020  -1.002
 -0.984  -0.983  -0.969  -0.965  -0.965  -0.964  -0.961  -0.958
 -0.939  -0.938  -0.929  -0.926  -0.926  -0.924  -0.923  -0.921
 -0.920  -0.918  -0.900  -0.897  -0.894  -0.889  -0.888  -0.883
 -0.880  -0.874  -0.859  -0.852  -0.841  -0.840  -0.839  -0.838
 -0.835  -0.834  -0.822  -0.821  -0.811  -0.807  -0.798  -0.796
 -0.796  -0.795  -0.794  -0.794  -0.792  -0.789  -0.786  -0.785
 -0.770  -0.770  -0.768  -0.767  -0.767  -0.766  -0.764  -0.763
 -0.759  -0.750  -0.743  -0.742  -0.735  -0.733  -0.717  -0.715
 -0.714  -0.714  -0.712  -0.712  -0.711  -0.710  -0.709  -0.709
 -0.709  -0.708  -0.706  -0.706  -0.705  -0.703  -0.675  -0.673
 -0.658  -0.657  -0.657  -0.656  -0.649  -0.649  -0.635  -0.632
 -0.629  -0.627  -0.627  -0.626  -0.625  -0.623  -0.622  -0.619
 -0.616  -0.613  -0.612  -0.612  -0.610  -0.609  -0.609  -0.608
 -0.607  -0.606  -0.603  -0.601  -0.575  -0.568  -0.565  -0.562
 -0.561  -0.560  -0.559  -0.558  -0.556  -0.555  -0.554  -0.553
 -0.540  -0.539  -0.535  -0.534  -0.528  -0.527  -0.524  -0.524
 -0.523  -0.521  -0.520  -0.519  -0.517  -0.516  -0.516  -0.515
 -0.510  -0.508  -0.500  -0.495  -0.493  -0.492  -0.489  -0.487
 -0.485  -0.483  -0.481  -0.480  -0.480  -0.478  -0.477  -0.477
 -0.474  -0.474  -0.470  -0.469  -0.468  -0.468  -0.467  -0.466
 -0.465  -0.464  -0.463  -0.463  -0.462  -0.461  -0.460  -0.460
 -0.458  -0.455  -0.453  -0.452  -0.451  -0.447  -0.444  -0.443
 -0.442  -0.442  -0.440  -0.440  -0.438  -0.438  -0.437  -0.434
 -0.433  -0.432  -0.431  -0.430  -0.429  -0.427  -0.426  -0.425
 -0.424  -0.423  -0.422  -0.420  -0.420  -0.419  -0.419  -0.418
 -0.418  -0.416  -0.415  -0.415  -0.414  -0.413  -0.413  -0.412
 -0.412  -0.411  -0.410  -0.408  -0.403  -0.401  -0.400  -0.398
 -0.395  -0.392  -0.391  -0.391  -0.391  -0.387  -0.386  -0.385
 -0.384  -0.381  -0.376  -0.373  -0.372  -0.369  -0.369  -0.368
 -0.367  -0.364  -0.363  -0.361  -0.360  -0.360  -0.359  -0.359
 -0.358  -0.357  -0.355  -0.354  -0.354  -0.353  -0.353  -0.352
 -0.351  -0.350  -0.350  -0.348  -0.346  -0.346  -0.345  -0.345
 -0.342  -0.342  -0.341  -0.339  -0.338  -0.338  -0.334  -0.333
 -0.332  -0.332  -0.330  -0.329  -0.328  -0.326  -0.325  -0.324
 -0.312  -0.308  -0.305  -0.293  -0.291  -0.286  -0.272  -0.271
 -0.270  -0.269  -0.268  -0.266  -0.265  -0.264  -0.264  -0.262
 -0.261  -0.261  -0.260  -0.260  -0.259  -0.257  -0.255  -0.253
 -0.250  -0.249  -0.245  -0.242  -0.223  -0.220  -0.214  -0.210
 -0.209  -0.209  -0.206  -0.205  -0.200  -0.194

          Ground-State Mulliken Net Atomic Charges

     Atom                 Charge (a.u.)
  ----------------------------------------
      1 O                    -0.460102
      2 C                    -0.091788
      3 H                     0.126013
      4 H                     0.131717
      5 H                     0.128170
      6 O                    -0.461276
      7 C                     0.594395
      8 C                    -0.259354
      9 H                     0.128503
     10 H                     0.127446
     11 C                    -0.193959
     12 H                     0.129144
     13 H                     0.097371
     14 C                    -0.185139
     15 H                     0.109468
     16 H                     0.112498
     17 C                     0.015315
     18 C                     0.076444
     19 C                    -0.095377
     20 H                     0.101333
     21 C                    -0.096796
     22 H                     0.095860
     23 C                    -0.079391
     24 H                     0.091166
     25 C                    -0.100742
     26 H                     0.091479
     27 C                    -0.100577
     28 H                     0.093499
     29 C                    -0.008730
     30 C                    -0.020439
     31 C                    -0.021663
     32 C                     0.006302
     33 C                    -0.006168
     34 C                     0.005727
     35 C                    -0.025003
     36 C                     0.006348
     37 C                    -0.010305
     38 C                    -0.002545
     39 C                    -0.084406
     40 C                     0.010178
     41 C                     0.006022
     42 C                     0.008438
     43 C                     0.013435
     44 C                     0.006813
     45 C                    -0.070667
     46 C                     0.053777
     47 C                    -0.000838
     48 C                     0.009567
     49 C                     0.006944
     50 C                     0.005842
     51 C                    -0.012235
     52 C                    -0.024489
     53 C                     0.033429
     54 C                     0.004970
     55 C                    -0.010863
     56 C                    -0.025639
     57 C                    -0.016651
     58 C                     0.025390
     59 C                    -0.002381
     60 C                     0.026528
     61 C                    -0.006876
     62 C                    -0.003807
     63 C                    -0.017474
     64 C                     0.000652
     65 C                     0.010139
     66 C                     0.007375
     67 C                     0.005084
     68 C                     0.004615
     69 C                    -0.023217
     70 C                    -0.003682
     71 C                     0.006762
     72 C                    -0.012792
     73 C                     0.021633
     74 C                     0.002120
     75 C                    -0.008987
     76 C                    -0.014379
     77 C                     0.015728
     78 C                     0.018494
     79 C                    -0.024680
     80 C                     0.016961
     81 C                    -0.013346
     82 C                    -0.020367
     83 C                     0.018443
     84 C                     0.003117
     85 C                    -0.004161
     86 C                    -0.010082
     87 C                     0.004705
     88 C                    -0.000972
     89 O                    -0.479143
     90 C                    -0.086149
     91 H                     0.125370
     92 H                     0.139108
     93 H                     0.134966
     94 O                    -0.481219
     95 C                     0.610498
     96 C                    -0.277705
     97 H                     0.138963
     98 H                     0.134000
     99 C                    -0.186518
    100 H                     0.108160
    101 H                     0.104791
    102 C                    -0.174574
    103 H                     0.102914
    104 H                     0.122804
    105 C                     0.020281
    106 C                     0.090615
    107 C                    -0.100071
    108 H                     0.095668
    109 C                    -0.107337
    110 H                     0.090915
    111 C                    -0.084918
    112 H                     0.096872
    113 C                    -0.097928
    114 H                     0.096784
    115 C                    -0.103619
    116 H                     0.101389
    117 C                     0.007341
    118 C                    -0.035227
    119 C                    -0.012611
    120 C                    -0.010851
    121 C                     0.010950
    122 C                    -0.020243
    123 C                    -0.008694
    124 C                    -0.014970
    125 C                    -0.009798
    126 C                    -0.027064
    127 C                    -0.076891
    128 C                     0.007451
    129 C                    -0.031294
    130 C                    -0.008401
    131 C                     0.030006
    132 C                     0.014868
    133 C                    -0.092619
    134 C                     0.011544
    135 C                     0.013600
    136 C                     0.003585
    137 C                    -0.011981
    138 C                     0.001085
    139 C                    -0.028413
    140 C                     0.014057
    141 C                    -0.015679
    142 C                     0.025337
    143 C                     0.017949
    144 C                     0.012753
    145 C                     0.004959
    146 C                     0.014818
    147 C                     0.038042
    148 C                     0.054515
    149 C                     0.015738
    150 C                    -0.008283
    151 C                     0.059199
    152 C                     0.001076
    153 C                    -0.005814
    154 C                    -0.016111
    155 C                    -0.022540
    156 C                     0.029832
    157 C                    -0.002716
    158 C                    -0.005251
    159 C                    -0.005522
    160 C                    -0.016079
    161 C                    -0.020719
    162 C                    -0.029774
    163 C                    -0.012398
    164 C                    -0.003554
    165 C                    -0.009449
    166 C                    -0.000744
    167 C                     0.010294
    168 C                     0.001538
    169 C                     0.029614
    170 C                    -0.026783
    171 C                     0.013112
    172 C                    -0.014828
    173 C                     0.026640
    174 C                     0.007347
    175 C                    -0.001205
    176 C                     0.011312
  ----------------------------------------
  Sum of atomic charges =     0.000000

                    Cartesian Multipole Moments
 -----------------------------------------------------------------
    Charge (ESU x 10^10)
                 0.0000
    Dipole Moment (Debye)
         X       0.3223      Y      -6.9327      Z      -0.8538
       Tot       6.9925
    Quadrupole Moments (Debye-Ang)
        XX    -817.7062     XY       3.4063     YY    -768.3621
        XZ      -0.5313     YZ      -1.0453     ZZ    -824.9839

 Total job time:  879.69s(wall), 7580.34s(cpu)
        *  Thank you very much for using Q-Chem.  Have a nice day.  *
