 Q-Chem 4.4, Q-Chem, Inc., Pleasanton, CA (2016)
 Q-Chem 4.4.2 for Intel X86 Linux

User input:
--------------------------------------------------------------
$comment
SP
$end

$rem
MEM_STATIC 5000
MEM_TOTAL 20000
JOBTYPE SP
EXCHANGE B3LYP
BASIS 6-31g(d,p)
$end

$molecule
0 1
O          30.379000    -11.839000      7.965000
C          31.353000    -10.922000      8.567000
H          32.262000    -10.974000      7.956000
H          31.579000    -11.205000      9.603000
H          30.959000     -9.901000      8.643000
O          29.218000    -12.016000      9.825000
C          29.254000    -12.195000      8.617000
C          28.306000    -12.928000      7.739000
H          27.556000    -13.464000      8.335000
H          28.812000    -13.765000      7.244000
C          27.579000    -12.026000      6.738000
H          26.953000    -11.292000      7.260000
H          28.365000    -11.387000      6.318000
C          26.756000    -12.895000      5.742000
H          27.399000    -13.090000      4.875000
H          26.139000    -13.662000      6.226000
C          25.666000    -12.000000      5.049000
C          26.206000    -11.226000      3.900000
C          26.321000    -11.783000      2.594000
H          25.885000    -12.767000      2.446000
C          26.807000    -11.007000      1.509000
H          26.989000    -11.438000      0.529000
C          27.223000     -9.705000      1.708000
H          27.640000     -9.052000      0.948000
C          27.283000     -9.233000      2.960000
H          27.674000     -8.235000      3.138000
C          26.719000     -9.945000      4.070000
H          26.523000     -9.528000      5.053000
C          21.545000     -8.556000      5.779000
C          20.938000     -9.505000      3.648000
C          17.501000    -12.010000      5.366000
C          22.391000    -11.937000      9.265000
C          19.401000    -14.961000      5.668000
C          21.937000     -8.999000      4.467000
C          20.696000    -14.149000      8.850000
C          18.115000     -9.712000      5.747000
C          22.392000    -13.290000      3.526000
C          22.959000    -13.113000      8.781000
C          24.247000    -12.580000      4.833000
C          22.650000    -14.251000      4.541000
C          22.447000    -14.724000      7.266000
C          19.749000    -14.686000      7.998000
C          22.764000    -10.866000      3.534000
C          17.855000    -13.524000      6.974000
C          24.489000    -11.455000      5.832000
C          24.336000    -11.701000      7.287000
C          18.249000    -14.129000      5.756000
C          19.187000    -10.345000      9.018000
C          17.564000    -11.175000      7.593000
C          18.054000     -9.915000      7.137000
C          19.192000     -8.912000      5.241000
C          23.660000    -10.566000      7.818000
C          23.261000    -12.231000      3.703000
C          19.596000     -9.511000      3.982000
C          22.072000    -14.172000      8.501000
C          21.469000    -10.669000      3.024000
C          21.598000    -14.947000      5.038000
C          21.577000     -9.779000      8.928000
C          17.911000    -10.764000      4.856000
C          23.726000    -13.815000      5.342000
C          20.061000     -8.648000      7.504000
C          21.480000    -15.308000      6.397000
C          21.062000    -13.103000      2.989000
C          18.933000    -12.835000      9.007000
C          20.196000    -12.950000      9.481000
C          19.991000    -13.865000      3.461000
C          22.748000    -10.660000      8.845000
C          23.830000    -13.002000      7.707000
C          20.504000    -10.590000      9.430000
C          23.794000    -10.158000      5.631000
C          19.327000    -11.785000      3.166000
C          23.483000    -13.985000      6.728000
C          20.262000    -14.787000      4.577000
C          21.336000     -8.821000      7.961000
C          18.010000    -13.184000      4.756000
C          20.192000     -8.475000      6.101000
C          17.347000    -12.196000      6.715000
C          20.676000    -11.773000      2.733000
C          18.882000    -13.025000      3.638000
C          23.028000     -9.882000      4.484000
C          23.389000     -9.587000      6.853000
C          18.386000    -11.478000      8.719000
C          18.832000    -10.655000      3.801000
C          20.155000    -15.241000      6.769000
C          21.033000    -11.860000      9.581000
C          18.636000    -13.813000      8.091000
C          22.292000     -8.713000      6.933000
C          18.982000     -9.401000      8.030000
O          23.795000    -14.142000     11.562000
C          23.527000    -12.952000     12.368000
H          23.694000    -13.142000     13.435000
H          22.523000    -12.516000     12.297000
H          24.246000    -12.173000     12.086000
O          21.834000    -15.133000     12.161000
C          22.849000    -15.113000     11.538000
C          23.364000    -16.335000     10.652000
H          24.041000    -16.933000     11.274000
H          23.984000    -15.924000      9.846000
C          22.147000    -17.300000     10.206000
H          21.848000    -17.915000     11.064000
H          21.305000    -16.667000      9.902000
C          22.462000    -18.209000      8.955000
H          21.511000    -18.682000      8.682000
H          22.754000    -17.511000      8.161000
C          23.557000    -19.202000      9.211000
C          23.330000    -20.077000     10.365000
C          22.268000    -21.028000     10.411000
H          21.636000    -21.094000      9.530000
C          21.983000    -21.782000     11.567000
H          21.147000    -22.476000     11.566000
C          22.741000    -21.520000     12.715000
H          22.503000    -22.186000     13.538000
C          23.816000    -20.634000     12.713000
H          24.251000    -20.449000     13.691000
C          24.063000    -19.850000     11.556000
H          24.924000    -19.188000     11.588000
C          29.033000    -19.929000      9.211000
C          28.246000    -22.076000      8.341000
C          29.574000    -21.566000      4.122000
C          27.034000    -16.210000      6.440000
C          26.379000    -20.684000      3.021000
C          28.063000    -20.959000      9.233000
C          26.692000    -17.127000      3.840000
C          30.648000    -20.993000      6.221000
C          24.802000    -21.732000      6.568000
C          25.735000    -16.570000      5.993000
C          24.316000    -19.923000      8.016000
C          24.329000    -20.709000      5.733000
C          24.726000    -18.132000      4.722000
C          26.839000    -18.216000      2.995000
C          26.031000    -21.664000      8.552000
C          28.678000    -19.882000      2.959000
C          25.024000    -18.930000      8.798000
C          25.465000    -17.732000      8.131000
C          27.759000    -20.938000      2.944000
C          30.200000    -17.525000      5.767000
C          30.475000    -19.389000      4.451000
C          30.872000    -19.658000      5.764000
C          30.287000    -21.159000      7.544000
C          26.697000    -17.299000      8.605000
C          24.870000    -21.300000      7.891000
C          29.364000    -22.225000      7.543000
C          25.586000    -17.035000      4.715000
C          26.987000    -22.537000      7.984000
C          24.698000    -20.554000      4.405000
C          28.904000    -16.769000      7.680000
C          30.044000    -21.985000      5.421000
C          24.083000    -19.617000      6.555000
C          30.297000    -18.750000      7.871000
C          24.859000    -19.231000      3.907000
C          25.708000    -22.625000      5.914000
C          28.914000    -17.632000      3.739000
C          27.956000    -16.756000      4.274000
C          26.144000    -22.447000      4.647000
C          27.518000    -16.525000      7.753000
C          25.007000    -17.456000      6.843000
C          29.324000    -16.564000      6.317000
C          26.267000    -19.382000      9.502000
C          27.903000    -23.099000      5.818000
C          24.329000    -18.366000      6.011000
C          25.564000    -21.444000      3.806000
C          29.441000    -17.824000      8.476000
C          28.315000    -22.020000      3.646000
C          30.132000    -19.971000      8.382000
C          29.777000    -20.288000      3.655000
C          26.797000    -23.025000      6.694000
C          27.510000    -22.792000      4.546000
C          26.736000    -20.715000      9.368000
C          27.178000    -18.306000      9.368000
C          30.032000    -18.062000      4.497000
C          29.197000    -22.737000      6.280000
C          25.945000    -19.302000      2.990000
C          28.173000    -16.239000      5.567000
C          28.223000    -18.543000      2.986000
C          28.574000    -18.614000      9.321000
C          30.658000    -18.570000      6.574000
$end

--------------------------------------------------------------

             Standard Nuclear Orientation (Angstroms)
    I     Atom           X                Y                Z
 ----------------------------------------------------------------
    1      O       0.6331061658     5.0026165191     4.9850571705
    2      C       0.4996454804     5.7483516086     6.2412563672
    3      H       1.0559392278     6.6852121236     6.1182293700
    4      H       0.9041568701     5.1786254305     7.0875681405
    5      H      -0.5515633812     5.9186242431     6.5047334236
    6      O       0.1628921029     3.0775087695     5.9398916521
    7      C       0.2780661812     3.7049927253     4.8979704378
    8      C       0.2676915766     3.2202443093     3.4937666275
    9      H       0.2776596885     2.1231110343     3.4589641311
   10      H       1.2202143439     3.4503723853     3.0024709464
   11      C      -0.9302615443     3.7225356648     2.6833681365
   12      H      -1.8701682975     3.3476604731     3.1066409634
   13      H      -0.9943221249     4.7922175184     2.9161641285
   14      C      -0.7620146716     3.3254365971     1.1872025974
   15      H      -0.2593891815     4.1612001277     0.6851767639
   16      H      -0.4920929524     2.2733241480     1.0341154983
   17      C      -2.1571574751     3.4041499726     0.4683460314
   18      C      -2.5059731731     4.7858928227     0.0440922097
   19      C      -2.0442191099     5.3449394960    -1.1820236095
   20      H      -1.5186244858     4.6726624887    -1.8543701842
   21      C      -2.4240594834     6.6547552214    -1.5766133410
   22      H      -2.0102562760     7.1327438852    -2.4595509055
   23      C      -3.2149328757     7.4338614816    -0.7548021019
   24      H      -3.5234581075     8.4544321690    -0.9576460159
   25      C      -3.5067004801     6.9837610916     0.4724587929
   26      H      -4.0690252657     7.6151656884     1.1548722090
   27      C      -3.2235698224     5.6371209032     0.8768561641
   28      H      -3.6343137603     5.1413989571     1.7510089937
   29      C      -7.3414775488     1.8241539227     0.5241569137
   30      C      -7.0276853805     2.1810228616    -1.8389744909
   31      C      -6.9848484078    -2.2931792453    -2.8485281057
   32      C      -3.9780505833    -1.1757869187     2.5208509302
   33      C      -3.4728726338    -2.5681904305    -2.8484220839
   34      C      -6.8070724770     2.6271591646    -0.5439492611
   35      C      -3.2244808984    -3.1228499242     0.6289544261
   36      C      -8.4508886147    -1.0161798929    -1.4262202045
   37      C      -3.1280100879     1.4544495067    -2.6874135122
   38      C      -2.7158655727    -1.0692684202     1.9417146696
   39      C      -2.5427572813     2.2966592798    -0.5422944362
   40      C      -2.1605901334     0.5998571081    -2.0923669058
   41      C      -1.7882251212    -1.3096163751    -0.1160525800
   42      C      -3.3906713352    -3.5296652040    -0.6817568567
   43      C      -4.8544539772     2.8394508369    -1.6312947630
   44      C      -5.4915207014    -3.6800375229    -1.9266970586
   45      C      -3.2616084264     2.4200398964     0.7956966903
   46      C      -3.0945452817     1.3734489385     1.8338138670
   47      C      -4.8218672662    -3.0052417169    -2.9759824807
   48      C      -7.1701797786    -2.4506544830     1.4980543256
   49      C      -7.5261242852    -3.1254636830    -0.6863426282
   50      C      -8.2664332088    -1.9434866981    -0.3854953166
   51      C      -8.4750621603     0.3744982102    -1.0778022756
   52      C      -4.3859768031     1.1480241989     2.3892869195
   53      C      -3.4555255637     2.4377745790    -1.7742999293
   54      C      -7.8059892555     1.0821883774    -2.1541916454
   55      C      -2.4033055091    -2.0061475628     0.9361234609
   56      C      -5.8029135589     2.3478456103    -2.5449044844
   57      C      -2.2055071610    -0.7199802739    -2.3991905451
   58      C      -6.2093678918    -0.5201181442     2.6772175726
   59      C      -7.7636534999    -1.1410649330    -2.6321690524
   60      C      -1.8387504368     1.0753425288    -0.8040323901
   61      C      -8.0773969637    -0.2022922750     1.2578349239
   62      C      -1.9292321914    -1.7423355370    -1.4666735976
   63      C      -4.0903379529     0.9498795782    -3.6421764501
   64      C      -5.3207536500    -3.7852822273     0.4669729617
   65      C      -4.4586757804    -3.2562891390     1.3670052164
   66      C      -4.0945425399    -0.3995584666    -4.0019934658
   67      C      -4.8095112277    -0.0960967287     2.7992755885
   68      C      -2.3322854977     0.1818956969     1.4813966510
   69      C      -6.1741460502    -1.9109862087     2.3232409505
   70      C      -4.7248079963     2.6743135843     0.8008842205
   71      C      -6.1723683343     0.2968507299    -3.7740127668
   72      C      -1.7890585477     0.0429391981     0.1658227944
   73      C      -3.1465559065    -1.2845185105    -3.3040335359
   74      C      -7.1622937233     0.3172344514     2.1279389636
   75      C      -5.7645266084    -2.1538701397    -3.5562460432
   76      C      -8.1967156102     0.7655789658     0.2260949752
   77      C      -6.8709794944    -3.2519621458    -1.8759633417
   78      C      -5.3988287554     1.4595511392    -3.5348511518
   79      C      -5.4207431568    -0.8544559874    -4.0347069081
   80      C      -5.4489757857     2.9393411490    -0.3755010917
   81      C      -5.3735091147     1.9738480889     1.8362029871
   82      C      -6.7478756010    -3.3534181559     0.4874268312
   83      C      -7.3479865671     0.1321061610    -3.0557293980
   84      C      -2.7545223214    -2.8170279481    -1.7165344046
   85      C      -4.8332924290    -2.2362025282     2.2142092491
   86      C      -4.7492420101    -3.9239763890    -0.7731429099
   87      C      -6.7239199772     1.5982041906     1.7415078755
   88      C      -8.0913474221    -1.5836256914     0.9421620275
   89      O      -1.2774146408    -2.5702805247     4.2153724228
   90      C      -2.3593548247    -2.6508801901     5.1954076938
   91      H      -2.0633229147    -3.2343975756     6.0753796076
   92      H      -3.3088566234    -3.0835359581     4.8571647034
   93      H      -2.5699787554    -1.6391908766     5.5634406987
   94      O      -1.6208912570    -4.7003677926     3.4865685772
   95      C      -1.0599977030    -3.6513042949     3.4264171113
   96      C       0.1910242679    -3.3734675841     2.4770721843
   97      H       1.0993225627    -3.5511258372     3.0655012392
   98      H       0.1955947993    -2.3033324987     2.2367661101
   99      C       0.2252065158    -4.3945479097     1.2250911371
  100      H       0.5773328271    -5.3733624108     1.5739739731
  101      H      -0.7960304098    -4.4927596809     0.8384406621
  102      C       1.0908431905    -3.8970828586     0.0029173890
  103      H       0.8948336272    -4.6059416087    -0.8105680279
  104      H       0.6705198352    -2.9204242654    -0.2660998396
  105      C       2.5495992953    -3.7698309756     0.3291804501
  106      C       3.1656535845    -4.9905421924     0.8575848766
  107      C       3.3010120691    -6.1803099426     0.0826708288
  108      H       2.9422362000    -6.1367654062    -0.9416947061
  109      C       3.7854815657    -7.3844888428     0.6315965826
  110      H       3.8466052824    -8.2742445934     0.0110068667
  111      C       4.0726554363    -7.4028190760     2.0021100522
  112      H       4.5005361617    -8.3444915541     2.3302868777
  113      C       3.9990671413    -6.2598337020     2.7950754977
  114      H       4.1492535043    -6.4356723876     3.8564231377
  115      C       3.4678845204    -5.0666508918     2.2396713164
  116      H       3.4486032841    -4.1926821490     2.8849587490
  117      C       6.3857152716    -0.4143482553     2.4599209152
  118      C       7.6074360889    -1.4590280805     0.6154913808
  119      C       7.8115552601     2.0772775030    -2.0820117581
  120      C       2.0955986642     1.5591554178     0.6695059502
  121      C       5.1598875523     0.9608913614    -4.0620345737
  122      C       6.6381914499    -1.5654535124     1.6766607627
  123      C       2.5216266597     2.3767772612    -1.9511519192
  124      C       8.0758867202     1.8773057394     0.3216825181
  125      C       5.2123497965    -2.6138752912    -2.2222701617
  126      C       1.5949239427     0.7674179579    -0.3978677510
  127      C       3.5301700151    -2.9161827637    -0.5838982944
  128      C       4.0748881539    -1.9777183211    -2.7408917203
  129      C       2.1981508191     0.0757373413    -2.4548221161
  130      C       3.4489409162     2.4453097650    -2.9792309849
  131      C       5.9697352485    -2.8809488101    -0.0299289445
  132      C       5.8781913440     2.9248983894    -2.8133692635
  133      C       3.1851318169    -2.4167388222     0.7315261204
  134      C       2.4568019914    -1.1769196450     0.8149411851
  135      C       6.1803129484     1.8170628996    -3.6142094871
  136      C       5.0044872759     3.4618585271     1.0213552392
  137      C       6.6110226033     3.5207907391    -0.6210662158
  138      C       7.1173072971     2.9154950170     0.5327240154
  139      C       8.0496800126     0.8029592444     1.1896104050
  140      C       2.8601507508    -0.4114914689     1.9018719490
  141      C       4.9604137816    -3.1177532038    -0.9478242846
  142      C       8.3580410489    -0.3202378766     0.3948603193
  143      C       1.8271367721     1.1755126037    -1.6828759074
  144      C       7.2153970216    -2.3223969478    -0.3974007994
  145      C       4.1144771747    -0.9002924283    -3.6134489705
  146      C       3.7066293669     1.8536338864     2.3019407901
  147      C       8.4811371991     1.4587834816    -0.9626426623
  148      C       3.0854187988    -2.0985929892    -1.7739358217
  149      C       6.1335239089     1.7550425416     2.3438171377
  150      C       3.1264285951     0.1130545032    -3.4680460795
  151      C       6.4408268281    -2.0495454115    -2.6895783786
  152      C       4.2427661411     3.6971667857    -1.2463396116
  153      C       2.9921393795     3.1574477223    -0.9057503639
  154      C       6.5042502511    -0.9507889099    -3.4742952827
  155      C       2.6905101784     0.9909909106     1.8445461125
  156      C       1.9097028329    -0.6237410522    -0.3424524192
  157      C       3.7348804406     3.0088844780     1.4412480763
  158      C       4.3156388600    -2.1903669347     1.6884370849
  159      C       8.1212306292    -0.7356695783    -1.9811361719
  160      C       2.2037952083    -1.0355057913    -1.6554518383
  161      C       5.3190672944    -0.3928482583    -4.0519920789
  162      C       4.9061947791     1.2678431117     2.8048344071
  163      C       7.4089630426     1.2848966610    -3.1900844577
  164      C       7.0377781980     0.7795027413     2.2446542478
  165      C       6.8858902919     3.0802089871    -1.9092263276
  166      C       7.4412452078    -1.9459566953    -1.7186234654
  167      C       7.5884863659    -0.1331524256    -3.0855992227
  168      C       5.6596777749    -2.4235374407     1.2960126841
  169      C       3.9865251894    -0.9937716124     2.3707103633
  170      C       5.2836003255     3.8187605632    -0.2917364720
  171      C       8.6179503084     0.0450979249    -0.9028988760
  172      C       3.7904282372     1.3345737035    -3.7718903136
  173      C       2.7591480466     2.8111483557     0.4403621082
  174      C       4.5332138063     3.2312118995    -2.5005075420
  175      C       5.0610839818    -0.1692262895     2.8304248530
  176      C       6.1495584221     2.8211723044     1.5023658776
 ----------------------------------------------------------------

    9   -5804.2290346033      8.02E-06 Convergence criterion met
 Total energy in the final basis set = -5804.2290346033

                    Orbital Energies (a.u.)
 --------------------------------------------------------------

 Alpha MOs
 -- Occupied --
-19.194 -19.182 -19.136 -19.125 -10.315 -10.309 -10.244 -10.243
-10.240 -10.240 -10.239 -10.238 -10.236 -10.233 -10.231 -10.229
-10.228 -10.227 -10.227 -10.226 -10.226 -10.226 -10.225 -10.225
-10.225 -10.224 -10.223 -10.222 -10.222 -10.221 -10.221 -10.221
-10.221 -10.221 -10.220 -10.220 -10.220 -10.220 -10.220 -10.220
-10.220 -10.220 -10.220 -10.220 -10.219 -10.219 -10.219 -10.219
-10.219 -10.219 -10.218 -10.218 -10.218 -10.218 -10.218 -10.218
-10.218 -10.218 -10.217 -10.217 -10.217 -10.217 -10.217 -10.217
-10.217 -10.217 -10.217 -10.217 -10.216 -10.216 -10.216 -10.216
-10.216 -10.216 -10.216 -10.216 -10.216 -10.215 -10.215 -10.215
-10.215 -10.215 -10.215 -10.215 -10.215 -10.215 -10.214 -10.214
-10.214 -10.214 -10.214 -10.214 -10.214 -10.213 -10.213 -10.213
-10.213 -10.213 -10.213 -10.213 -10.213 -10.213 -10.213 -10.213
-10.213 -10.212 -10.212 -10.212 -10.212 -10.212 -10.212 -10.212
-10.212 -10.212 -10.211 -10.211 -10.211 -10.211 -10.211 -10.211
-10.211 -10.211 -10.211 -10.210 -10.210 -10.210 -10.209 -10.209
-10.207 -10.207 -10.207 -10.206 -10.205 -10.203 -10.203 -10.202
-10.201 -10.201 -10.200 -10.200 -10.200 -10.199 -10.198 -10.197
-10.196 -10.194 -10.194 -10.190  -1.096  -1.089  -1.019  -0.993
 -0.988  -0.985  -0.971  -0.968  -0.967  -0.966  -0.965  -0.963
 -0.939  -0.935  -0.931  -0.930  -0.929  -0.928  -0.928  -0.925
 -0.923  -0.923  -0.902  -0.899  -0.895  -0.893  -0.891  -0.887
 -0.879  -0.876  -0.856  -0.852  -0.844  -0.842  -0.842  -0.841
 -0.840  -0.838  -0.826  -0.823  -0.810  -0.801  -0.800  -0.798
 -0.798  -0.797  -0.796  -0.796  -0.795  -0.794  -0.786  -0.782
 -0.774  -0.773  -0.773  -0.771  -0.770  -0.769  -0.765  -0.762
 -0.749  -0.747  -0.742  -0.739  -0.737  -0.734  -0.720  -0.718
 -0.717  -0.717  -0.716  -0.714  -0.714  -0.713  -0.712  -0.711
 -0.710  -0.709  -0.709  -0.705  -0.705  -0.699  -0.677  -0.674
 -0.663  -0.661  -0.660  -0.658  -0.652  -0.649  -0.636  -0.634
 -0.630  -0.629  -0.627  -0.627  -0.624  -0.623  -0.618  -0.617
 -0.617  -0.616  -0.616  -0.615  -0.614  -0.611  -0.610  -0.610
 -0.608  -0.608  -0.606  -0.604  -0.569  -0.566  -0.565  -0.564
 -0.563  -0.562  -0.561  -0.560  -0.559  -0.558  -0.556  -0.554
 -0.538  -0.537  -0.535  -0.535  -0.530  -0.529  -0.527  -0.526
 -0.525  -0.524  -0.521  -0.520  -0.520  -0.518  -0.518  -0.515
 -0.509  -0.508  -0.502  -0.497  -0.495  -0.492  -0.489  -0.488
 -0.485  -0.483  -0.483  -0.481  -0.480  -0.479  -0.477  -0.477
 -0.475  -0.473  -0.472  -0.470  -0.469  -0.469  -0.469  -0.468
 -0.467  -0.466  -0.465  -0.465  -0.464  -0.462  -0.461  -0.459
 -0.458  -0.457  -0.455  -0.453  -0.448  -0.447  -0.445  -0.445
 -0.444  -0.442  -0.441  -0.441  -0.441  -0.438  -0.434  -0.434
 -0.433  -0.431  -0.431  -0.430  -0.428  -0.427  -0.426  -0.424
 -0.423  -0.423  -0.422  -0.422  -0.421  -0.421  -0.420  -0.419
 -0.419  -0.418  -0.417  -0.417  -0.416  -0.415  -0.414  -0.414
 -0.413  -0.413  -0.411  -0.411  -0.407  -0.403  -0.401  -0.401
 -0.394  -0.394  -0.392  -0.391  -0.390  -0.389  -0.389  -0.383
 -0.382  -0.380  -0.375  -0.374  -0.372  -0.370  -0.369  -0.368
 -0.366  -0.365  -0.364  -0.363  -0.362  -0.361  -0.361  -0.361
 -0.358  -0.358  -0.357  -0.356  -0.355  -0.354  -0.352  -0.351
 -0.350  -0.349  -0.349  -0.347  -0.347  -0.346  -0.345  -0.345
 -0.344  -0.342  -0.342  -0.340  -0.339  -0.339  -0.337  -0.336
 -0.335  -0.334  -0.332  -0.332  -0.331  -0.329  -0.326  -0.325
 -0.310  -0.303  -0.301  -0.292  -0.290  -0.289  -0.273  -0.272
 -0.271  -0.270  -0.269  -0.268  -0.267  -0.266  -0.266  -0.265
 -0.263  -0.261  -0.261  -0.260  -0.260  -0.259  -0.255  -0.253
 -0.252  -0.248  -0.244  -0.242  -0.227  -0.224  -0.216  -0.213
 -0.212  -0.209  -0.209  -0.208  -0.200  -0.199

          Ground-State Mulliken Net Atomic Charges

     Atom                 Charge (a.u.)
  ----------------------------------------
      1 O                    -0.463019
      2 C                    -0.084858
      3 H                     0.125433
      4 H                     0.139831
      5 H                     0.122984
      6 O                    -0.483160
      7 C                     0.571712
      8 C                    -0.246277
      9 H                     0.132501
     10 H                     0.137922
     11 C                    -0.202112
     12 H                     0.113681
     13 H                     0.125217
     14 C                    -0.166664
     15 H                     0.127941
     16 H                     0.122250
     17 C                    -0.018341
     18 C                     0.102839
     19 C                    -0.116067
     20 H                     0.088977
     21 C                    -0.100930
     22 H                     0.092595
     23 C                    -0.060923
     24 H                     0.090874
     25 C                    -0.091339
     26 H                     0.085712
     27 C                    -0.117724
     28 H                     0.085815
     29 C                     0.014005
     30 C                     0.021133
     31 C                    -0.009315
     32 C                     0.024304
     33 C                     0.009122
     34 C                    -0.032722
     35 C                    -0.013685
     36 C                    -0.009109
     37 C                     0.007541
     38 C                     0.009697
     39 C                    -0.102413
     40 C                    -0.006341
     41 C                    -0.015657
     42 C                     0.015357
     43 C                    -0.007024
     44 C                    -0.006800
     45 C                    -0.065773
     46 C                     0.006835
     47 C                    -0.006359
     48 C                    -0.014520
     49 C                    -0.026392
     50 C                     0.011412
     51 C                    -0.051879
     52 C                     0.001515
     53 C                     0.027897
     54 C                    -0.009532
     55 C                    -0.008817
     56 C                     0.000669
     57 C                     0.016344
     58 C                    -0.018752
     59 C                     0.016113
     60 C                     0.031468
     61 C                    -0.006367
     62 C                    -0.043704
     63 C                     0.008227
     64 C                     0.011141
     65 C                    -0.014142
     66 C                    -0.035508
     67 C                    -0.028968
     68 C                    -0.027348
     69 C                    -0.000118
     70 C                     0.050024
     71 C                    -0.006367
     72 C                     0.038932
     73 C                    -0.008359
     74 C                     0.003468
     75 C                     0.005720
     76 C                     0.024589
     77 C                     0.021479
     78 C                    -0.005350
     79 C                     0.010898
     80 C                     0.007972
     81 C                     0.004923
     82 C                    -0.013665
     83 C                     0.019461
     84 C                     0.015109
     85 C                     0.029217
     86 C                     0.002133
     87 C                    -0.012675
     88 C                     0.028110
     89 O                    -0.463529
     90 C                    -0.099669
     91 H                     0.125145
     92 H                     0.134748
     93 H                     0.129465
     94 O                    -0.455636
     95 C                     0.602078
     96 C                    -0.272841
     97 H                     0.130271
     98 H                     0.123056
     99 C                    -0.188254
    100 H                     0.126710
    101 H                     0.113557
    102 C                    -0.206009
    103 H                     0.111349
    104 H                     0.115449
    105 C                     0.026946
    106 C                     0.100887
    107 C                    -0.109193
    108 H                     0.085831
    109 C                    -0.082076
    110 H                     0.096337
    111 C                    -0.083697
    112 H                     0.087983
    113 C                    -0.093446
    114 H                     0.096949
    115 C                    -0.119863
    116 H                     0.096022
    117 C                     0.000434
    118 C                     0.005485
    119 C                    -0.007702
    120 C                    -0.008002
    121 C                     0.010645
    122 C                     0.009646
    123 C                     0.019003
    124 C                     0.000089
    125 C                    -0.007123
    126 C                    -0.025880
    127 C                    -0.079331
    128 C                     0.008932
    129 C                     0.022134
    130 C                    -0.004761
    131 C                    -0.010930
    132 C                     0.023642
    133 C                    -0.088248
    134 C                     0.058736
    135 C                    -0.002364
    136 C                    -0.000142
    137 C                    -0.014751
    138 C                    -0.011512
    139 C                    -0.023434
    140 C                     0.026410
    141 C                     0.043553
    142 C                     0.008000
    143 C                     0.003781
    144 C                     0.008264
    145 C                     0.020914
    146 C                     0.002661
    147 C                    -0.008555
    148 C                     0.031063
    149 C                     0.036403
    150 C                    -0.016887
    151 C                    -0.002552
    152 C                    -0.004647
    153 C                    -0.008117
    154 C                     0.013820
    155 C                    -0.012474
    156 C                    -0.034164
    157 C                    -0.029209
    158 C                    -0.010906
    159 C                     0.019518
    160 C                    -0.005673
    161 C                    -0.011521
    162 C                    -0.032161
    163 C                    -0.031860
    164 C                     0.004615
    165 C                     0.027194
    166 C                    -0.031153
    167 C                     0.001859
    168 C                     0.022303
    169 C                     0.009577
    170 C                    -0.000105
    171 C                    -0.008602
    172 C                    -0.027328
    173 C                    -0.002153
    174 C                    -0.011937
    175 C                    -0.026388
    176 C                     0.031296
  ----------------------------------------
  Sum of atomic charges =     0.000000

                    Cartesian Multipole Moments
 -----------------------------------------------------------------
    Charge (ESU x 10^10)
                 0.0000
    Dipole Moment (Debye)
         X       0.2749      Y       1.7349      Z       0.0290
       Tot       1.7568
    Quadrupole Moments (Debye-Ang)
        XX    -818.3833     XY     -18.1558     YY    -775.8013
        XZ      -3.2823     YZ       9.9107     ZZ    -809.4044

 Total job time:  884.46s(wall), 7616.82s(cpu)
        *  Thank you very much for using Q-Chem.  Have a nice day.  *
