 Q-Chem 4.4, Q-Chem, Inc., Pleasanton, CA (2016)
 Q-Chem 4.4.2 for Intel X86 Linux

User input:
--------------------------------------------------------------
$comment
SP
$end

$rem
MEM_STATIC 5000
MEM_TOTAL 20000
JOBTYPE SP
EXCHANGE B3LYP
BASIS 6-31g(d,p)
$end

$molecule
0 1
O          25.484000     15.768000     12.537000
C          24.408000     16.273000     13.185000
H          24.469000     15.999000     14.246000
H          23.478000     15.793000     12.856000
H          24.295000     17.353000     13.026000
O          24.939000     16.741000     10.513000
C          25.688000     16.127000     11.229000
C          26.946000     15.542000     10.645000
H          26.920000     14.490000     10.956000
H          27.839000     15.933000     11.149000
C          27.250000     15.732000      9.149000
H          27.323000     16.811000      8.968000
H          28.302000     15.479000      8.970000
C          26.324000     14.967000      8.151000
H          26.287000     13.876000      8.256000
H          25.254000     15.040000      8.383000
C          26.541000     15.580000      6.751000
C          27.802000     15.329000      6.046000
C          27.991000     14.078000      5.422000
H          27.220000     13.314000      5.453000
C          29.236000     13.681000      4.966000
H          29.293000     12.696000      4.512000
C          30.367000     14.553000      5.073000
H          31.348000     14.216000      4.752000
C          30.223000     15.706000      5.769000
H          31.132000     16.173000      6.137000
C          28.936000     16.166000      6.134000
H          28.880000     17.082000      6.715000
C          26.263000     20.473000      4.199000
C          25.751000     18.903000      2.480000
C          21.344000     19.803000      2.159000
C          23.109000     19.639000      8.094000
C          20.242000     17.015000      3.963000
C          26.507000     19.251000      3.623000
C          20.670000     18.692000      7.194000
C          23.205000     21.330000      2.398000
C          24.037000     15.517000      3.944000
C          22.829000     18.279000      8.187000
C          25.326000     15.859000      5.853000
C          23.182000     15.300000      5.066000
C          21.812000     16.564000      7.070000
C          19.954000     18.340000      6.015000
C          25.929000     17.035000      3.770000
C          19.875000     19.386000      3.832000
C          25.926000     17.004000      6.634000
C          25.098000     17.811000      7.581000
C          20.102000     18.168000      3.152000
C          22.366000     21.967000      5.671000
C          21.230000     21.545000      3.829000
C          22.538000     21.970000      3.432000
C          24.578000     21.014000      2.476000
C          25.380000     19.173000      7.502000
C          25.301000     15.908000      4.396000
C          24.841000     19.768000      1.906000
C          21.593000     17.803000      7.702000
C          25.390000     17.534000      2.579000
C          21.797000     15.540000      4.873000
C          24.277000     21.269000      7.011000
C          22.621000     20.225000      1.790000
C          23.880000     15.565000      6.196000
C          24.578000     22.033000      4.716000
C          21.130000     16.125000      5.967000
C          23.520000     16.093000      2.702000
C          20.476000     20.530000      5.918000
C          20.991000     20.028000      7.092000
C          22.167000     16.362000      2.606000
C          24.381000     20.088000      7.741000
C          23.797000     17.422000      7.760000
C          22.951000     21.484000      6.863000
C          26.556000     18.142000      5.834000
C          23.338000     17.904000      1.439000
C          23.214000     16.265000      7.200000
C          21.288000     16.140000      3.703000
C          25.099000     21.492000      5.919000
C          21.050000     18.431000      2.144000
C          25.295000     21.385000      3.656000
C          20.643000     20.403000      3.206000
C          24.229000     17.052000      1.991000
C          22.029000     17.502000      1.788000
C          26.625000     18.089000      4.413000
C          26.221000     19.388000      6.373000
C          21.117000     21.558000      5.233000
C          23.579000     19.269000      1.441000
C          20.141000     17.045000      5.384000
C          22.237000     20.537000      7.556000
C          19.859000     19.490000      5.244000
C          26.103000     20.543000      5.585000
C          23.175000     22.268000      4.629000
O          28.209000      7.150000      4.511000
C          29.367000      7.786000      5.229000
H          29.198000      8.851000      5.435000
H          30.275000      7.652000      4.627000
H          29.575000      7.228000      6.150000
O          26.623000      7.841000      5.962000
C          26.961000      7.139000      5.098000
C          26.080000      6.087000      4.396000
H          25.090000      6.234000      4.844000
H          26.329000      5.071000      4.728000
C          26.106000      6.199000      2.904000
H          27.137000      6.309000      2.544000
H          25.986000      5.203000      2.460000
C          25.160000      7.308000      2.440000
H          24.117000      7.160000      2.747000
H          25.311000      8.193000      3.070000
C          25.210000      7.561000      0.939000
C          24.530000      6.477000      0.208000
C          23.194000      6.412000     -0.016000
H          22.547000      7.223000      0.304000
C          22.514000      5.352000     -0.569000
H          21.448000      5.340000     -0.776000
C          23.223000      4.134000     -0.898000
H          22.698000      3.261000     -1.272000
C          24.643000      4.209000     -0.678000
H          25.174000      3.278000     -0.857000
C          25.303000      5.400000     -0.271000
H          26.350000      5.400000      0.017000
C          28.350000      9.567000     -3.037000
C          26.163000     10.006000     -3.937000
C          26.585000     14.443000     -3.118000
C          29.175000     11.202000      1.577000
C          24.794000     14.475000     -0.179000
C          26.993000      9.167000     -3.229000
C          27.703000     13.585000      1.804000
C          28.161000     12.917000     -4.159000
C          23.750000     10.675000     -0.781000
C          27.996000     11.158000      2.279000
C          24.951000      8.967000      0.421000
C          23.957000     11.134000      0.560000
C          25.893000     12.095000      2.141000
C          26.841000     14.595000      1.247000
C          25.023000      9.050000     -2.145000
C          26.855000     15.348000     -1.078000
C          26.323000      8.368000      0.410000
C          27.381000      9.024000      1.155000
C          25.487000     15.026000     -1.275000
C          30.234000     13.010000     -1.266000
C          28.780000     14.347000     -2.298000
C          29.120000     13.354000     -3.220000
C          28.000000     11.527000     -4.338000
C          28.563000      9.172000      0.436000
C          24.394000      9.400000     -0.936000
C          26.699000     11.213000     -4.513000
C          27.266000     12.362000      2.249000
C          24.952000     10.017000     -3.267000
C          24.045000     12.546000      0.702000
C          30.223000     10.752000     -0.391000
C          26.823000     13.433000     -4.054000
C          24.734000     10.179000      1.325000
C          29.886000     11.115000     -2.773000
C          24.982000     13.021000      1.600000
C          23.562000     11.557000     -1.872000
C          28.806000     14.478000      0.081000
C          28.969000     13.616000      1.192000
C          23.552000     12.937000     -1.656000
C          29.522000     10.235000      0.695000
C          27.072000     10.119000      2.028000
C          30.352000     12.115000     -0.163000
C          27.016000      8.188000     -0.947000
C          24.661000     12.432000     -3.645000
C          25.835000     10.741000      1.980000
C          23.924000     13.437000     -0.365000
C          29.982000     10.231000     -1.690000
C          25.329000     14.453000     -2.510000
C          28.829000     10.715000     -3.568000
C          27.529000     14.997000     -2.278000
C          24.168000     11.206000     -3.122000
C          24.316000     13.481000     -2.741000
C          26.317000      8.568000     -2.137000
C          28.324000      8.628000     -0.825000
C          29.462000     14.184000     -1.105000
C          25.911000     12.427000     -4.277000
C          25.459000     14.262000      1.069000
C          29.698000     12.421000      1.066000
C          27.509000     15.090000      0.148000
C          29.041000      9.249000     -1.866000
C          30.030000     12.526000     -2.553000
$end

--------------------------------------------------------------

             Standard Nuclear Orientation (Angstroms)
    I     Atom           X                Y                Z
 ----------------------------------------------------------------
    1      O      -6.7084615585    -7.3734688847     0.4825134688
    2      C      -7.7532033566    -7.4292446638    -0.3766190225
    3      H      -8.1269219704    -8.4603304851    -0.4180246600
    4      H      -7.4361990598    -7.2366728256    -1.4090750085
    5      H      -8.5343588548    -6.6986984491    -0.1305533486
    6      O      -6.4591472647    -5.0830860390     0.3027391584
    7      C      -6.1909489364    -6.1446907302     0.8044543528
    8      C      -5.0724378290    -6.2193771268     1.8090437440
    9      H      -4.4360496359    -7.0332289456     1.4392380048
   10      H      -5.4292942083    -6.5964099255     2.7759179826
   11      C      -4.2900159919    -4.9456467664     2.1723054096
   12      H      -5.0090311193    -4.2333124547     2.5941206239
   13      H      -3.7147126239    -5.1361483102     3.0863563910
   14      C      -3.3693728925    -4.3561069759     1.0571533487
   15      H      -2.5883315479    -5.0192751843     0.6661835988
   16      H      -3.8392265628    -4.3020762508     0.0670163838
   17      C      -2.9941312395    -2.9182118355     1.4748964124
   18      C      -2.0663891725    -2.7151874826     2.5921353166
   19      C      -0.6867259322    -2.9078301857     2.3696131101
   20      H      -0.3112874448    -3.1939498874     1.3917176870
   21      C       0.2090330181    -2.9846801005     3.4218868357
   22      H       1.2500038584    -3.1493993081     3.1595182165
   23      C      -0.2345176984    -2.8235034127     4.7740254518
   24      H       0.4683661814    -2.9285084851     5.5949390808
   25      C      -1.5669106689    -2.7511885184     5.0065346519
   26      H      -1.9014735747    -2.9787580313     6.0145395025
   27      C      -2.4710642246    -2.5576921692     3.9358995550
   28      H      -3.5302026060    -2.5345564882     4.1755735616
   29      C      -5.4302038846     1.8531555558     2.8280557841
   30      C      -3.3633156507     2.5252705600     1.8491587263
   31      C      -5.0398036847     4.1185700040    -2.0219489645
   32      C      -7.8233027934    -1.1903794395    -0.4619699522
   33      C      -4.1817356661     1.3544891616    -3.9879958541
   34      C      -4.0859967790     1.6259747188     2.6665252149
   35      C      -7.2138838591    -0.4878695507    -3.0678514573
   36      C      -5.8772812168     4.3813408235     0.2323256150
   37      C      -2.0064848787    -0.1615050689    -0.8869580431
   38      C      -6.8895653979    -1.9409149674    -1.1701224059
   39      C      -3.0200835124    -1.7965799372     0.4252591587
   40      C      -2.6999004149    -1.0360887728    -1.7764951357
   41      C      -5.1846009414    -1.7444457420    -2.6793271785
   42      C      -6.4571079291     0.4312035676    -3.8483614157
   43      C      -2.5939551690     0.4301920651     1.3975631671
   44      C      -6.0518956286     2.8018162113    -3.5622763149
   45      C      -4.1991721791    -1.9415513735     1.3578465266
   46      C      -5.5842219422    -2.1293257908     0.8286774401
   47      C      -4.6561325816     2.6655889719    -3.7376064492
   48      C      -8.4553644042     2.1914884967    -0.3843208519
   49      C      -7.3773188965     3.6992110089    -1.5785296734
   50      C      -7.1393368154     4.0016612165    -0.1997670393
   51      C      -5.3147020045     3.8839941432     1.4269887095
   52      C      -6.5269541268    -1.3896199180     1.5392407729
   53      C      -2.2363330666    -0.5671186730     0.4311953678
   54      C      -3.9502079308     3.6353788176     1.2755577255
   55      C      -6.5673381196    -1.5590361175    -2.4891505046
   56      C      -2.4472480380     1.7805612108     1.0614334480
   57      C      -3.1409930717    -0.4825193960    -3.0061585909
   58      C      -8.1713335698     0.3481853311     1.1829330922
   59      C      -4.8235468103     4.4023457635    -0.6737359685
   60      C      -3.3657212553    -1.9579596469    -1.0408554821
   61      C      -7.3828034624     2.5869077630     1.7376079005
   62      C      -4.3942931569    -0.9409876323    -3.4567091127
   63      C      -1.8850226582     1.2677934943    -1.1767537406
   64      C      -7.9720216772     1.5827142838    -2.6412771576
   65      C      -8.1130265981     0.2493383129    -2.3286573686
   66      C      -2.3954756496     1.7509441836    -2.3676312133
   67      C      -7.6385046949    -0.9043517753     0.8901512843
   68      C      -5.7244643660    -2.2345428092    -0.5297129462
   69      C      -8.6030312949     0.8400133133     0.0005002991
   70      C      -4.4658998881    -0.7956175370     2.3313124846
   71      C      -2.6263538903     3.3109257532    -0.7477402477
   72      C      -4.6572266760    -2.2810428091    -1.4521984274
   73      C      -3.0770807703     0.8988634744    -3.2812541796
   74      C      -7.5083215673     1.2076511000     2.0429392994
   75      C      -4.0389753908     3.4531378001    -2.7462332375
   76      C      -6.0865949970     2.9740752352     2.2146172952
   77      C      -6.2870001690     3.7133279700    -2.4993270364
   78      C      -2.0420754623     2.2295251264    -0.1876684639
   79      C      -2.8552329042     3.0604592798    -2.1195153542
   80      C      -3.5984206279     0.3315622742     2.3926020136
   81      C      -5.8316759621    -0.5076563810     2.4149551060
   82      C      -8.2155061234     2.5730679464    -1.6942792973
   83      C      -3.6282529353     3.9934975646    -0.0757253477
   84      C      -5.0396901710     0.2211538150    -4.0870264538
   85      C      -8.4464104534    -0.0995285701    -0.9892395462
   86      C      -6.9400932751     1.6991418900    -3.5567734085
   87      C      -6.3149326946     0.7813645036     2.6865818527
   88      C      -7.8850021518     3.0540746263     0.4883062563
   89      O       5.2891424849    -5.9083937251     0.3299454637
   90      C       4.6892108439    -6.3812867423     1.6251049985
   91      H       3.6974857353    -5.9482223756     1.8099253521
   92      H       5.3744664633    -6.1324724703     2.4456780873
   93      H       4.6550964298    -7.4774907095     1.6315910581
   94      O       3.5088421990    -6.4270265603    -0.9583979977
   95      C       4.6361513123    -6.1570857051    -0.8591503389
   96      C       5.6240196192    -5.9732761110    -2.0279100410
   97      H       4.9946648669    -6.0726922122    -2.9203460524
   98      H       6.2926287260    -6.8380226352    -2.1261765718
   99      C       6.3919567771    -4.6911163339    -1.9529245260
  100      H       6.7817000395    -4.5344182726    -0.9389191477
  101      H       7.3893290616    -4.8359067555    -2.3863253334
  102      C       5.5428536007    -3.5339705879    -2.4821981022
  103      H       5.2097188924    -3.6651047429    -3.5194189560
  104      H       4.5343831938    -3.6075417466    -2.0573443356
  105      C       6.2122982269    -2.1735586490    -2.3385553196
  106      C       7.2943923889    -2.0216797432    -3.3274041566
  107      C       7.1215533899    -1.6152760766    -4.6096910747
  108      H       6.1374623767    -1.3199934501    -4.9605515146
  109      C       8.0837203346    -1.5969625527    -5.5923957024
  110      H       7.9308116333    -1.2281032068    -6.6023019911
  111      C       9.4064811398    -2.1145986177    -5.3152626001
  112      H      10.1617978491    -2.1732434355    -6.0922358648
  113      C       9.5958610199    -2.5285152848    -3.9502595767
  114      H      10.5628508228    -2.9816908100    -3.7494470662
  115      C       8.6093448968    -2.3527797588    -2.9424734071
  116      H       8.7205577160    -2.7910325164    -1.9551947083
  117      C       7.7341719315     1.5665646971     1.3203502248
  118      C       7.3293480106     2.9624153828    -0.5962635746
  119      C       3.5156907430     4.5823459974     1.2388541461
  120      C       4.0525975701    -1.5121862295     2.5892666735
  121      C       1.3491181975     2.5265075557    -0.4716772645
  122      C       7.7987632728     1.7713895013    -0.0910985905
  123      C       1.6792938331    -0.1403840537     1.9707279422
  124      C       5.7111278761     4.3187606876     2.2422043238
  125      C       4.3794587722     1.1886449118    -2.6896717521
  126      C       3.3780589118    -1.8864017316     1.4535988716
  127      C       5.3428139582    -0.9451646574    -2.1211011687
  128      C       3.3134701865     0.2914828775    -2.3571366120
  129      C       2.1737847635    -0.8669383639    -0.2286734660
  130      C       0.9823094919     1.0241156257     1.4895353355
  131      C       6.7561617593     1.1960252756    -2.0020101771
  132      C       1.7210965849     3.3368237867     1.7695435379
  133      C       6.1763465909    -1.5205793134    -1.0186369634
  134      C       5.5192071825    -1.9857439302     0.1882245354
  135      C       1.7248388356     3.5896235074     0.3731212176
  136      C       4.5379952840     1.5902645667     4.2054913227
  137      C       3.7007286734     3.4343375935     3.2753900944
  138      C       5.0883874127     3.5958533263     3.2823823193
  139      C       6.8541760730     3.7530105470     1.6393531000
  140      C       6.1231296409    -1.5424601199     1.3607287476
  141      C       5.6306373326     0.5098823531    -2.4941734172
  142      C       6.8567686888     3.9791105512     0.3086788099
  143      C       2.2648390735    -1.0769312181     1.1554125551
  144      C       6.6217274060     2.6501120285    -1.7439925038
  145      C       2.1551395656     0.9134810668    -1.8158045279
  146      C       5.7977205872    -0.3358476753     3.4521694846
  147      C       4.8977734006     4.7658956331     1.1440013199
  148      C       3.8269783618    -0.9983188912    -1.9403635908
  149      C       6.7807508149     1.8825172224     3.2739259659
  150      C       1.5203133259     0.2488667487    -0.7836798002
  151      C       4.2629278105     2.5942419899    -2.5702297621
  152      C       2.2526364325     1.5426489426     3.3203446274
  153      C       2.3356379882     0.1361136387     3.1835850550
  154      C       3.0617239872     3.1570938460    -2.1326647237
  155      C       5.3990812802    -1.3710024448     2.6109636203
  156      C       4.0880417556    -2.0583258790     0.2441922199
  157      C       4.6394517396     0.1813020550     4.0155196714
  158      C       7.2703190827    -0.6340241977    -0.4092584161
  159      C       4.8776835522     4.3095369826    -1.2297845129
  160      C       3.3055860495    -1.4480357900    -0.7225890765
  161      C       2.0355421532     2.2912685803    -1.6303078258
  162      C       6.8792272761     0.5001238252     3.0669190047
  163      C       2.8322868395     4.3291589569     0.0488308576
  164      C       7.2670255183     2.5256308459     2.1517781236
  165      C       2.8541014658     4.0063741104     2.3038461713
  166      C       5.4065054667     3.3179969346    -2.0997556136
  167      C       3.4552935596     4.1937604140    -1.2231140553
  168      C       7.4671994639     0.6826038843    -0.9354044123
  169      C       7.2014823341    -0.7504393682     0.9695298236
  170      C       3.3285196487     2.2346528721     3.8560440457
  171      C       5.5692614203     4.5862947845    -0.0435829401
  172      C       0.9801454083     1.2580924477     0.0761184955
  173      C       3.5302877843    -0.5400327887     3.4852137563
  174      C       1.3968237500     2.0645353014     2.2925016039
  175      C       7.4976638500     0.3002865681     1.8592840123
  176      C       5.5935532775     2.4290526036     3.8671528064
 ----------------------------------------------------------------

    9   -5804.2204075430      7.89E-06 Convergence criterion met
 Total energy in the final basis set = -5804.2204075430

                    Orbital Energies (a.u.)
 --------------------------------------------------------------

 Alpha MOs
 -- Occupied --
-19.201 -19.185 -19.146 -19.143 -10.324 -10.315 -10.253 -10.242
-10.239 -10.237 -10.234 -10.233 -10.232 -10.231 -10.230 -10.226
-10.224 -10.223 -10.222 -10.222 -10.222 -10.220 -10.220 -10.220
-10.219 -10.218 -10.217 -10.217 -10.217 -10.217 -10.217 -10.217
-10.216 -10.216 -10.216 -10.216 -10.216 -10.216 -10.215 -10.215
-10.215 -10.215 -10.215 -10.215 -10.214 -10.214 -10.214 -10.214
-10.213 -10.213 -10.213 -10.213 -10.213 -10.213 -10.212 -10.212
-10.212 -10.212 -10.212 -10.212 -10.212 -10.212 -10.211 -10.211
-10.211 -10.211 -10.211 -10.211 -10.211 -10.210 -10.210 -10.210
-10.210 -10.210 -10.210 -10.210 -10.210 -10.210 -10.209 -10.209
-10.209 -10.209 -10.208 -10.208 -10.208 -10.208 -10.208 -10.208
-10.208 -10.208 -10.207 -10.207 -10.207 -10.207 -10.207 -10.207
-10.207 -10.207 -10.207 -10.207 -10.206 -10.206 -10.206 -10.206
-10.206 -10.206 -10.205 -10.205 -10.205 -10.205 -10.205 -10.205
-10.204 -10.204 -10.204 -10.204 -10.204 -10.204 -10.203 -10.203
-10.203 -10.203 -10.203 -10.202 -10.202 -10.202 -10.202 -10.201
-10.201 -10.200 -10.200 -10.200 -10.199 -10.199 -10.199 -10.199
-10.198 -10.198 -10.197 -10.197 -10.196 -10.195 -10.195 -10.195
-10.194 -10.193 -10.191 -10.191  -1.116  -1.100  -1.036  -1.018
 -0.981  -0.979  -0.964  -0.962  -0.962  -0.958  -0.957  -0.954
 -0.935  -0.930  -0.925  -0.922  -0.922  -0.920  -0.919  -0.917
 -0.917  -0.916  -0.897  -0.890  -0.888  -0.886  -0.885  -0.878
 -0.870  -0.870  -0.852  -0.849  -0.840  -0.837  -0.836  -0.835
 -0.834  -0.832  -0.822  -0.815  -0.810  -0.802  -0.796  -0.794
 -0.793  -0.791  -0.790  -0.789  -0.787  -0.786  -0.782  -0.780
 -0.768  -0.766  -0.766  -0.765  -0.764  -0.763  -0.761  -0.760
 -0.751  -0.747  -0.744  -0.739  -0.729  -0.729  -0.713  -0.712
 -0.712  -0.710  -0.710  -0.708  -0.707  -0.706  -0.706  -0.705
 -0.704  -0.704  -0.704  -0.702  -0.701  -0.699  -0.669  -0.666
 -0.657  -0.655  -0.654  -0.652  -0.645  -0.644  -0.632  -0.628
 -0.627  -0.624  -0.624  -0.621  -0.619  -0.619  -0.617  -0.617
 -0.614  -0.611  -0.609  -0.609  -0.609  -0.607  -0.606  -0.605
 -0.604  -0.602  -0.599  -0.598  -0.572  -0.566  -0.563  -0.562
 -0.558  -0.557  -0.555  -0.553  -0.553  -0.552  -0.551  -0.548
 -0.537  -0.531  -0.530  -0.526  -0.525  -0.525  -0.522  -0.521
 -0.518  -0.517  -0.517  -0.515  -0.513  -0.513  -0.511  -0.510
 -0.509  -0.505  -0.502  -0.500  -0.498  -0.492  -0.487  -0.486
 -0.486  -0.482  -0.479  -0.478  -0.477  -0.475  -0.475  -0.474
 -0.472  -0.469  -0.469  -0.468  -0.467  -0.466  -0.465  -0.463
 -0.462  -0.461  -0.460  -0.459  -0.458  -0.457  -0.456  -0.454
 -0.453  -0.450  -0.449  -0.448  -0.445  -0.444  -0.443  -0.440
 -0.437  -0.437  -0.437  -0.436  -0.435  -0.435  -0.433  -0.432
 -0.428  -0.427  -0.426  -0.426  -0.425  -0.422  -0.421  -0.420
 -0.420  -0.419  -0.419  -0.418  -0.416  -0.416  -0.415  -0.415
 -0.414  -0.413  -0.412  -0.412  -0.412  -0.411  -0.410  -0.409
 -0.408  -0.406  -0.405  -0.404  -0.401  -0.401  -0.398  -0.395
 -0.394  -0.391  -0.389  -0.389  -0.387  -0.387  -0.384  -0.382
 -0.382  -0.375  -0.374  -0.372  -0.369  -0.367  -0.365  -0.363
 -0.361  -0.361  -0.360  -0.358  -0.357  -0.356  -0.355  -0.354
 -0.353  -0.353  -0.352  -0.352  -0.351  -0.349  -0.348  -0.347
 -0.346  -0.346  -0.344  -0.343  -0.343  -0.342  -0.340  -0.340
 -0.337  -0.337  -0.336  -0.335  -0.335  -0.334  -0.332  -0.332
 -0.329  -0.328  -0.327  -0.325  -0.325  -0.324  -0.322  -0.319
 -0.308  -0.303  -0.303  -0.301  -0.285  -0.281  -0.277  -0.272
 -0.269  -0.267  -0.264  -0.263  -0.263  -0.262  -0.261  -0.259
 -0.258  -0.257  -0.256  -0.254  -0.254  -0.252  -0.251  -0.250
 -0.248  -0.244  -0.242  -0.237  -0.216  -0.216  -0.208  -0.208
 -0.207  -0.204  -0.203  -0.201  -0.198  -0.191

          Ground-State Mulliken Net Atomic Charges

     Atom                 Charge (a.u.)
  ----------------------------------------
      1 O                    -0.442670
      2 C                    -0.085397
      3 H                     0.117441
      4 H                     0.113618
      5 H                     0.121557
      6 O                    -0.453070
      7 C                     0.612149
      8 C                    -0.282934
      9 H                     0.129883
     10 H                     0.128428
     11 C                    -0.170586
     12 H                     0.115750
     13 H                     0.109215
     14 C                    -0.181303
     15 H                     0.104288
     16 H                     0.122929
     17 C                     0.004823
     18 C                     0.096079
     19 C                    -0.093579
     20 H                     0.090217
     21 C                    -0.098258
     22 H                     0.088335
     23 C                    -0.080797
     24 H                     0.088020
     25 C                    -0.090162
     26 H                     0.092890
     27 C                    -0.115556
     28 H                     0.086562
     29 C                    -0.000311
     30 C                    -0.006321
     31 C                    -0.001769
     32 C                    -0.007359
     33 C                     0.010452
     34 C                    -0.003450
     35 C                    -0.009566
     36 C                     0.009193
     37 C                    -0.009660
     38 C                     0.003165
     39 C                    -0.101911
     40 C                     0.022739
     41 C                     0.019729
     42 C                    -0.016015
     43 C                     0.030544
     44 C                    -0.013234
     45 C                    -0.081472
     46 C                     0.067209
     47 C                    -0.014276
     48 C                     0.026236
     49 C                    -0.029516
     50 C                     0.000010
     51 C                    -0.017628
     52 C                    -0.027474
     53 C                     0.017144
     54 C                    -0.006634
     55 C                    -0.000254
     56 C                     0.004324
     57 C                    -0.012138
     58 C                    -0.003256
     59 C                     0.008564
     60 C                     0.033955
     61 C                    -0.009910
     62 C                    -0.027302
     63 C                    -0.006182
     64 C                     0.022178
     65 C                     0.003603
     66 C                    -0.016618
     67 C                    -0.001654
     68 C                     0.058945
     69 C                     0.013298
     70 C                     0.008555
     71 C                    -0.017804
     72 C                    -0.031327
     73 C                     0.026031
     74 C                    -0.010750
     75 C                     0.017353
     76 C                    -0.013611
     77 C                     0.006319
     78 C                     0.028295
     79 C                    -0.028100
     80 C                    -0.005592
     81 C                     0.006596
     82 C                    -0.017582
     83 C                     0.007447
     84 C                    -0.032425
     85 C                    -0.010623
     86 C                     0.009794
     87 C                     0.008516
     88 C                     0.001941
     89 O                    -0.489009
     90 C                    -0.091405
     91 H                     0.137898
     92 H                     0.129427
     93 H                     0.126597
     94 O                    -0.427904
     95 C                     0.592757
     96 C                    -0.268050
     97 H                     0.125096
     98 H                     0.124349
     99 C                    -0.187391
    100 H                     0.128861
    101 H                     0.104413
    102 C                    -0.180293
    103 H                     0.112357
    104 H                     0.117066
    105 C                     0.000892
    106 C                     0.121250
    107 C                    -0.101836
    108 H                     0.082933
    109 C                    -0.092817
    110 H                     0.092353
    111 C                    -0.086476
    112 H                     0.097765
    113 C                    -0.106358
    114 H                     0.086691
    115 C                    -0.109086
    116 H                     0.087364
    117 C                    -0.019483
    118 C                     0.009934
    119 C                     0.017053
    120 C                     0.020778
    121 C                     0.028186
    122 C                    -0.009161
    123 C                     0.006803
    124 C                    -0.059291
    125 C                     0.016443
    126 C                    -0.048130
    127 C                    -0.102546
    128 C                    -0.012546
    129 C                     0.026564
    130 C                    -0.009658
    131 C                    -0.030141
    132 C                    -0.018287
    133 C                    -0.080241
    134 C                     0.047626
    135 C                    -0.025722
    136 C                    -0.003299
    137 C                    -0.000982
    138 C                     0.045570
    139 C                     0.024079
    140 C                     0.006014
    141 C                     0.050932
    142 C                    -0.019744
    143 C                     0.011198
    144 C                    -0.008946
    145 C                    -0.004070
    146 C                    -0.008065
    147 C                    -0.006598
    148 C                    -0.019835
    149 C                    -0.040657
    150 C                    -0.020454
    151 C                     0.009778
    152 C                     0.009129
    153 C                    -0.015830
    154 C                    -0.033432
    155 C                     0.008349
    156 C                    -0.022188
    157 C                    -0.007564
    158 C                     0.014909
    159 C                    -0.015997
    160 C                     0.042402
    161 C                     0.028581
    162 C                     0.008795
    163 C                     0.029763
    164 C                     0.058484
    165 C                    -0.007705
    166 C                    -0.007252
    167 C                    -0.012460
    168 C                     0.023606
    169 C                     0.005949
    170 C                    -0.007520
    171 C                     0.022902
    172 C                    -0.025007
    173 C                    -0.007823
    174 C                     0.027302
    175 C                    -0.009916
    176 C                    -0.016299
  ----------------------------------------
  Sum of atomic charges =     0.000000

                    Cartesian Multipole Moments
 -----------------------------------------------------------------
    Charge (ESU x 10^10)
                 0.0000
    Dipole Moment (Debye)
         X       2.4442      Y      -7.2500      Z       1.1827
       Tot       7.7417
    Quadrupole Moments (Debye-Ang)
        XX    -785.7092     XY      -1.9130     YY    -779.1165
        XZ     -16.1141     YZ      -8.5313     ZZ    -788.8807

 Total job time:  875.96s(wall), 7441.18s(cpu)
        *  Thank you very much for using Q-Chem.  Have a nice day.  *
