 Q-Chem 4.4, Q-Chem, Inc., Pleasanton, CA (2016)
 Q-Chem 4.4.2 for Intel X86 Linux

User input:
--------------------------------------------------------------
$comment
SP
$end

$rem
MEM_STATIC 5000
MEM_TOTAL 20000
JOBTYPE SP
EXCHANGE B3LYP
BASIS 6-31g(d,p)
$end

$molecule
0 1
O          34.862000      4.657000     -5.115000
C          36.050000      4.676000     -4.302000
H          36.573000      3.736000     -4.521000
H          35.791000      4.672000     -3.236000
H          36.762000      5.476000     -4.537000
O          34.119000      2.598000     -4.399000
C          33.998000      3.575000     -5.103000
C          32.806000      3.759000     -6.052000
H          32.142000      4.404000     -5.464000
H          32.353000      2.768000     -6.181000
C          33.176000      4.223000     -7.483000
H          33.847000      5.090000     -7.433000
H          33.605000      3.318000     -7.931000
C          31.912000      4.548000     -8.267000
H          31.471000      5.374000     -7.694000
H          32.204000      5.022000     -9.212000
C          30.896000      3.375000     -8.444000
C          31.498000      2.169000     -9.097000
C          31.820000      1.025000     -8.345000
H          31.695000      0.899000     -7.274000
C          32.384000     -0.161000     -8.949000
H          32.382000     -1.037000     -8.307000
C          32.488000     -0.157000    -10.328000
H          32.872000     -1.087000    -10.739000
C          32.164000      0.891000    -11.102000
H          32.304000      0.808000    -12.176000
C          31.583000      2.080000    -10.522000
H          31.357000      2.920000    -11.173000
C          25.771000      2.350000    -10.252000
C          26.058000      0.834000     -8.357000
C          23.226000      2.730000     -5.427000
C          26.782000      7.083000     -8.513000
C          25.806000      4.358000     -3.580000
C          26.526000      1.488000     -9.516000
C          26.001000      7.133000     -5.837000
C          23.046000      2.468000     -7.839000
C          28.616000      2.072000     -5.692000
C          27.806000      6.903000     -7.611000
C          29.742000      3.224000     -7.473000
C          28.894000      3.366000     -5.225000
C          28.175000      6.131000     -5.488000
C          25.427000      6.464000     -4.706000
C          28.163000      1.325000     -7.951000
C          23.633000      4.813000     -4.662000
C          29.487000      3.786000     -8.841000
C          28.912000      5.146000     -8.862000
C          24.440000      3.947000     -3.948000
C          23.460000      5.810000     -8.651000
C          22.586000      4.593000     -6.885000
C          22.656000      3.799000     -8.048000
C          23.929000      1.816000     -8.755000
C          27.855000      5.233000     -9.765000
C          29.006000      1.976000     -7.055000
C          24.739000      0.993000     -8.029000
C          27.347000      6.950000     -6.259000
C          27.041000      0.635000     -7.469000
C          27.969000      4.069000     -4.346000
C          25.543000      5.795000     -9.977000
C          23.321000      1.899000     -6.590000
C          29.486000      4.125000     -6.291000
C          24.055000      3.875000    -10.071000
C          27.642000      5.425000     -4.385000
C          27.449000      1.437000     -5.185000
C          23.929000      6.548000     -6.352000
C          25.037000      7.209000     -6.806000
C          26.582000      2.085000     -4.280000
C          26.838000      6.206000     -9.645000
C          28.796000      5.945000     -7.734000
C          24.686000      6.436000     -9.061000
C          28.458000      3.054000     -9.684000
C          25.334000      0.899000     -5.721000
C          29.016000      5.446000     -6.438000
C          26.793000      3.384000     -3.798000
C          25.238000      4.537000    -10.486000
C          24.279000      2.667000     -4.472000
C          24.411000      2.535000     -9.890000
C          22.863000      4.055000     -5.529000
C          26.694000      0.684000     -6.083000
C          25.286000      1.723000     -4.617000
C          27.865000      1.829000     -9.222000
C          27.551000      3.975000    -10.275000
C          23.158000      5.847000     -7.300000
C          24.362000      0.968000     -6.689000
C          26.296000      5.604000     -3.989000
C          25.439000      7.196000     -8.173000
C          24.134000      6.065000     -5.053000
C          26.229000      3.594000    -10.597000
C          23.163000      4.477000     -9.167000
O          28.209000      7.150000      4.511000
C          29.367000      7.786000      5.229000
H          29.198000      8.851000      5.435000
H          30.275000      7.652000      4.627000
H          29.575000      7.228000      6.150000
O          26.623000      7.841000      5.962000
C          26.961000      7.139000      5.098000
C          26.080000      6.087000      4.396000
H          25.090000      6.234000      4.844000
H          26.329000      5.071000      4.728000
C          26.106000      6.199000      2.904000
H          27.137000      6.309000      2.544000
H          25.986000      5.203000      2.460000
C          25.160000      7.308000      2.440000
H          24.117000      7.160000      2.747000
H          25.311000      8.193000      3.070000
C          25.210000      7.561000      0.939000
C          24.530000      6.477000      0.208000
C          23.194000      6.412000     -0.016000
H          22.547000      7.223000      0.304000
C          22.514000      5.352000     -0.569000
H          21.448000      5.340000     -0.776000
C          23.223000      4.134000     -0.898000
H          22.698000      3.261000     -1.272000
C          24.643000      4.209000     -0.678000
H          25.174000      3.278000     -0.857000
C          25.303000      5.400000     -0.271000
H          26.350000      5.400000      0.017000
C          28.350000      9.567000     -3.037000
C          26.163000     10.006000     -3.937000
C          26.585000     14.443000     -3.118000
C          29.175000     11.202000      1.577000
C          24.794000     14.475000     -0.179000
C          26.993000      9.167000     -3.229000
C          27.703000     13.585000      1.804000
C          28.161000     12.917000     -4.159000
C          23.750000     10.675000     -0.781000
C          27.996000     11.158000      2.279000
C          24.951000      8.967000      0.421000
C          23.957000     11.134000      0.560000
C          25.893000     12.095000      2.141000
C          26.841000     14.595000      1.247000
C          25.023000      9.050000     -2.145000
C          26.855000     15.348000     -1.078000
C          26.323000      8.368000      0.410000
C          27.381000      9.024000      1.155000
C          25.487000     15.026000     -1.275000
C          30.234000     13.010000     -1.266000
C          28.780000     14.347000     -2.298000
C          29.120000     13.354000     -3.220000
C          28.000000     11.527000     -4.338000
C          28.563000      9.172000      0.436000
C          24.394000      9.400000     -0.936000
C          26.699000     11.213000     -4.513000
C          27.266000     12.362000      2.249000
C          24.952000     10.017000     -3.267000
C          24.045000     12.546000      0.702000
C          30.223000     10.752000     -0.391000
C          26.823000     13.433000     -4.054000
C          24.734000     10.179000      1.325000
C          29.886000     11.115000     -2.773000
C          24.982000     13.021000      1.600000
C          23.562000     11.557000     -1.872000
C          28.806000     14.478000      0.081000
C          28.969000     13.616000      1.192000
C          23.552000     12.937000     -1.656000
C          29.522000     10.235000      0.695000
C          27.072000     10.119000      2.028000
C          30.352000     12.115000     -0.163000
C          27.016000      8.188000     -0.947000
C          24.661000     12.432000     -3.645000
C          25.835000     10.741000      1.980000
C          23.924000     13.437000     -0.365000
C          29.982000     10.231000     -1.690000
C          25.329000     14.453000     -2.510000
C          28.829000     10.715000     -3.568000
C          27.529000     14.997000     -2.278000
C          24.168000     11.206000     -3.122000
C          24.316000     13.481000     -2.741000
C          26.317000      8.568000     -2.137000
C          28.324000      8.628000     -0.825000
C          29.462000     14.184000     -1.105000
C          25.911000     12.427000     -4.277000
C          25.459000     14.262000      1.069000
C          29.698000     12.421000      1.066000
C          27.509000     15.090000      0.148000
C          29.041000      9.249000     -1.866000
C          30.030000     12.526000     -2.553000
$end

--------------------------------------------------------------

             Standard Nuclear Orientation (Angstroms)
    I     Atom           X                Y                Z
 ----------------------------------------------------------------
    1      O       3.4899849473    -7.3705371227    -1.2613300281
    2      C       3.0341041872    -8.5677519033    -1.9182345126
    3      H       3.9115774082    -8.9706199538    -2.4405639874
    4      H       2.2762470414    -8.3306874032    -2.6751400347
    5      H       2.6930275647    -9.3654102913    -1.2477296031
    6      O       4.3996480917    -6.4012366642    -3.1420627537
    7      C       4.1720013123    -6.3840733347    -1.9535054921
    8      C       4.5756015617    -5.2044766201    -1.0585309509
    9      H       3.6413415520    -4.6335661090    -0.9962058153
   10      H       5.3304546513    -4.6341411240    -1.6142694101
   11      C       5.2661188404    -5.5995552256     0.2707755538
   12      H       4.6763997246    -6.3699881490     0.7837029123
   13      H       6.2670047282    -5.9088776440    -0.0552874481
   14      C       5.4476306667    -4.3684744384     1.1479702597
   15      H       4.4160501745    -4.0402254653     1.3301248643
   16      H       5.7881402989    -4.6966700907     2.1375690694
   17      C       6.3101092345    -3.2166349391     0.5405902403
   18      C       7.6855108038    -3.6578533231     0.1445525389
   19      C       8.0198914368    -3.8555553554    -1.2071232723
   20      H       7.3594580848    -3.7370584284    -2.0605447777
   21      C       9.3433781263    -4.2623798569    -1.6223157671
   22      H       9.5290611163    -4.1682939631    -2.6882490070
   23      C      10.3015997522    -4.3395551779    -0.6281687531
   24      H      11.2904332923    -4.6019380974    -0.9951025803
   25      C      10.0510647239    -4.1279970928     0.6736881423
   26      H      10.8650106652    -4.2364047704     1.3848173711
   27      C       8.7402798351    -3.7041928788     1.1094804823
   28      H       8.5639331461    -3.5674821059     2.1728190972
   29      C       7.7818260567     2.0278632579     1.4968340674
   30      C       7.5915905494     1.8872650315    -0.9353856165
   31      C       3.9292818360     4.4160562229    -1.5620035205
   32      C       3.2877544843     0.4264214731     3.4167913357
   33      C       1.7446867111     1.6252712258    -1.9585589894
   34      C       7.9680169172     1.3670129305     0.3206645183
   35      C       1.3291896303     1.1442390586     1.5668727898
   36      C       5.7622696975     4.6724012510     0.0169932262
   37      C       5.1206559955    -0.8509196683    -2.1903995527
   38      C       2.8969635493    -0.5859776447     2.5700856777
   39      C       5.6341190407    -2.0717660669    -0.1871944278
   40      C       3.8979576194    -1.2901720437    -1.6594805081
   41      C       2.0239019025    -0.9010800518     0.4777788565
   42      C       0.9722772593     1.7720426174     0.3280530891
   43      C       7.1689545985    -0.2686853873    -1.0363739573
   44      C       1.9478892736     3.7489306389    -0.7141887006
   45      C       6.1486704766    -1.8593188119     1.2065042425
   46      C       5.1301493501    -1.4502943021     2.1944210736
   47      C       2.1572943303     3.0373614061    -1.8807304912
   48      C       3.9655280164     3.8785514909     2.8702765787
   49      C       3.5341288167     4.8572823364     0.8160853357
   50      C       4.9125868220     4.9048564995     1.1084810037
   51      C       6.9494900114     3.8912415091     0.1723842947
   52      C       5.5850691662    -0.3940279883     2.9802813889
   53      C       6.1680649507    -1.2003847517    -1.2960318229
   54      C       7.1200692713     3.1713358595    -0.9735404723
   55      C       1.8854254224    -0.1619631474     1.6547735321
   56      C       7.2200021131     0.9181007885    -1.7821894333
   57      C       2.6954745558    -0.4726890683    -1.7502057342
   58      C       5.0978519139     1.8381107854     3.6776391480
   59      C       5.3367749579     4.4432253948    -1.2967113272
   60      C       4.1472760746    -1.9478266353    -0.4071899084
   61      C       6.3920683344     3.5459713442     2.5297732289
   62      C       1.7169217879    -0.3090254540    -0.7689643257
   63      C       5.1105269313     0.3734975551    -2.9134921228
   64      C       1.8977018302     3.2807376953     1.6800163007
   65      C       1.8467628763     2.1107681658     2.3866120288
   66      C       3.9353531471     1.1394631154    -3.0647579072
   67      C       4.7029960522     0.4971936416     3.6307343296
   68      C       3.7676550831    -1.4521278524     1.9339464865
   69      C       3.9211120748     2.5947725514     3.5129202270
   70      C       7.1526183529    -0.7343426193     1.3849173241
   71      C       5.6555156610     2.5474811382    -2.7499449897
   72      C       3.2540585366    -1.6359579247     0.6380135824
   73      C       2.6920559289     0.7658353038    -2.5366856721
   74      C       6.3209900355     2.3006810833     3.2036857168
   75      C       3.4208936647     3.3598980109    -2.3687713301
   76      C       7.2641280386     3.3488792389     1.4547087776
   77      C       3.0128215242     4.6203652832    -0.5539577354
   78      C       6.1947377474     1.2300424334    -2.7284089588
   79      C       4.2984006817     2.4756262833    -2.9805351300
   80      C       7.6539628424    -0.0085037464     0.2502236943
   81      C       6.8089962788     0.0675688770     2.5069836422
   82      C       2.9774834685     4.1479271189     1.9380862857
   83      C       6.1766253442     3.5227671260    -1.9351867801
   84      C       1.1814813205     0.9981541180    -0.8407840473
   85      C       2.8385742783     1.7395707925     3.3400188952
   86      C       1.3690642001     3.1098321834     0.3939181077
   87      C       7.1727458017     1.4315186070     2.5690837120
   88      C       5.2480987961     4.3422582723     2.3493713897
   89      O      -5.5975282389    -1.2487799521    -6.0653416054
   90      C      -6.4335770222    -2.4879586517    -6.2279533591
   91      H      -7.3565302129    -2.4511539461    -5.6346365622
   92      H      -5.8320011227    -3.3617462354    -5.9461277112
   93      H      -6.6474973793    -2.6456240238    -7.2920251195
   94      O      -7.2515645202     0.2152857824    -6.5332662843
   95      C      -6.1185767515    -0.0199027855    -6.4125639503
   96      C      -4.9675164090     0.9936009014    -6.5659893878
   97      H      -5.4804087434     1.9502018603    -6.7217746844
   98      H      -4.4426740517     0.8611846790    -7.5207079033
   99      C      -4.0166396191     0.9831511144    -5.4105638678
  100      H      -3.7447259772    -0.0464886471    -5.1449213771
  101      H      -3.0078751158     1.2295833361    -5.7644244857
  102      C      -4.5865872527     1.7989152379    -4.2487628565
  103      H      -4.7958913441     2.8460183968    -4.5012876515
  104      H      -5.6408625381     1.5313661467    -4.1078830981
  105      C      -3.7282794052     1.7480011805    -2.9916926923
  106      C      -2.5142566097     2.5663503632    -3.1598303358
  107      C      -2.4461861350     3.9046308441    -2.9508596084
  108      H      -3.3130836158     4.4440294836    -2.5817148325
  109      C      -1.3721029755     4.7166924191    -3.2314132839
  110      H      -1.3269001701     5.7803026408    -3.0168462717
  111      C      -0.2008185332     4.1644526334    -3.8776098286
  112      H       0.6311184603     4.7969056376    -4.1700376596
  113      C      -0.2649436829     2.7416717085    -4.0825669088
  114      H       0.5792911089     2.3290192066    -4.6282302931
  115      C      -1.3343479960     1.9366528478    -3.6050220950
  116      H      -1.4286773041     0.8917755047    -3.8851761944
  117      C      -2.1137183064    -1.5316880985     1.0492283279
  118      C      -2.0259080925     0.6042739250     2.1517915235
  119      C      -5.7319590626    -0.3594780579     4.5750501400
  120      C      -6.3857285075    -2.6344105071    -1.2260250935
  121      C      -7.9594784245     1.3580295862     2.5914294643
  122      C      -1.8294483906    -0.1332309882     1.0065513354
  123      C      -8.3984984835    -1.4617114137     0.3457687417
  124      C      -3.7625022630    -1.7219403436     4.1737155735
  125      C      -4.9219842179     2.8590937825     0.4907688007
  126      C      -6.9555171911    -1.4723064494    -1.6838853508
  127      C      -4.4056942519     1.8474193534    -1.6339496561
  128      C      -6.1552349843     2.5730681102    -0.1793751109
  129      C      -7.7419978001     0.5062223408    -0.7970403371
  130      C      -8.8249364867    -0.7157374042     1.5012194791
  131      C      -2.6889726029     1.8154345805     0.2760955669
  132      C      -7.7608480884    -0.7746776034     3.7005539087
  133      C      -3.8317630455     0.5571022968    -2.1309314101
  134      C      -4.7107311601    -0.5857130351    -2.2925271116
  135      C      -7.5301886053     0.6254942835     3.7157818474
  136      C      -5.6174093338    -3.8465313004     2.0009615550
  137      C      -6.0099094909    -2.5427420216     3.7652705254
  138      C      -4.6279516188    -2.7441001004     3.7281172745
  139      C      -2.6578382640    -1.3929269270     3.3603708611
  140      C      -4.2035401087    -1.7628691707    -1.7511864890
  141      C      -3.8362374571     2.3748261280    -0.3160922841
  142      C      -2.4414163277    -0.0606418587     3.3605764122
  143      C      -7.8713385475    -0.8906417061    -0.7859135419
  144      C      -2.6162810970     1.7922012301     1.7570378874
  145      C      -7.2574412033     2.3146089975     0.6808529623
  146      C      -4.6017198226    -3.5832024269    -0.1815468004
  147      C      -4.3383062182    -0.4572863521     4.5433438827
  148      C      -5.9201231683     1.9009102759    -1.4418747266
  149      C      -3.2534627090    -3.2461108247     1.8154093853
  150      C      -8.1240774387     1.3105460392     0.2925267962
  151      C      -4.8213279266     2.9615428187     1.8989312579
  152      C      -7.7414881870    -2.6299586545     2.1307961517
  153      C      -7.8727714298    -2.7103604962     0.7235881877
  154      C      -5.9613496869     2.8027577668     2.6903184535
  155      C      -5.0493055874    -2.8465874817    -1.2747766050
  156      C      -6.1290022177    -0.4263476783    -2.1520105991
  157      C      -5.7239803572    -3.8781736333     0.5799761998
  158      C      -2.6980594999    -0.0832435060    -1.3192839968
  159      C      -4.1173293744     1.8003749577     3.7080830583
  160      C      -6.6653188942     0.7283507020    -1.6057569282
  161      C      -7.1731188084     2.3490134806     2.0732311671
  162      C      -3.3563271978    -3.2568409764     0.4179600085
  163      C      -6.2833490752     0.8744322784     4.2275816725
  164      C      -2.5235950756    -2.1338519617     2.1888360305
  165      C      -6.6145909500    -1.3787936594     4.2824605708
  166      C      -3.6473682139     2.4258912073     2.5216936075
  167      C      -5.5275533341     2.0003652752     3.7970451648
  168      C      -2.2198495785     0.5882294040    -0.1490103526
  169      C      -2.9676453302    -1.4364818468    -1.1951168790
  170      C      -6.6475708544    -3.2232727643     2.7429164313
  171      C      -3.5535774420     0.5722863841     4.0767715639
  172      C      -8.6008779206     0.6992779771     1.4960980058
  173      C      -6.8559541506    -3.2891033689    -0.0551809103
  174      C      -8.3558888516    -1.4167204217     2.5910208945
  175      C      -2.6241083407    -2.2022469433    -0.0641893155
  176      C      -4.4031529706    -3.5615418841     2.6146418603
 ----------------------------------------------------------------

    9   -5804.2254313771      8.30E-06 Convergence criterion met
 Total energy in the final basis set = -5804.2254313771

                    Orbital Energies (a.u.)
 --------------------------------------------------------------

 Alpha MOs
 -- Occupied --
-19.188 -19.183 -19.141 -19.135 -10.316 -10.312 -10.250 -10.246
-10.245 -10.243 -10.240 -10.240 -10.237 -10.233 -10.233 -10.231
-10.228 -10.227 -10.226 -10.225 -10.225 -10.225 -10.225 -10.224
-10.224 -10.223 -10.223 -10.222 -10.221 -10.221 -10.220 -10.219
-10.219 -10.219 -10.219 -10.219 -10.219 -10.219 -10.218 -10.218
-10.218 -10.218 -10.218 -10.218 -10.218 -10.218 -10.217 -10.217
-10.217 -10.217 -10.217 -10.217 -10.217 -10.217 -10.217 -10.216
-10.216 -10.216 -10.216 -10.216 -10.216 -10.216 -10.215 -10.215
-10.215 -10.215 -10.215 -10.215 -10.215 -10.214 -10.214 -10.214
-10.214 -10.214 -10.214 -10.214 -10.214 -10.214 -10.214 -10.213
-10.213 -10.213 -10.213 -10.213 -10.213 -10.213 -10.213 -10.213
-10.213 -10.212 -10.212 -10.212 -10.212 -10.212 -10.212 -10.212
-10.212 -10.211 -10.211 -10.211 -10.211 -10.211 -10.210 -10.210
-10.210 -10.210 -10.209 -10.209 -10.209 -10.209 -10.209 -10.209
-10.209 -10.209 -10.208 -10.208 -10.207 -10.207 -10.207 -10.207
-10.207 -10.207 -10.207 -10.206 -10.206 -10.206 -10.205 -10.205
-10.205 -10.204 -10.204 -10.203 -10.203 -10.203 -10.203 -10.203
-10.202 -10.202 -10.201 -10.201 -10.200 -10.200 -10.199 -10.199
-10.195 -10.194 -10.194 -10.190  -1.098  -1.086  -1.016  -1.011
 -0.983  -0.982  -0.965  -0.965  -0.965  -0.963  -0.958  -0.958
 -0.936  -0.934  -0.928  -0.926  -0.926  -0.923  -0.922  -0.921
 -0.919  -0.918  -0.898  -0.898  -0.890  -0.888  -0.886  -0.885
 -0.873  -0.870  -0.855  -0.852  -0.841  -0.841  -0.839  -0.837
 -0.837  -0.833  -0.822  -0.819  -0.810  -0.806  -0.797  -0.797
 -0.796  -0.795  -0.794  -0.792  -0.791  -0.788  -0.784  -0.783
 -0.769  -0.769  -0.769  -0.767  -0.766  -0.766  -0.764  -0.761
 -0.748  -0.746  -0.743  -0.738  -0.731  -0.729  -0.717  -0.715
 -0.714  -0.714  -0.712  -0.711  -0.710  -0.709  -0.709  -0.708
 -0.706  -0.706  -0.704  -0.702  -0.701  -0.700  -0.675  -0.670
 -0.660  -0.658  -0.656  -0.656  -0.645  -0.645  -0.633  -0.632
 -0.629  -0.628  -0.625  -0.621  -0.621  -0.620  -0.618  -0.617
 -0.616  -0.615  -0.613  -0.610  -0.610  -0.609  -0.608  -0.608
 -0.607  -0.606  -0.602  -0.600  -0.568  -0.566  -0.562  -0.561
 -0.560  -0.559  -0.558  -0.558  -0.556  -0.555  -0.554  -0.552
 -0.537  -0.535  -0.534  -0.531  -0.528  -0.527  -0.526  -0.526
 -0.523  -0.522  -0.519  -0.518  -0.516  -0.515  -0.513  -0.511
 -0.506  -0.505  -0.499  -0.495  -0.494  -0.492  -0.487  -0.486
 -0.485  -0.483  -0.481  -0.478  -0.478  -0.475  -0.474  -0.474
 -0.472  -0.472  -0.471  -0.470  -0.468  -0.467  -0.466  -0.465
 -0.464  -0.463  -0.463  -0.462  -0.462  -0.460  -0.460  -0.459
 -0.457  -0.453  -0.451  -0.450  -0.445  -0.445  -0.443  -0.441
 -0.441  -0.440  -0.438  -0.438  -0.436  -0.436  -0.435  -0.434
 -0.434  -0.429  -0.428  -0.426  -0.426  -0.425  -0.424  -0.423
 -0.423  -0.422  -0.421  -0.420  -0.420  -0.419  -0.418  -0.417
 -0.416  -0.415  -0.415  -0.414  -0.414  -0.413  -0.412  -0.411
 -0.410  -0.410  -0.407  -0.407  -0.404  -0.400  -0.400  -0.396
 -0.395  -0.393  -0.392  -0.391  -0.390  -0.388  -0.386  -0.386
 -0.383  -0.378  -0.375  -0.371  -0.371  -0.369  -0.369  -0.368
 -0.366  -0.364  -0.363  -0.361  -0.360  -0.360  -0.359  -0.357
 -0.356  -0.355  -0.354  -0.353  -0.352  -0.351  -0.351  -0.350
 -0.349  -0.348  -0.347  -0.347  -0.344  -0.344  -0.343  -0.343
 -0.341  -0.340  -0.339  -0.337  -0.335  -0.335  -0.333  -0.333
 -0.331  -0.330  -0.329  -0.328  -0.326  -0.325  -0.325  -0.321
 -0.316  -0.309  -0.300  -0.297  -0.287  -0.286  -0.272  -0.270
 -0.269  -0.268  -0.267  -0.266  -0.266  -0.264  -0.264  -0.264
 -0.261  -0.259  -0.258  -0.258  -0.257  -0.255  -0.254  -0.252
 -0.251  -0.248  -0.245  -0.242  -0.220  -0.218  -0.213  -0.210
 -0.209  -0.208  -0.204  -0.201  -0.199  -0.199

          Ground-State Mulliken Net Atomic Charges

     Atom                 Charge (a.u.)
  ----------------------------------------
      1 O                    -0.477346
      2 C                    -0.081428
      3 H                     0.125798
      4 H                     0.127371
      5 H                     0.126005
      6 O                    -0.461193
      7 C                     0.579283
      8 C                    -0.249164
      9 H                     0.133665
     10 H                     0.132729
     11 C                    -0.194490
     12 H                     0.121789
     13 H                     0.116302
     14 C                    -0.185836
     15 H                     0.110381
     16 H                     0.106734
     17 C                     0.012030
     18 C                     0.090700
     19 C                    -0.128941
     20 H                     0.103127
     21 C                    -0.093993
     22 H                     0.102016
     23 C                    -0.071281
     24 H                     0.086563
     25 C                    -0.080375
     26 H                     0.093341
     27 C                    -0.119897
     28 H                     0.097887
     29 C                    -0.003890
     30 C                     0.037258
     31 C                    -0.018567
     32 C                    -0.021453
     33 C                    -0.012425
     34 C                    -0.006724
     35 C                     0.010182
     36 C                     0.004475
     37 C                     0.000539
     38 C                    -0.009287
     39 C                    -0.073518
     40 C                    -0.008735
     41 C                    -0.027415
     42 C                    -0.015665
     43 C                     0.006637
     44 C                     0.015326
     45 C                    -0.093134
     46 C                     0.047673
     47 C                    -0.002002
     48 C                    -0.021796
     49 C                    -0.018299
     50 C                     0.006331
     51 C                    -0.005058
     52 C                     0.013551
     53 C                     0.033440
     54 C                     0.016839
     55 C                     0.006920
     56 C                    -0.014759
     57 C                     0.005698
     58 C                     0.019112
     59 C                    -0.007878
     60 C                     0.011241
     61 C                     0.005577
     62 C                    -0.008395
     63 C                     0.002894
     64 C                     0.009108
     65 C                    -0.015578
     66 C                    -0.005398
     67 C                    -0.031353
     68 C                     0.023521
     69 C                    -0.006497
     70 C                     0.004992
     71 C                     0.011240
     72 C                    -0.002951
     73 C                    -0.007344
     74 C                     0.000597
     75 C                     0.010850
     76 C                    -0.028445
     77 C                    -0.008014
     78 C                    -0.024033
     79 C                     0.009802
     80 C                    -0.002718
     81 C                     0.005459
     82 C                     0.004554
     83 C                    -0.015269
     84 C                     0.011661
     85 C                     0.025998
     86 C                     0.017098
     87 C                     0.018415
     88 C                    -0.003673
     89 O                    -0.489837
     90 C                    -0.091654
     91 H                     0.140041
     92 H                     0.128759
     93 H                     0.126573
     94 O                    -0.426417
     95 C                     0.592927
     96 C                    -0.268138
     97 H                     0.124957
     98 H                     0.124653
     99 C                    -0.187863
    100 H                     0.129022
    101 H                     0.104725
    102 C                    -0.181528
    103 H                     0.112648
    104 H                     0.117873
    105 C                     0.003967
    106 C                     0.120336
    107 C                    -0.102930
    108 H                     0.082217
    109 C                    -0.093999
    110 H                     0.092789
    111 C                    -0.086539
    112 H                     0.099810
    113 C                    -0.106881
    114 H                     0.091433
    115 C                    -0.108388
    116 H                     0.088563
    117 C                    -0.024168
    118 C                     0.017099
    119 C                     0.016506
    120 C                     0.022715
    121 C                     0.018296
    122 C                    -0.007498
    123 C                    -0.006484
    124 C                    -0.059258
    125 C                     0.015849
    126 C                    -0.040923
    127 C                    -0.104618
    128 C                    -0.012743
    129 C                     0.033964
    130 C                    -0.019804
    131 C                    -0.029592
    132 C                    -0.020744
    133 C                    -0.081834
    134 C                     0.050099
    135 C                    -0.023571
    136 C                    -0.003493
    137 C                    -0.002364
    138 C                     0.045943
    139 C                     0.022681
    140 C                     0.006406
    141 C                     0.051492
    142 C                    -0.022423
    143 C                     0.015508
    144 C                    -0.012027
    145 C                    -0.001848
    146 C                    -0.006694
    147 C                    -0.006845
    148 C                    -0.018748
    149 C                    -0.041946
    150 C                    -0.025770
    151 C                     0.010595
    152 C                     0.009222
    153 C                    -0.020791
    154 C                    -0.035124
    155 C                     0.009513
    156 C                    -0.018731
    157 C                    -0.007013
    158 C                     0.013492
    159 C                    -0.015580
    160 C                     0.043908
    161 C                     0.029930
    162 C                     0.006728
    163 C                     0.030347
    164 C                     0.059161
    165 C                    -0.006877
    166 C                    -0.006185
    167 C                    -0.012771
    168 C                     0.028213
    169 C                     0.004992
    170 C                    -0.005830
    171 C                     0.022390
    172 C                    -0.022613
    173 C                    -0.003306
    174 C                     0.031974
    175 C                    -0.007738
    176 C                    -0.016682
  ----------------------------------------
  Sum of atomic charges =     0.000000

                    Cartesian Multipole Moments
 -----------------------------------------------------------------
    Charge (ESU x 10^10)
                 0.0000
    Dipole Moment (Debye)
         X       2.9021      Y      -2.9934      Z      -1.2151
       Tot       4.3427
    Quadrupole Moments (Debye-Ang)
        XX    -810.2449     XY      -6.6778     YY    -780.4088
        XZ       9.8336     YZ      -6.9340     ZZ    -806.2273

 Total job time:  855.38s(wall), 7318.63s(cpu)
        *  Thank you very much for using Q-Chem.  Have a nice day.  *
