 Q-Chem 4.4, Q-Chem, Inc., Pleasanton, CA (2016)
 Q-Chem 4.4.2 for Intel X86 Linux

User input:
--------------------------------------------------------------
$comment
SP
$end

$rem
MEM_STATIC 5000
MEM_TOTAL 20000
JOBTYPE SP
EXCHANGE B3LYP
BASIS 6-31g(d,p)
$end

$molecule
0 1
O          -9.946000     16.055000     -1.397000
C          -8.511000     15.828000     -1.695000
H          -8.062000     15.345000     -0.818000
H          -8.077000     16.814000     -1.901000
H          -8.321000     15.210000     -2.582000
O         -10.237000     13.789000     -1.543000
C         -10.678000     14.905000     -1.296000
C         -12.154000     15.201000     -1.018000
H         -12.618000     14.207000     -1.021000
H         -12.522000     15.782000     -1.873000
C         -12.366000     15.824000      0.331000
H         -13.269000     15.373000      0.761000
H         -11.536000     15.671000      1.031000
C         -12.725000     17.335000      0.207000
H         -12.027000     17.767000     -0.521000
H         -13.686000     17.540000     -0.281000
C         -12.576000     18.168000      1.486000
C         -13.424000     17.557000      2.569000
C         -12.934000     16.542000      3.391000
H         -11.910000     16.207000      3.253000
C         -13.590000     16.086000      4.548000
H         -13.037000     15.339000      5.112000
C         -14.898000     16.519000      4.742000
H         -15.448000     16.137000      5.597000
C         -15.488000     17.505000      3.898000
H         -16.459000     17.923000      4.147000
C         -14.698000     18.046000      2.901000
H         -15.081000     18.891000      2.336000
C         -12.403000     22.883000      3.848000
C         -10.977000     21.579000      5.284000
C          -7.071000     23.686000      4.002000
C         -11.003000     22.720000     -0.928000
C          -6.262000     21.168000      1.753000
C         -12.072000     21.678000      4.522000
C          -8.253000     22.409000     -0.992000
C          -9.289000     24.574000      4.448000
C          -9.254000     18.693000      3.117000
C         -10.409000     21.469000     -1.137000
C         -11.212000     18.625000      1.779000
C          -8.828000     18.739000      1.772000
C          -8.706000     20.122000     -0.656000
C          -7.091000     22.347000     -0.216000
C         -11.249000     19.647000      4.138000
C          -6.478000     23.588000      1.829000
C         -12.288000     19.563000      1.510000
C         -12.121000     20.450000      0.386000
C          -6.124000     22.377000      2.470000
C          -9.998000     25.381000      1.096000
C          -8.197000     25.121000      2.398000
C          -9.264000     25.302000      3.254000
C         -10.512000     23.924000      4.910000
C         -12.690000     21.661000      0.589000
C         -10.652000     18.811000      3.164000
C         -10.169000     22.710000      5.412000
C          -9.006000     21.325000     -1.256000
C         -10.383000     20.324000      5.019000
C          -7.652000     19.417000      1.410000
C         -12.023000     24.051000      0.555000
C          -8.203000     23.773000      4.820000
C          -9.960000     18.676000      0.927000
C         -11.638000     24.791000      2.895000
C          -7.578000     19.998000      0.174000
C          -8.413000     19.353000      4.057000
C          -8.048000     24.396000      0.069000
C          -8.814000     23.681000     -0.794000
C          -7.285000     20.068000      3.695000
C         -12.148000     22.823000     -0.073000
C         -10.965000     20.390000     -0.439000
C         -10.810000     24.667000      0.185000
C         -12.862000     20.507000      2.591000
C          -8.172000     21.354000      5.238000
C          -9.893000     19.536000     -0.148000
C          -6.898000     20.073000      2.369000
C         -12.409000     24.074000      1.931000
C          -6.471000     22.435000      3.800000
C         -11.692000     24.096000      4.095000
C          -7.123000     24.353000      2.802000
C          -9.000000     20.189000      5.076000
C          -7.046000     21.228000      4.386000
C         -12.263000     20.485000      3.868000
C         -13.095000     21.707000      1.913000
C          -8.645000     25.222000      1.046000
C          -8.764000     22.600000      5.359000
C          -6.751000     21.136000      0.405000
C         -10.192000     23.841000     -0.767000
C          -7.004000     23.528000      0.506000
C         -12.857000     22.872000      2.548000
C         -10.439000     25.406000      2.472000
O          -6.014000     27.464000      0.960000
C          -6.203000     28.252000      2.101000
H          -6.573000     29.221000      1.746000
H          -5.369000     28.277000      2.813000
H          -7.072000     27.848000      2.634000
O          -4.107000     28.474000      0.261000
C          -5.048000     27.729000      0.044000
C          -5.233000     26.957000     -1.233000
H          -5.904000     27.575000     -1.843000
H          -5.714000     26.048000     -0.852000
C          -4.008000     26.479000     -1.985000
H          -3.343000     27.298000     -2.286000
H          -3.392000     25.990000     -1.220000
C          -4.415000     25.622000     -3.180000
H          -4.978000     24.786000     -2.746000
H          -5.132000     26.087000     -3.866000
C          -3.269000     25.210000     -4.162000
C          -2.643000     26.347000     -4.863000
C          -1.446000     26.981000     -4.396000
H          -0.800000     26.574000     -3.623000
C          -1.049000     28.222000     -4.918000
H          -0.151000     28.755000     -4.621000
C          -1.810000     28.857000     -5.915000
H          -1.468000     29.839000     -6.228000
C          -3.008000     28.264000     -6.416000
H          -3.572000     28.735000     -7.215000
C          -3.400000     27.064000     -5.856000
H          -4.344000     26.743000     -6.287000
C          -2.907000     21.749000     -8.293000
C          -0.592000     21.887000     -7.437000
C          -0.260000     17.861000     -5.615000
C          -5.885000     20.423000     -4.273000
C          -0.890000     18.938000     -2.383000
C          -1.831000     22.485000     -7.693000
C          -4.430000     18.913000     -2.514000
C          -1.366000     18.499000     -7.705000
C          -0.453000     22.776000     -3.473000
C          -5.336000     21.054000     -3.173000
C          -2.475000     23.937000     -3.901000
C          -1.286000     22.466000     -2.381000
C          -3.676000     21.070000     -1.666000
C          -3.163000     18.346000     -2.354000
C          -0.973000     23.435000     -5.813000
C          -1.693000     17.316000     -3.922000
C          -3.638000     23.899000     -4.785000
C          -4.771000     22.966000     -4.424000
C          -0.610000     18.018000     -3.395000
C          -4.678000     18.049000     -6.486000
C          -2.592000     17.106000     -6.186000
C          -2.554000     17.759000     -7.380000
C          -1.500000     19.784000     -8.246000
C          -5.216000     22.350000     -5.559000
C          -1.148000     23.621000     -4.382000
C          -0.419000     20.538000     -7.707000
C          -4.655000     20.255000     -2.240000
C          -0.026000     22.448000     -6.281000
C          -1.239000     21.156000     -1.843000
C          -5.587000     20.208000     -6.538000
C          -0.216000     18.511000     -6.854000
C          -2.568000     23.057000     -2.687000
C          -3.908000     19.622000     -8.208000
C          -2.396000     20.504000     -1.427000
C           0.522000     21.820000     -4.010000
C          -4.041000     17.380000     -4.217000
C          -5.046000     18.281000     -3.674000
C           0.583000     20.526000     -3.411000
C          -5.861000     21.113000     -5.539000
C          -4.826000     22.283000     -3.204000
C          -5.622000     18.942000     -5.973000
C          -3.463000     23.563000     -6.201000
C           0.878000     20.305000     -5.661000
C          -3.722000     22.334000     -2.363000
C          -0.307000     20.216000     -2.357000
C          -4.774000     20.588000     -7.663000
C           0.256000     18.355000     -4.401000
C          -2.743000     20.376000     -8.583000
C          -1.503000     17.261000     -5.289000
C           0.711000     21.680000     -5.390000
C           0.902000     19.628000     -4.438000
C          -2.121000     23.359000     -6.631000
C          -4.469000     22.749000     -6.661000
C          -3.905000     17.215000     -5.610000
C           0.335000     19.763000     -6.852000
C          -2.145000     19.119000     -1.847000
C          -5.774000     19.058000     -4.580000
C          -2.961000     17.399000     -3.388000
C          -4.236000     21.881000     -7.753000
C          -3.816000     18.391000     -7.560000
$end

--------------------------------------------------------------

             Standard Nuclear Orientation (Angstroms)
    I     Atom           X                Y                Z
 ----------------------------------------------------------------
    1      O       2.9873019957    -5.4873497649     0.8892941185
    2      C       1.7388773594    -5.6228542962     0.1002234947
    3      H       2.0238361429    -5.8050136134    -0.9436325658
    4      H       1.1872039479    -4.6835826578     0.2283376481
    5      H       1.0714984044    -6.4270386043     0.4359107437
    6      O       3.3196878902    -7.7298412834     0.5706965563
    7      C       3.7082295197    -6.6446940540     0.9859517703
    8      C       4.9677854996    -6.4529038118     1.8346043708
    9      H       5.4053687281    -7.4581348963     1.8716500842
   10      H       4.6275618169    -6.1619919184     2.8364167863
   11      C       5.9546267913    -5.5249401908     1.1881511372
   12      H       6.9546677128    -5.9450334132     1.3529232217
   13      H       5.8075695124    -5.3947966046     0.1093806317
   14      C       6.0014182679    -4.1496108948     1.9186700524
   15      H       4.9607975885    -3.8489720516     2.0934181213
   16      H       6.3809203911    -4.1888327233     2.9473244096
   17      C       6.6526413906    -2.9984527509     1.1423490026
   18      C       8.0553163529    -3.3940784687     0.7664537491
   19      C       8.3228981738    -4.0959486404    -0.4090407134
   20      H       7.4971449697    -4.3388269134    -1.0716014958
   21      C       9.6161099891    -4.3021221273    -0.9209163761
   22      H       9.6421827603    -4.8079379855    -1.8828854651
   23      C      10.6820514753    -3.9823455039    -0.0857513271
   24      H      11.6907018998    -4.1851426748    -0.4335251454
   25      C      10.4775408602    -3.3252260955     1.1628484852
   26      H      11.3288342130    -2.9677040289     1.7347257443
   27      C       9.1812587844    -2.9805590378     1.4969852824
   28      H       9.0182171068    -2.3620901302     2.3749674130
   29      C       7.6365912834     2.1603392581     0.6335213151
   30      C       7.6339455801     1.4475184043    -1.6660150361
   31      C       3.6733373022     3.5662616753    -2.7450507260
   32      C       3.4670341358     0.9051212172     3.0492956967
   33      C       1.8246785404     0.6523863121    -2.3647914070
   34      C       7.9435881739     1.2197106642    -0.3847285351
   35      C       1.3961358185     0.8975905434     1.2122762497
   36      C       5.5434601987     4.2866246962    -1.3700229190
   37      C       5.1894169939    -1.6953221891    -2.0407776212
   38      C       3.0015098785    -0.2823133159     2.4706728527
   39      C       5.7819911434    -2.3310332661     0.1667910196
   40      C       3.9829143319    -1.9571908526    -1.3563850951
   41      C       2.1682952224    -1.2564271794     0.6533026324
   42      C       1.0421169877     1.1720247441    -0.1127220661
   43      C       7.2642313907    -0.7356361026    -1.2001053700
   44      C       1.8113799878     2.9673991725    -1.6235960180
   45      C       6.3232907434    -1.6230779010     1.3138633555
   46      C       5.3776163451    -1.0498364959     2.2385947889
   47      C       2.0800479697     2.0149162665    -2.6351847830
   48      C       3.7972448592     4.0996226018     1.6804846133
   49      C       3.3289782927     4.3939898577    -0.4875742745
   50      C       4.6728342601     4.6732199298    -0.3459137449
   51      C       6.8224576838     3.6484716587    -1.0723668524
   52      C       5.8242091039     0.1004813106     2.7943059114
   53      C       6.2554134177    -1.7261218557    -1.1279578116
   54      C       7.0083332272     2.6553453570    -1.9793395263
   55      C       1.8868945638    -0.2947983065     1.5984441985
   56      C       7.1320093515     0.2415297594    -2.2061422532
   57      C       2.8021692613    -1.2711699568    -1.6864160159
   58      C       5.0807177970     2.4565109940     3.0277364317
   59      C       5.0496045211     3.7381547197    -2.5594211931
   60      C       4.2807762216    -2.3662024575    -0.0360041645
   61      C       6.2609070821     3.8238247639     1.3221481737
   62      C       1.8809481801    -1.0310146094    -0.7043721632
   63      C       5.1162354922    -0.7217326320    -3.0767548614
   64      C       1.7550419877     3.1036217265     0.8651051383
   65      C       1.8277905093     2.1059465943     1.7827662866
   66      C       3.9679698719    -0.0056176885    -3.3654042210
   67      C       4.8758457996     1.1006210069     3.2215992896
   68      C       3.9762839626    -1.1950123457     2.0495114039
   69      C       3.8727922900     3.0851471184     2.6624179509
   70      C       7.3751469106    -0.4983941767     1.1802290637
   71      C       5.5257250462     1.5332830650    -3.5284909697
   72      C       3.4446235788    -1.8171313148     0.9121960454
   73      C       2.8069394631    -0.3061421855    -2.6800113288
   74      C       6.2712409176     2.7971242141     2.3139168931
   75      C       3.2079213489     2.3813377887    -3.3325440222
   76      C       7.1541080005     3.4671908671     0.3216755938
   77      C       2.8620550333     3.8842157527    -1.6828269807
   78      C       6.1471289829     0.2816998922    -3.1872436853
   79      C       4.1352381240     1.3144067360    -3.6967029540
   80      C       7.7677722865    -0.1168482416    -0.1198793986
   81      C       6.9926562559     0.4473435790     2.1358723007
   82      C       2.7667596296     4.0853127264     0.7881363523
   83      C       5.9324144841     2.6930168005    -2.8903355311
   84      C       1.3081238090     0.2127198036    -1.1010218193
   85      C       2.8617821374     2.1123748163     2.7079867960
   86      C       1.3415342089     2.5033359478    -0.3608627653
   87      C       7.1234246054     1.7573271624     1.8461540754
   88      C       5.0287372654     4.4360057804     1.0031702029
   89      O       0.5332515131     6.5053329067    -0.2659342433
   90      C       1.3509271737     7.5393153771    -0.7358627113
   91      H       1.3045754328     8.3332737503     0.0187018106
   92      H       1.1922207025     7.8436443565    -1.7776501792
   93      H       2.3888154850     7.1951394546    -0.6534200787
   94      O      -1.4466876456     7.5026295055    -0.7461325585
   95      C      -0.8158783834     6.6264610935    -0.1786789583
   96      C      -1.4445175345     5.5302639180     0.6362459279
   97      H      -1.4005233847     5.8871748042     1.6730410543
   98      H      -0.7498806113     4.7055339410     0.4359885688
   99      C      -2.8106936728     5.0114042835     0.2375474967
  100      H      -3.5821030564     5.7914771887     0.2366389162
  101      H      -2.7237065325     4.8127170766    -0.8379796444
  102      C      -3.2114566091     3.8304935307     1.1167299936
  103      H      -2.4274306522     3.0804900838     0.9523550306
  104      H      -3.1687469446     4.0156598510     2.1959886829
  105      C      -4.6757267984     3.3055949054     0.9500619219
  106      C      -5.7102395468     4.2809119353     1.3432362657
  107      C      -6.3580813454     5.1450328541     0.4017215065
  108      H      -6.2959064101     5.0303849660    -0.6769277132
  109      C      -7.1133258011     6.2414780785     0.8462298663
  110      H      -7.6397139263     6.9307031892     0.1930941312
  111      C      -7.2577675047     6.5028914211     2.2199673443
  112      H      -7.8105109806     7.3999207589     2.4827790961
  113      C      -6.6353197257     5.6690129357     3.1972387672
  114      H      -6.7818776501     5.8473239159     4.2579290938
  115      C      -5.8626657141     4.6224073938     2.7336801212
  116      H      -5.4095721942     4.0959840586     3.5688583862
  117      C      -7.3384832704    -1.0566707429     2.6979441788
  118      C      -8.5212971758    -0.4406820721     0.6164749327
  119      C      -7.1988802420    -3.7828906819    -1.9757131512
  120      C      -2.3463818288    -1.6035010233     1.4461215711
  121      C      -4.7045929009    -1.9715715461    -3.5569489491
  122      C      -7.8178997369    -0.0733604477     1.7691101166
  123      C      -2.1394250152    -2.4255909430    -1.1562894343
  124      C      -7.8033833142    -3.8444767937     0.3968726084
  125      C      -6.1041512332     1.4688334705    -2.0357116906
  126      C      -2.0932766200    -0.6482773634     0.4801777256
  127      C      -4.9801422845     2.2429779399    -0.0974410119
  128      C      -4.7347551854     1.3657092748    -2.3464734396
  129      C      -2.3470257867    -0.0512786380    -1.6660070014
  130      C      -2.9297120429    -2.7853104952    -2.2510160018
  131      C      -7.3133070168     1.4271451738     0.1360353888
  132      C      -4.9639180497    -4.0202936815    -2.3823417471
  133      C      -4.6870238361     1.8442082757     1.2775256532
  134      C      -3.5154189238     0.9183542966     1.5112676876
  135      C      -5.4933635126    -3.0879740901    -3.2733466188
  136      C      -4.4825866114    -4.3254327086     1.5795795318
  137      C      -5.7588167525    -4.9171547290    -0.2511980838
  138      C      -6.6322018786    -4.6009818784     0.7441521813
  139      C      -8.1778621720    -2.7702030415     1.2139181949
  140      C      -3.8707281411    -0.0200719147     2.4379918139
  141      C      -6.2596877133     1.9620061823    -0.7106003444
  142      C      -8.7027602942    -1.7851190155     0.3297861781
  143      C      -1.9157738279    -1.0926223117    -0.8403151089
  144      C      -8.2376251938     0.4640786870    -0.4190689705
  145      C      -4.2948241839     0.2569655109    -3.1112616324
  146      C      -4.0371576545    -2.3716417621     2.7938941457
  147      C      -8.1060345458    -3.4807514770    -0.9532944650
  148      C      -4.0313740678     1.7083733893    -1.1322752234
  149      C      -6.3360046416    -3.1845788180     2.7179147220
  150      C      -3.0952421215    -0.3878201996    -2.8247947705
  151      C      -7.0976240401     0.5204665678    -2.5519887478
  152      C      -3.4066862246    -4.2989158670    -0.6211990157
  153      C      -2.3817139263    -3.4050330043    -0.1044009744
  154      C      -6.6295876030    -0.5553440730    -3.3647195511
  155      C      -3.2600220686    -1.2723610365     2.5115040477
  156      C      -2.6094476655     0.5783660964     0.5005560062
  157      C      -3.5222212861    -3.4402853976     2.0755298114
  158      C      -5.7168536172     1.1695398436     2.0730444328
  159      C      -8.3077083789    -1.3256270444    -2.0272066332
  160      C      -2.8878703231     0.9716969427    -0.8019299511
  161      C      -5.2425002091    -0.6748275912    -3.6113533902
  162      C      -5.4197680937    -2.2123439122     3.1599632218
  163      C      -6.8334721157    -2.9326798883    -3.0376484165
  164      C      -7.5241190402    -2.4303710062     2.4247923029
  165      C      -5.9988944965    -4.4111124904    -1.5553602400
  166      C      -8.1324937648     0.0446600713    -1.7381252269
  167      C      -7.4594377427    -1.6502476953    -3.0900765033
  168      C      -6.9845299196     1.0109845703     1.4442861188
  169      C      -5.1906102155     0.1561043012     2.8360963862
  170      C      -4.4081136493    -4.8080212961     0.2297561977
  171      C      -8.6333457647    -2.2188094428    -0.9768355102
  172      C      -3.4302533926    -1.7974707226    -3.0662049008
  173      C      -2.5042687887    -2.9799265957     1.2218018182
  174      C      -3.6720593161    -3.9420884436    -1.9081540701
  175      C      -6.0015913547    -0.9367470533     3.2210152202
  176      C      -5.8648324970    -4.1836690731     1.8673005484
 ----------------------------------------------------------------

    9   -5804.2351906466      7.92E-06 Convergence criterion met
 Total energy in the final basis set = -5804.2351906466

                    Orbital Energies (a.u.)
 --------------------------------------------------------------

 Alpha MOs
 -- Occupied --
-19.195 -19.190 -19.135 -19.130 -10.315 -10.313 -10.244 -10.242
-10.239 -10.236 -10.235 -10.233 -10.231 -10.231 -10.231 -10.230
-10.229 -10.229 -10.227 -10.227 -10.224 -10.224 -10.223 -10.222
-10.222 -10.221 -10.221 -10.221 -10.221 -10.221 -10.221 -10.221
-10.221 -10.220 -10.220 -10.220 -10.220 -10.220 -10.220 -10.219
-10.219 -10.219 -10.219 -10.219 -10.219 -10.219 -10.219 -10.219
-10.219 -10.219 -10.218 -10.218 -10.218 -10.218 -10.218 -10.218
-10.218 -10.217 -10.217 -10.217 -10.217 -10.217 -10.217 -10.217
-10.217 -10.217 -10.217 -10.217 -10.217 -10.216 -10.216 -10.216
-10.216 -10.215 -10.215 -10.215 -10.215 -10.215 -10.215 -10.215
-10.215 -10.215 -10.214 -10.214 -10.214 -10.214 -10.214 -10.214
-10.214 -10.214 -10.213 -10.213 -10.213 -10.213 -10.213 -10.213
-10.213 -10.213 -10.213 -10.213 -10.213 -10.213 -10.212 -10.212
-10.212 -10.212 -10.212 -10.212 -10.212 -10.212 -10.211 -10.211
-10.211 -10.211 -10.211 -10.210 -10.210 -10.210 -10.210 -10.210
-10.210 -10.209 -10.209 -10.209 -10.208 -10.208 -10.208 -10.207
-10.206 -10.206 -10.206 -10.205 -10.204 -10.204 -10.203 -10.202
-10.202 -10.201 -10.201 -10.201 -10.201 -10.200 -10.199 -10.199
-10.199 -10.198 -10.196 -10.190  -1.099  -1.088  -1.009  -1.003
 -0.991  -0.984  -0.977  -0.970  -0.970  -0.964  -0.962  -0.959
 -0.949  -0.937  -0.935  -0.928  -0.928  -0.927  -0.924  -0.924
 -0.921  -0.919  -0.907  -0.897  -0.893  -0.890  -0.888  -0.886
 -0.881  -0.875  -0.859  -0.852  -0.848  -0.843  -0.843  -0.840
 -0.838  -0.836  -0.825  -0.821  -0.813  -0.808  -0.806  -0.802
 -0.799  -0.798  -0.796  -0.794  -0.793  -0.792  -0.787  -0.783
 -0.774  -0.772  -0.771  -0.769  -0.769  -0.768  -0.766  -0.764
 -0.754  -0.753  -0.747  -0.742  -0.735  -0.732  -0.721  -0.720
 -0.717  -0.716  -0.714  -0.714  -0.713  -0.712  -0.711  -0.709
 -0.708  -0.708  -0.705  -0.704  -0.704  -0.703  -0.677  -0.676
 -0.663  -0.662  -0.659  -0.658  -0.651  -0.648  -0.635  -0.634
 -0.632  -0.628  -0.627  -0.625  -0.623  -0.623  -0.620  -0.619
 -0.618  -0.616  -0.615  -0.614  -0.613  -0.613  -0.613  -0.609
 -0.608  -0.606  -0.605  -0.603  -0.572  -0.567  -0.566  -0.563
 -0.562  -0.561  -0.560  -0.559  -0.559  -0.557  -0.555  -0.554
 -0.543  -0.537  -0.535  -0.533  -0.530  -0.529  -0.529  -0.528
 -0.526  -0.524  -0.523  -0.518  -0.517  -0.515  -0.515  -0.513
 -0.510  -0.507  -0.501  -0.500  -0.496  -0.493  -0.488  -0.488
 -0.487  -0.486  -0.484  -0.481  -0.480  -0.479  -0.478  -0.476
 -0.475  -0.474  -0.473  -0.471  -0.471  -0.469  -0.468  -0.468
 -0.467  -0.466  -0.465  -0.464  -0.464  -0.463  -0.461  -0.460
 -0.458  -0.457  -0.454  -0.452  -0.451  -0.448  -0.446  -0.445
 -0.445  -0.444  -0.442  -0.439  -0.438  -0.438  -0.436  -0.434
 -0.433  -0.432  -0.430  -0.429  -0.429  -0.428  -0.427  -0.426
 -0.426  -0.425  -0.424  -0.423  -0.422  -0.421  -0.420  -0.420
 -0.419  -0.417  -0.417  -0.416  -0.415  -0.415  -0.415  -0.414
 -0.414  -0.412  -0.411  -0.410  -0.403  -0.401  -0.400  -0.397
 -0.395  -0.394  -0.392  -0.391  -0.389  -0.386  -0.385  -0.384
 -0.384  -0.377  -0.376  -0.372  -0.371  -0.368  -0.368  -0.368
 -0.367  -0.365  -0.364  -0.363  -0.362  -0.362  -0.361  -0.360
 -0.359  -0.358  -0.358  -0.356  -0.355  -0.354  -0.353  -0.352
 -0.351  -0.350  -0.349  -0.349  -0.347  -0.347  -0.344  -0.342
 -0.342  -0.341  -0.341  -0.340  -0.340  -0.338  -0.336  -0.335
 -0.332  -0.331  -0.331  -0.331  -0.330  -0.329  -0.324  -0.322
 -0.315  -0.309  -0.302  -0.297  -0.291  -0.287  -0.276  -0.273
 -0.271  -0.269  -0.268  -0.267  -0.267  -0.266  -0.265  -0.264
 -0.262  -0.262  -0.261  -0.261  -0.259  -0.258  -0.258  -0.257
 -0.249  -0.249  -0.247  -0.243  -0.224  -0.219  -0.215  -0.213
 -0.212  -0.212  -0.210  -0.208  -0.198  -0.196

          Ground-State Mulliken Net Atomic Charges

     Atom                 Charge (a.u.)
  ----------------------------------------
      1 O                    -0.463914
      2 C                    -0.093800
      3 H                     0.131753
      4 H                     0.126700
      5 H                     0.139935
      6 O                    -0.474039
      7 C                     0.584249
      8 C                    -0.249270
      9 H                     0.133176
     10 H                     0.132945
     11 C                    -0.181919
     12 H                     0.122836
     13 H                     0.113414
     14 C                    -0.184403
     15 H                     0.115076
     16 H                     0.104516
     17 C                     0.005673
     18 C                     0.111571
     19 C                    -0.126778
     20 H                     0.083520
     21 C                    -0.070718
     22 H                     0.096359
     23 C                    -0.105635
     24 H                     0.087954
     25 C                    -0.082995
     26 H                     0.096364
     27 C                    -0.119734
     28 H                     0.083892
     29 C                     0.003160
     30 C                    -0.014791
     31 C                    -0.006166
     32 C                    -0.022976
     33 C                    -0.003187
     34 C                     0.012600
     35 C                     0.032313
     36 C                    -0.012725
     37 C                     0.001395
     38 C                    -0.031611
     39 C                    -0.074648
     40 C                    -0.025665
     41 C                    -0.012406
     42 C                    -0.004008
     43 C                     0.027550
     44 C                    -0.016396
     45 C                    -0.110478
     46 C                     0.069947
     47 C                    -0.007370
     48 C                    -0.005471
     49 C                     0.019282
     50 C                    -0.013689
     51 C                    -0.017398
     52 C                    -0.003073
     53 C                     0.036533
     54 C                     0.037264
     55 C                    -0.003366
     56 C                    -0.002117
     57 C                     0.036054
     58 C                    -0.020357
     59 C                    -0.006756
     60 C                     0.028003
     61 C                     0.020306
     62 C                    -0.015296
     63 C                    -0.021580
     64 C                    -0.020334
     65 C                     0.018085
     66 C                     0.039035
     67 C                     0.014376
     68 C                     0.008584
     69 C                     0.004683
     70 C                     0.011281
     71 C                    -0.023179
     72 C                     0.014527
     73 C                    -0.005801
     74 C                    -0.020011
     75 C                     0.011322
     76 C                    -0.039281
     77 C                     0.017889
     78 C                    -0.033380
     79 C                    -0.007569
     80 C                     0.014135
     81 C                    -0.015166
     82 C                     0.025168
     83 C                     0.016838
     84 C                    -0.027952
     85 C                    -0.002080
     86 C                    -0.004835
     87 C                     0.035267
     88 C                    -0.010740
     89 O                    -0.455278
     90 C                    -0.079099
     91 H                     0.116939
     92 H                     0.130252
     93 H                     0.117466
     94 O                    -0.472106
     95 C                     0.578736
     96 C                    -0.259959
     97 H                     0.132955
     98 H                     0.130148
     99 C                    -0.181461
    100 H                     0.125119
    101 H                     0.109379
    102 C                    -0.170479
    103 H                     0.110906
    104 H                     0.108303
    105 C                     0.005197
    106 C                     0.089060
    107 C                    -0.109961
    108 H                     0.099529
    109 C                    -0.080233
    110 H                     0.096081
    111 C                    -0.086353
    112 H                     0.088567
    113 C                    -0.084592
    114 H                     0.097248
    115 C                    -0.110217
    116 H                     0.088393
    117 C                    -0.009582
    118 C                    -0.002710
    119 C                    -0.001175
    120 C                    -0.017984
    121 C                     0.007378
    122 C                    -0.003261
    123 C                    -0.003634
    124 C                     0.006356
    125 C                     0.008489
    126 C                     0.024854
    127 C                    -0.053975
    128 C                    -0.017057
    129 C                    -0.037136
    130 C                    -0.000259
    131 C                    -0.027393
    132 C                    -0.004600
    133 C                    -0.108871
    134 C                     0.040951
    135 C                     0.017671
    136 C                     0.002322
    137 C                    -0.006173
    138 C                    -0.017283
    139 C                     0.017745
    140 C                     0.026922
    141 C                     0.018381
    142 C                    -0.005400
    143 C                     0.015450
    144 C                    -0.008739
    145 C                     0.018003
    146 C                     0.027460
    147 C                    -0.031125
    148 C                     0.035391
    149 C                    -0.027198
    150 C                    -0.015916
    151 C                    -0.013669
    152 C                     0.010549
    153 C                    -0.049109
    154 C                    -0.007818
    155 C                    -0.050422
    156 C                     0.000398
    157 C                    -0.011095
    158 C                     0.026336
    159 C                     0.021402
    160 C                    -0.002820
    161 C                     0.006397
    162 C                     0.020757
    163 C                    -0.008228
    164 C                    -0.014533
    165 C                     0.017913
    166 C                     0.002417
    167 C                    -0.017037
    168 C                     0.028559
    169 C                     0.002761
    170 C                    -0.021763
    171 C                     0.023606
    172 C                    -0.005993
    173 C                     0.012390
    174 C                     0.009446
    175 C                    -0.025945
    176 C                     0.032589
  ----------------------------------------
  Sum of atomic charges =     0.000000

                    Cartesian Multipole Moments
 -----------------------------------------------------------------
    Charge (ESU x 10^10)
                 0.0000
    Dipole Moment (Debye)
         X       2.7844      Y       1.8343      Z       2.1578
       Tot       3.9716
    Quadrupole Moments (Debye-Ang)
        XX    -779.8238     XY     -13.9582     YY    -828.5967
        XZ       0.2581     YZ      11.2506     ZZ    -800.3142

 Total job time:  858.18s(wall), 7313.48s(cpu)
        *  Thank you very much for using Q-Chem.  Have a nice day.  *
