 Q-Chem 4.4, Q-Chem, Inc., Pleasanton, CA (2016)
 Q-Chem 4.4.2 for Intel X86 Linux

User input:
--------------------------------------------------------------
$comment
SP
$end

$rem
MEM_STATIC 5000
MEM_TOTAL 20000
JOBTYPE SP
EXCHANGE B3LYP
BASIS 6-31g(d,p)
$end

$molecule
0 1
O          -9.273000     33.045000    -13.414000
C          -8.391000     33.976000    -14.116000
H          -7.338000     33.697000    -14.244000
H          -8.582000     34.916000    -13.585000
H          -8.705000     34.191000    -15.145000
O          -8.228000     33.576000    -11.549000
C          -9.066000     32.971000    -12.093000
C         -10.130000     32.205000    -11.372000
H         -11.109000     32.552000    -11.724000
H         -10.044000     32.554000    -10.336000
C          -9.946000     30.717000    -11.639000
H          -9.846000     30.621000    -12.727000
H          -8.976000     30.334000    -11.298000
C         -11.155000     29.944000    -10.998000
H         -11.184000     30.303000     -9.962000
H         -12.112000     30.139000    -11.499000
C         -10.977000     28.483000    -11.089000
C         -11.061000     27.930000    -12.446000
C          -9.870000     27.568000    -13.223000
H          -8.951000     27.721000    -12.665000
C          -9.897000     27.261000    -14.594000
H          -8.963000     26.905000    -15.019000
C         -11.076000     27.304000    -15.260000
H         -11.101000     27.174000    -16.338000
C         -12.243000     27.663000    -14.591000
H         -13.105000     27.789000    -15.239000
C         -12.243000     27.932000    -13.194000
H         -13.089000     28.408000    -12.706000
C         -12.579000     23.691000     -8.968000
C         -10.266000     23.299000     -9.501000
C          -8.800000     23.169000     -5.272000
C         -13.014000     27.765000     -6.126000
C          -7.605000     26.410000     -5.377000
C         -11.477000     23.938000     -9.833000
C         -10.789000     27.976000     -4.456000
C         -10.803000     22.206000     -6.254000
C          -8.183000     26.643000     -9.288000
C         -12.027000     28.679000     -6.435000
C         -10.107000     27.816000    -10.018000
C          -8.292000     27.817000     -8.540000
C          -9.808000     28.914000     -6.513000
C          -9.569000     27.316000     -4.200000
C          -9.806000     25.326000    -10.344000
C          -9.007000     24.951000     -3.981000
C         -11.592000     27.581000    -10.013000
C         -12.302000     28.080000     -8.861000
C          -7.898000     25.107000     -4.781000
C         -12.898000     24.556000     -4.702000
C         -10.949000     23.539000     -4.200000
C         -11.579000     22.805000     -5.225000
C         -11.281000     22.250000     -7.584000
C         -13.314000     27.182000     -8.455000
C          -9.246000     26.600000    -10.158000
C         -10.172000     22.483000     -8.390000
C         -10.877000     28.791000     -5.603000
C          -9.248000     24.169000     -9.819000
C          -7.789000     27.753000     -7.211000
C         -13.845000     25.748000     -6.609000
C          -9.405000     22.381000     -6.242000
C          -9.417000     28.548000     -8.916000
C         -13.229000     23.445000     -6.884000
C          -8.622000     28.291000     -6.192000
C          -7.550000     25.484000     -8.791000
C         -11.214000     25.885000     -3.575000
C         -11.803000     27.087000     -4.115000
C          -7.034000     25.434000     -7.501000
C         -13.642000     27.066000     -7.160000
C         -11.668000     28.791000     -7.805000
C         -13.445000     25.741000     -5.259000
C         -12.140000     26.241000    -10.164000
C          -7.961000     23.407000     -7.901000
C         -10.280000     28.952000     -7.821000
C          -7.151000     26.585000     -6.704000
C         -13.830000     24.616000     -7.397000
C          -7.740000     24.013000     -5.611000
C         -12.509000     22.846000     -7.897000
C          -9.558000     23.708000     -4.211000
C          -8.143000     24.262000     -9.001000
C          -7.306000     24.155000     -6.917000
C         -11.215000     25.162000    -10.406000
C         -13.201000     26.043000     -9.277000
C         -11.737000     24.651000     -3.910000
C          -8.999000     22.465000     -7.586000
C          -8.467000     27.484000     -5.051000
C         -12.913000     26.992000     -4.959000
C          -9.851000     26.027000     -3.689000
C         -13.484000     24.744000     -8.727000
C         -12.798000     23.416000     -5.534000
O          -6.014000     27.464000      0.960000
C          -6.203000     28.252000      2.101000
H          -6.573000     29.221000      1.746000
H          -5.369000     28.277000      2.813000
H          -7.072000     27.848000      2.634000
O          -4.107000     28.474000      0.261000
C          -5.048000     27.729000      0.044000
C          -5.233000     26.957000     -1.233000
H          -5.904000     27.575000     -1.843000
H          -5.714000     26.048000     -0.852000
C          -4.008000     26.479000     -1.985000
H          -3.343000     27.298000     -2.286000
H          -3.392000     25.990000     -1.220000
C          -4.415000     25.622000     -3.180000
H          -4.978000     24.786000     -2.746000
H          -5.132000     26.087000     -3.866000
C          -3.269000     25.210000     -4.162000
C          -2.643000     26.347000     -4.863000
C          -1.446000     26.981000     -4.396000
H          -0.800000     26.574000     -3.623000
C          -1.049000     28.222000     -4.918000
H          -0.151000     28.755000     -4.621000
C          -1.810000     28.857000     -5.915000
H          -1.468000     29.839000     -6.228000
C          -3.008000     28.264000     -6.416000
H          -3.572000     28.735000     -7.215000
C          -3.400000     27.064000     -5.856000
H          -4.344000     26.743000     -6.287000
C          -2.907000     21.749000     -8.293000
C          -0.592000     21.887000     -7.437000
C          -0.260000     17.861000     -5.615000
C          -5.885000     20.423000     -4.273000
C          -0.890000     18.938000     -2.383000
C          -1.831000     22.485000     -7.693000
C          -4.430000     18.913000     -2.514000
C          -1.366000     18.499000     -7.705000
C          -0.453000     22.776000     -3.473000
C          -5.336000     21.054000     -3.173000
C          -2.475000     23.937000     -3.901000
C          -1.286000     22.466000     -2.381000
C          -3.676000     21.070000     -1.666000
C          -3.163000     18.346000     -2.354000
C          -0.973000     23.435000     -5.813000
C          -1.693000     17.316000     -3.922000
C          -3.638000     23.899000     -4.785000
C          -4.771000     22.966000     -4.424000
C          -0.610000     18.018000     -3.395000
C          -4.678000     18.049000     -6.486000
C          -2.592000     17.106000     -6.186000
C          -2.554000     17.759000     -7.380000
C          -1.500000     19.784000     -8.246000
C          -5.216000     22.350000     -5.559000
C          -1.148000     23.621000     -4.382000
C          -0.419000     20.538000     -7.707000
C          -4.655000     20.255000     -2.240000
C          -0.026000     22.448000     -6.281000
C          -1.239000     21.156000     -1.843000
C          -5.587000     20.208000     -6.538000
C          -0.216000     18.511000     -6.854000
C          -2.568000     23.057000     -2.687000
C          -3.908000     19.622000     -8.208000
C          -2.396000     20.504000     -1.427000
C           0.522000     21.820000     -4.010000
C          -4.041000     17.380000     -4.217000
C          -5.046000     18.281000     -3.674000
C           0.583000     20.526000     -3.411000
C          -5.861000     21.113000     -5.539000
C          -4.826000     22.283000     -3.204000
C          -5.622000     18.942000     -5.973000
C          -3.463000     23.563000     -6.201000
C           0.878000     20.305000     -5.661000
C          -3.722000     22.334000     -2.363000
C          -0.307000     20.216000     -2.357000
C          -4.774000     20.588000     -7.663000
C           0.256000     18.355000     -4.401000
C          -2.743000     20.376000     -8.583000
C          -1.503000     17.261000     -5.289000
C           0.711000     21.680000     -5.390000
C           0.902000     19.628000     -4.438000
C          -2.121000     23.359000     -6.631000
C          -4.469000     22.749000     -6.661000
C          -3.905000     17.215000     -5.610000
C           0.335000     19.763000     -6.852000
C          -2.145000     19.119000     -1.847000
C          -5.774000     19.058000     -4.580000
C          -2.961000     17.399000     -3.388000
C          -4.236000     21.881000     -7.753000
C          -3.816000     18.391000     -7.560000
$end

--------------------------------------------------------------

             Standard Nuclear Orientation (Angstroms)
    I     Atom           X                Y                Z
 ----------------------------------------------------------------
    1      O      -9.8746282810     0.6134561542    -5.9216507306
    2      C     -10.0967117092     0.9050578797    -7.3369727380
    3      H      -9.2509641903     0.8002349332    -8.0274488666
    4      H     -10.5682739242     1.8939577607    -7.2951624188
    5      H     -10.8620532995     0.2723037255    -7.8033807467
    6      O      -8.6998939078     2.4727610527    -5.7983809171
    7      C      -9.1479565202     1.5314940608    -5.2716349200
    8      C      -9.1422952908     1.3360077497    -3.7882448659
    9      H     -10.1724720405     1.1606127855    -3.4554889930
   10      H      -8.8659509153     2.3226918213    -3.3976282651
   11      C      -8.2442694783     0.1562075307    -3.4405235934
   12      H      -8.5617402271    -0.6621566901    -4.0981346684
   13      H      -7.2035843544     0.2975837388    -3.7581038836
   14      C      -8.3680663304    -0.1250654081    -1.8992089360
   15      H      -8.1776999017     0.8491232469    -1.4325880114
   16      H      -9.3539302886    -0.5065038753    -1.6034861746
   17      C      -7.4183738978    -1.1628913393    -1.4570691167
   18      C      -7.7037785801    -2.5163136064    -1.9480949147
   19      C      -6.9776524822    -3.1137801097    -3.0746066400
   20      H      -6.2005272727    -2.4594221342    -3.4583071075
   21      C      -7.3743688324    -4.2985435754    -3.7177012426
   22      H      -6.6871483998    -4.6862823698    -4.4640950424
   23      C      -8.4923380935    -4.9384230132    -3.2980048803
   24      H      -8.8726839246    -5.7941164356    -3.8482183076
   25      C      -9.2440350561    -4.4153369069    -2.2493564160
   26      H     -10.1829623984    -4.9321062840    -2.0756070080
   27      C      -8.8330697670    -3.2428359703    -1.5563058516
   28      H      -9.5041926272    -2.7133163886    -0.8857544971
   29      C      -4.8384719050    -3.2242721152     2.9159303121
   30      C      -3.2138765552    -3.4809017337     1.1602101783
   31      C      -0.3913408441    -0.3332442980     2.6353514689
   32      C      -6.3882224155     1.5100480110     3.1353643507
   33      C      -1.5162702311     2.0197408536     0.3679463991
   34      C      -4.5698883202    -3.4806660270     1.5426994430
   35      C      -4.2824278744     3.2103821368     2.4582091163
   36      C      -1.6177906936    -2.0262449840     3.8736048534
   37      C      -3.6516313782    -0.6828109904    -1.5867250061
   38      C      -6.3668512378     2.0855228649     1.8810047670
   39      C      -5.9818167325    -0.7172683930    -1.1628690139
   40      C      -4.1157858737     0.6340430139    -1.5759020829
   41      C      -4.9924202936     2.5654131494     0.1881034425
   42      C      -2.9387474018     3.1435029122     2.0344332830
   43      C      -4.4346063150    -2.6072859845    -0.5064008670
   44      C      -1.0613280462     1.7686264491     2.7706678070
   45      C      -6.8749568920    -1.1251821527    -0.0242812835
   46      C      -7.1941235105    -0.0874868986     0.9252060674
   47      C      -0.7076118719     1.4968678390     1.4686504777
   48      C      -3.8313510153     0.3323820152     5.2364175260
   49      C      -1.6688946140     0.3169875297     4.5973249487
   50      C      -2.0921439848    -1.0179466986     4.7557281570
   51      C      -2.5191065749    -3.0168821450     3.4201870578
   52      C      -7.2027848814    -0.5875984784     2.2462652592
   53      C      -4.7212522839    -1.5064630969    -1.3293802462
   54      C      -2.2133144024    -3.2399972457     2.0820851188
   55      C      -5.2929062036     2.9443474231     1.5117752425
   56      C      -3.1486052657    -2.9367909697    -0.1023392802
   57      C      -3.1856588575     1.6144460599    -1.1320331822
   58      C      -5.9725946812    -0.3567122185     4.2906127362
   59      C      -0.7428560351    -1.6621701986     2.8309582719
   60      C      -5.4842011130     0.6808375665    -1.3178090709
   61      C      -4.2956970904    -2.0291938152     4.6775362151
   62      C      -3.6677520582     2.5641796848    -0.1900744848
   63      C      -2.3236495526    -1.0208584364    -1.2503216841
   64      C      -2.9840294317     2.3255704390     4.1494621261
   65      C      -4.3243108282     2.6701572243     3.7393027359
   66      C      -1.4086475517    -0.0562256694    -0.8439832005
   67      C      -6.8344215221     0.1931261184     3.2723464156
   68      C      -6.7418601735     1.2542422402     0.7916628459
   69      C      -5.1392827975     0.6603448856     4.7943340398
   70      C      -6.5266991127    -2.2445685256     0.8385023900
   71      C      -1.0201005871    -1.8873337968     0.4304312855
   72      C      -5.8770410522     1.5872203229    -0.2542503837
   73      C      -1.8448011864     1.2781295240    -0.7895293230
   74      C      -5.6150117224    -1.6888290132     4.3044789762
   75      C      -0.2900360992     0.1852329088     1.3423798008
   76      C      -3.8538089108    -3.0356086356     3.8437292554
   77      C      -0.8046719954     0.6595006128     3.5488178895
   78      C      -2.1004818328    -2.1084919043    -0.4402089706
   79      C      -0.6044367061    -0.5675633806     0.2249693994
   80      C      -5.3440917439    -3.0010101669     0.5103776353
   81      C      -6.7867011491    -1.9320614155     2.1750772091
   82      C      -2.7560226938     1.1531008066     4.8436075637
   83      C      -1.0579975590    -2.4863849475     1.7357031109
   84      C      -2.6177953949     2.8427482069     0.7027556131
   85      C      -5.3853398705     1.8212593906     4.0664889816
   86      C      -2.1653700709     2.5719987154     3.0724296496
   87      C      -5.9922058950    -2.4830274596     3.2405365981
   88      C      -3.4278072962    -1.0220271563     5.1689470680
   89      O       1.5538795531     7.4921048654     2.4720325249
   90      C       1.4223016421     8.8082420067     2.9292155063
   91      H       0.4475777124     9.1604766098     2.5718221022
   92      H       2.2786575265     9.4692588180     2.7480074092
   93      H       1.2732524645     8.7612969286     4.0145940127
   94      O       2.0000463109     8.0126766848     0.3097905854
   95      C       1.6963355613     7.1891148080     1.1566085207
   96      C       1.5025814885     5.7248344618     0.8750407186
   97      H       0.4215656501     5.6050130232     0.7290524320
   98      H       1.8599425167     5.2889013888     1.8158161708
   99      C       2.3310887419     5.0710969459    -0.2116128561
  100      H       2.1876293085     5.5327611093    -1.1964339522
  101      H       3.3608459616     5.3798505730     0.0076433098
  102      C       2.0664104356     3.5690336422    -0.2549051848
  103      H       2.3451813142     3.2069053532     0.7427775802
  104      H       1.0127279260     3.2826464328    -0.3478865557
  105      C       2.7071145494     2.7847040657    -1.4472597268
  106      C       2.1855273657     3.1753942117    -2.7706470547
  107      C       2.8350176019     4.1425850633    -3.6046484274
  108      H       3.8404967325     4.5183663945    -3.4364398988
  109      C       2.1655742983     4.6927076840    -4.7089059904
  110      H       2.5971855081     5.4199853213    -5.3897003807
  111      C       0.8539954218     4.2957810967    -5.0228568385
  112      H       0.3844749538     4.8065269921    -5.8582885595
  113      C       0.1657254554     3.3325422466    -4.2251668167
  114      H      -0.8310630928     2.9961418840    -4.4927212716
  115      C       0.8299355839     2.8382892619    -3.1198148853
  116      H       0.1864285612     2.1541295276    -2.5741390019
  117      C       3.3182111456    -2.4522650327    -2.6200519563
  118      C       5.1977531931    -1.3624511076    -3.7993026932
  119      C       8.5498895869    -2.7834813032    -1.2729537901
  120      C       3.6676026591    -1.0221078907     2.3417759448
  121      C       8.7934900274     0.1353280948     0.5774146930
  122      C       3.8774609681    -1.3413544657    -3.3360054102
  123      C       6.2899982609    -0.5705309485     2.9823425477
  124      C       6.5504871265    -4.0092404336    -1.9788463852
  125      C       6.3864084057     2.0742768780    -1.9830049372
  126      C       4.1258784863     0.2814727233     2.3268478151
  127      C       4.1182613141     2.2286043644    -1.3112305720
  128      C       6.4349251383     2.4931943975    -0.6396482316
  129      C       5.8869564152     1.6374920065     2.0323631263
  130      C       7.5723189717    -0.6334977418     2.4309200438
  131      C       4.6806464505     0.7848501813    -3.2510885094
  132      C       8.5645807706    -2.2020614671     0.9357784579
  133      C       2.9703490297     1.3816497469    -0.9943169191
  134      C       2.8797537215     0.8053080945     0.4000007599
  135      C       9.1190083163    -1.1649388078     0.1871739654
  136      C       5.0074204788    -4.0140980170     1.2268870292
  137      C       7.1391660432    -4.0984225494     0.3441666761
  138      C       6.2929253304    -4.4877387772    -0.6487071984
  139      C       5.4775837993    -3.5317410316    -2.7422170499
  140      C       2.4707551179    -0.4952052029     0.3157908706
  141      C       5.0326520707     1.8949174412    -2.3811317737
  142      C       6.0048021393    -2.4507554950    -3.5045221670
  143      C       5.4525087332     0.5070380659     2.7291206880
  144      C       5.7320505644    -0.0644914142    -3.7640897212
  145      C       7.4607937599     1.9817540844     0.1932835647
  146      C       3.0781770473    -2.7210592919     0.9165055900
  147      C       7.6912427966    -3.2056648329    -2.2947383843
  148      C       5.0684321598     2.4668905705    -0.1722661090
  149      C       3.9121262111    -4.0215985261    -0.9714730891
  150      C       7.2099623263     1.6332576625     1.5170822034
  151      C       7.4108543396     1.2021553890    -2.5685343020
  152      C       6.7715919457    -2.7620394517     2.3765562792
  153      C       5.7611883803    -1.9285026470     3.0097829609
  154      C       8.4619031394     0.7471914930    -1.7169109852
  155      C       2.7603927829    -1.4392761414     1.3014044289
  156      C       3.7424813057     1.1895402207     1.4324642162
  157      C       4.0319776350    -3.1969960569     1.8036102257
  158      C       2.7130526963     0.1791639218    -1.7920659004
  159      C       7.8800508453    -0.9457803200    -3.1288813632
  160      C       4.8240956054     2.0050861838     1.1263706210
  161      C       8.4552318148     1.1296435815    -0.3557343275
  162      C       2.9609316676    -3.1185989592    -0.4616125958
  163      C       9.1126019069    -1.4989494126    -1.1409664164
  164      C       4.1250100933    -3.5727096543    -2.3203782872
  165      C       8.1717557209    -3.1743775209     0.0368324239
  166      C       7.0622317313     0.1620989332    -3.4382847522
  167      C       8.7954644135    -0.5420040628    -2.1523483462
  168      C       3.5925428044    -0.0390131411    -2.8904173555
  169      C       2.3057156648    -0.8745461390    -1.0110385959
  170      C       6.3955290492    -3.8373823644     1.5468669891
  171      C       7.3362698115    -2.2515641638    -3.2084096014
  172      C       8.0313975008     0.4273041035     1.6860386108
  173      C       4.4258397446    -2.1580018173     2.6652206996
  174      C       7.8505001375    -1.9809976776     2.0938322781
  175      C       2.5351653507    -2.2035755512    -1.4367270537
  176      C       4.9675386484    -4.3934271679    -0.1398619729
 ----------------------------------------------------------------

    9   -5804.2671224084      7.31E-06 Convergence criterion met
 Total energy in the final basis set = -5804.2671224084

                    Orbital Energies (a.u.)
 --------------------------------------------------------------

 Alpha MOs
 -- Occupied --
-19.192 -19.188 -19.131 -19.128 -10.311 -10.306 -10.246 -10.242
-10.242 -10.237 -10.236 -10.235 -10.232 -10.230 -10.230 -10.228
-10.228 -10.226 -10.226 -10.226 -10.226 -10.226 -10.224 -10.224
-10.224 -10.222 -10.222 -10.222 -10.221 -10.221 -10.221 -10.221
-10.220 -10.220 -10.220 -10.219 -10.219 -10.219 -10.219 -10.218
-10.218 -10.218 -10.218 -10.218 -10.218 -10.218 -10.218 -10.217
-10.217 -10.217 -10.217 -10.217 -10.217 -10.217 -10.217 -10.217
-10.217 -10.217 -10.217 -10.216 -10.216 -10.216 -10.216 -10.216
-10.216 -10.216 -10.216 -10.216 -10.216 -10.216 -10.216 -10.216
-10.216 -10.216 -10.216 -10.216 -10.215 -10.215 -10.215 -10.215
-10.215 -10.215 -10.215 -10.214 -10.214 -10.214 -10.214 -10.214
-10.214 -10.214 -10.214 -10.214 -10.213 -10.213 -10.213 -10.213
-10.213 -10.212 -10.212 -10.212 -10.212 -10.212 -10.212 -10.211
-10.211 -10.211 -10.211 -10.211 -10.211 -10.210 -10.210 -10.210
-10.210 -10.210 -10.210 -10.209 -10.209 -10.209 -10.209 -10.208
-10.208 -10.208 -10.208 -10.208 -10.208 -10.208 -10.206 -10.206
-10.205 -10.204 -10.204 -10.204 -10.203 -10.203 -10.203 -10.203
-10.202 -10.202 -10.199 -10.199 -10.198 -10.197 -10.197 -10.197
-10.196 -10.196 -10.195 -10.186  -1.113  -1.097  -1.024  -1.007
 -0.989  -0.981  -0.972  -0.968  -0.967  -0.966  -0.959  -0.956
 -0.942  -0.934  -0.932  -0.929  -0.927  -0.926  -0.925  -0.921
 -0.918  -0.916  -0.902  -0.895  -0.894  -0.892  -0.885  -0.883
 -0.881  -0.872  -0.857  -0.848  -0.846  -0.843  -0.843  -0.840
 -0.835  -0.833  -0.828  -0.818  -0.813  -0.806  -0.804  -0.802
 -0.797  -0.796  -0.795  -0.793  -0.791  -0.790  -0.789  -0.780
 -0.779  -0.773  -0.771  -0.770  -0.768  -0.766  -0.765  -0.761
 -0.751  -0.750  -0.744  -0.744  -0.737  -0.729  -0.723  -0.719
 -0.716  -0.716  -0.713  -0.713  -0.712  -0.710  -0.710  -0.709
 -0.708  -0.708  -0.706  -0.705  -0.702  -0.700  -0.678  -0.673
 -0.664  -0.663  -0.656  -0.655  -0.653  -0.644  -0.638  -0.633
 -0.630  -0.629  -0.624  -0.624  -0.622  -0.622  -0.621  -0.620
 -0.619  -0.616  -0.615  -0.613  -0.612  -0.611  -0.611  -0.610
 -0.608  -0.606  -0.600  -0.599  -0.569  -0.565  -0.564  -0.564
 -0.563  -0.562  -0.560  -0.559  -0.558  -0.557  -0.552  -0.551
 -0.541  -0.538  -0.534  -0.532  -0.528  -0.527  -0.527  -0.526
 -0.525  -0.523  -0.521  -0.520  -0.516  -0.515  -0.515  -0.512
 -0.510  -0.505  -0.504  -0.498  -0.498  -0.494  -0.492  -0.490
 -0.486  -0.485  -0.484  -0.483  -0.481  -0.478  -0.477  -0.476
 -0.476  -0.475  -0.474  -0.472  -0.471  -0.470  -0.468  -0.467
 -0.466  -0.465  -0.464  -0.463  -0.462  -0.461  -0.460  -0.460
 -0.459  -0.458  -0.455  -0.454  -0.450  -0.449  -0.446  -0.445
 -0.443  -0.442  -0.442  -0.439  -0.437  -0.436  -0.435  -0.434
 -0.431  -0.430  -0.430  -0.428  -0.428  -0.426  -0.426  -0.425
 -0.424  -0.424  -0.423  -0.422  -0.421  -0.421  -0.420  -0.418
 -0.418  -0.417  -0.416  -0.416  -0.414  -0.414  -0.413  -0.412
 -0.411  -0.411  -0.409  -0.408  -0.408  -0.403  -0.397  -0.397
 -0.395  -0.394  -0.393  -0.391  -0.389  -0.388  -0.387  -0.383
 -0.381  -0.377  -0.374  -0.373  -0.371  -0.369  -0.368  -0.367
 -0.366  -0.364  -0.364  -0.364  -0.361  -0.361  -0.359  -0.358
 -0.358  -0.356  -0.356  -0.355  -0.355  -0.352  -0.352  -0.352
 -0.350  -0.350  -0.348  -0.347  -0.347  -0.345  -0.345  -0.344
 -0.343  -0.341  -0.339  -0.339  -0.339  -0.338  -0.337  -0.336
 -0.334  -0.333  -0.332  -0.332  -0.328  -0.327  -0.326  -0.318
 -0.309  -0.305  -0.305  -0.295  -0.292  -0.284  -0.276  -0.272
 -0.271  -0.269  -0.268  -0.268  -0.266  -0.266  -0.263  -0.263
 -0.262  -0.261  -0.260  -0.259  -0.258  -0.257  -0.255  -0.254
 -0.251  -0.245  -0.245  -0.239  -0.227  -0.217  -0.215  -0.214
 -0.210  -0.209  -0.208  -0.206  -0.202  -0.192

          Ground-State Mulliken Net Atomic Charges

     Atom                 Charge (a.u.)
  ----------------------------------------
      1 O                    -0.463863
      2 C                    -0.087383
      3 H                     0.130406
      4 H                     0.130521
      5 H                     0.117499
      6 O                    -0.447138
      7 C                     0.569573
      8 C                    -0.236725
      9 H                     0.123798
     10 H                     0.130168
     11 C                    -0.206062
     12 H                     0.135088
     13 H                     0.115317
     14 C                    -0.173179
     15 H                     0.114792
     16 H                     0.106753
     17 C                     0.002086
     18 C                     0.110111
     19 C                    -0.114611
     20 H                     0.084927
     21 C                    -0.081746
     22 H                     0.096119
     23 C                    -0.075838
     24 H                     0.091258
     25 C                    -0.089476
     26 H                     0.092111
     27 C                    -0.122689
     28 H                     0.083393
     29 C                     0.012447
     30 C                    -0.010082
     31 C                     0.020369
     32 C                     0.002352
     33 C                    -0.011645
     34 C                    -0.002861
     35 C                     0.015612
     36 C                    -0.007695
     37 C                     0.021807
     38 C                    -0.034765
     39 C                    -0.079156
     40 C                     0.008671
     41 C                     0.015681
     42 C                    -0.015415
     43 C                    -0.005101
     44 C                     0.031049
     45 C                    -0.080345
     46 C                     0.035780
     47 C                    -0.026588
     48 C                    -0.022953
     49 C                     0.003175
     50 C                    -0.003939
     51 C                    -0.008252
     52 C                    -0.001586
     53 C                     0.021657
     54 C                     0.025322
     55 C                    -0.012988
     56 C                     0.011372
     57 C                    -0.032053
     58 C                     0.005107
     59 C                     0.003906
     60 C                    -0.010151
     61 C                     0.001268
     62 C                     0.000281
     63 C                     0.014424
     64 C                    -0.009070
     65 C                    -0.010581
     66 C                    -0.026532
     67 C                     0.017576
     68 C                    -0.004427
     69 C                    -0.001262
     70 C                     0.024718
     71 C                     0.000733
     72 C                     0.012181
     73 C                    -0.009125
     74 C                    -0.004995
     75 C                     0.019738
     76 C                     0.008311
     77 C                    -0.023393
     78 C                     0.006331
     79 C                     0.012489
     80 C                    -0.004128
     81 C                     0.014430
     82 C                     0.021497
     83 C                    -0.032277
     84 C                    -0.000248
     85 C                     0.004852
     86 C                     0.011658
     87 C                    -0.029669
     88 C                     0.001971
     89 O                    -0.454757
     90 C                    -0.077857
     91 H                     0.118382
     92 H                     0.130180
     93 H                     0.118809
     94 O                    -0.472656
     95 C                     0.575536
     96 C                    -0.253645
     97 H                     0.136551
     98 H                     0.127108
     99 C                    -0.182091
    100 H                     0.125314
    101 H                     0.107254
    102 C                    -0.174652
    103 H                     0.107844
    104 H                     0.114287
    105 C                     0.005594
    106 C                     0.087481
    107 C                    -0.111087
    108 H                     0.097658
    109 C                    -0.080427
    110 H                     0.094282
    111 C                    -0.087040
    112 H                     0.087511
    113 C                    -0.086318
    114 H                     0.097300
    115 C                    -0.111408
    116 H                     0.088280
    117 C                    -0.009624
    118 C                    -0.003438
    119 C                    -0.002083
    120 C                    -0.015111
    121 C                     0.008352
    122 C                    -0.002914
    123 C                     0.002747
    124 C                     0.005884
    125 C                     0.008661
    126 C                     0.022642
    127 C                    -0.055221
    128 C                    -0.018019
    129 C                    -0.041801
    130 C                     0.000015
    131 C                    -0.025583
    132 C                    -0.004094
    133 C                    -0.111237
    134 C                     0.053022
    135 C                     0.016971
    136 C                     0.001748
    137 C                    -0.006453
    138 C                    -0.018258
    139 C                     0.016989
    140 C                     0.012794
    141 C                     0.019067
    142 C                    -0.006346
    143 C                     0.009083
    144 C                    -0.009027
    145 C                     0.017791
    146 C                     0.024499
    147 C                    -0.030874
    148 C                     0.036250
    149 C                    -0.028548
    150 C                    -0.015337
    151 C                    -0.014406
    152 C                     0.010975
    153 C                    -0.040173
    154 C                    -0.008574
    155 C                    -0.041896
    156 C                    -0.004819
    157 C                    -0.010711
    158 C                     0.026183
    159 C                     0.021953
    160 C                    -0.004212
    161 C                     0.005271
    162 C                     0.021742
    163 C                    -0.009529
    164 C                    -0.014876
    165 C                     0.017025
    166 C                     0.002551
    167 C                    -0.017219
    168 C                     0.025464
    169 C                     0.017238
    170 C                    -0.022068
    171 C                     0.022307
    172 C                    -0.006310
    173 C                     0.013108
    174 C                     0.008832
    175 C                    -0.030863
    176 C                     0.032333
  ----------------------------------------
  Sum of atomic charges =     0.000000

                    Cartesian Multipole Moments
 -----------------------------------------------------------------
    Charge (ESU x 10^10)
                 0.0000
    Dipole Moment (Debye)
         X      -6.1500      Y      -0.8194      Z      -0.6356
       Tot       6.2368
    Quadrupole Moments (Debye-Ang)
        XX    -771.2578     XY      15.6674     YY    -815.1724
        XZ      20.9254     YZ      23.3158     ZZ    -790.3018

 Total job time:  853.59s(wall), 7299.96s(cpu)
        *  Thank you very much for using Q-Chem.  Have a nice day.  *
