 Q-Chem 4.4, Q-Chem, Inc., Pleasanton, CA (2016)
 Q-Chem 4.4.2 for Intel X86 Linux

User input:
--------------------------------------------------------------
$comment
SP
$end

$rem
MEM_STATIC 5000
MEM_TOTAL 20000
JOBTYPE SP
EXCHANGE B3LYP
BASIS 6-31g(d,p)
$end

$molecule
0 1
O         -23.787000      5.582000     -2.108000
C         -24.490000      6.378000     -3.074000
H         -24.100000      6.112000     -4.064000
H         -24.381000      7.424000     -2.761000
H         -25.566000      6.177000     -3.146000
O         -24.785000      3.626000     -2.827000
C         -23.974000      4.227000     -2.112000
C         -23.153000      3.567000     -1.107000
H         -23.140000      4.196000     -0.208000
H         -22.169000      3.537000     -1.592000
C         -23.669000      2.209000     -0.709000
H         -24.655000      2.307000     -0.238000
H         -23.816000      1.548000     -1.572000
C         -22.685000      1.562000      0.216000
H         -21.685000      1.532000     -0.234000
H         -22.480000      2.156000      1.115000
C         -23.115000      0.131000      0.627000
C         -24.399000     -0.021000      1.408000
C         -25.610000     -0.608000      0.905000
H         -25.762000     -0.888000     -0.133000
C         -26.656000     -0.993000      1.835000
H         -27.496000     -1.539000      1.416000
C         -26.540000     -0.639000      3.202000
H         -27.270000     -0.968000      3.935000
C         -25.524000      0.234000      3.579000
H         -25.478000      0.587000      4.605000
C         -24.442000      0.471000      2.719000
H         -23.570000      0.955000      3.149000
C         -21.044000     -4.391000      2.842000
C         -22.657000     -5.285000      1.339000
C         -19.794000     -7.032000     -1.641000
C         -17.858000     -1.379000      0.385000
C         -20.133000     -4.434000     -3.917000
C         -22.271000     -4.258000      2.205000
C         -17.647000     -2.332000     -2.275000
C         -19.706000     -6.975000      0.737000
C         -23.284000     -2.866000     -1.778000
C         -18.568000     -0.725000     -0.676000
C         -22.809000     -1.022000     -0.363000
C         -22.451000     -2.067000     -2.482000
C         -19.811000     -1.190000     -2.585000
C         -18.054000     -3.354000     -3.129000
C         -23.446000     -3.312000      0.554000
C         -18.398000     -5.730000     -2.797000
C         -21.944000     -0.791000      0.925000
C         -20.485000     -0.516000      0.835000
C         -19.666000     -5.620000     -3.346000
C         -17.038000     -4.734000      0.871000
C         -17.746000     -6.356000     -0.531000
C         -18.363000     -6.452000      0.700000
C         -20.620000     -6.460000      1.679000
C         -19.805000     -1.189000      1.889000
C         -23.459000     -2.374000     -0.497000
C         -21.853000     -6.425000      1.091000
C         -18.520000     -1.224000     -2.037000
C         -23.488000     -4.714000      0.321000
C         -21.523000     -2.672000     -3.405000
C         -17.978000     -2.825000      2.096000
C         -20.409000     -7.247000     -0.435000
C         -22.026000     -0.996000     -1.701000
C         -18.823000     -4.995000      2.532000
C         -20.199000     -2.178000     -3.445000
C         -23.236000     -4.269000     -2.063000
C         -16.884000     -4.331000     -1.477000
C         -16.939000     -2.936000     -1.206000
C         -22.388000     -4.838000     -3.001000
C         -18.463000     -1.629000      1.661000
C         -19.927000     -0.365000     -0.456000
C         -17.073000     -3.352000      1.144000
C         -21.986000     -1.932000      1.913000
C         -22.529000     -6.266000     -1.254000
C         -20.662000     -0.642000     -1.626000
C         -21.469000     -4.009000     -3.689000
C         -18.826000     -3.630000      2.813000
C         -20.572000     -6.392000     -2.650000
C         -20.172000     -5.456000      2.561000
C         -18.429000     -6.665000     -1.758000
C         -23.379000     -5.148000     -0.990000
C         -21.941000     -6.014000     -2.494000
C         -22.742000     -3.072000      1.721000
C         -20.703000     -2.006000      2.537000
C         -16.920000     -5.207000     -0.413000
C         -21.769000     -6.894000     -0.248000
C         -19.367000     -3.308000     -3.705000
C         -17.008000     -2.429000      0.115000
C         -17.577000     -4.562000     -2.691000
C         -20.190000     -3.256000      2.933000
C         -17.899000     -5.487000      1.608000
O         -13.800000     -2.268000      5.677000
C         -14.965000     -1.792000      6.366000
H         -15.552000     -2.682000      6.624000
H         -15.498000     -1.012000      5.809000
H         -14.636000     -1.423000      7.345000
O         -14.955000     -2.324000      3.692000
C         -13.906000     -2.422000      4.329000
C         -12.520000     -2.787000      3.731000
H         -11.863000     -2.247000      4.423000
H         -12.384000     -2.357000      2.731000
C         -12.086000     -4.329000      3.682000
H         -11.010000     -4.305000      3.468000
H         -12.126000     -4.838000      4.653000
C         -12.895000     -5.089000      2.576000
H         -13.898000     -5.309000      2.963000
H         -13.120000     -4.390000      1.761000
C         -12.260000     -6.412000      2.074000
C         -12.207000     -7.368000      3.213000
C         -13.380000     -8.093000      3.623000
H         -14.298000     -7.845000      3.099000
C         -13.460000     -8.911000      4.769000
H         -14.406000     -9.309000      5.124000
C         -12.269000     -9.205000      5.412000
H         -12.280000     -9.860000      6.278000
C         -11.059000     -8.659000      4.938000
H         -10.155000     -8.798000      5.523000
C         -11.015000     -7.745000      3.866000
H         -10.086000     -7.229000      3.643000
C          -8.306000     -8.575000     -1.118000
C         -10.029000    -10.246000     -1.340000
C         -11.211000     -9.193000     -5.774000
C          -9.990000     -3.847000     -2.216000
C         -13.847000     -7.084000     -4.694000
C          -9.340000     -9.299000     -0.545000
C         -11.973000     -4.157000     -4.158000
C          -9.052000     -9.361000     -4.549000
C         -13.567000     -8.432000     -0.885000
C         -11.365000     -3.803000     -1.822000
C         -12.573000     -6.895000      0.658000
C         -13.962000     -7.154000     -1.220000
C         -13.400000     -4.642000     -2.188000
C         -12.671000     -5.006000     -4.989000
C         -11.477000     -9.135000      0.036000
C         -12.003000     -7.060000     -6.185000
C         -11.204000     -6.357000      0.946000
C         -10.815000     -5.123000      0.150000
C         -13.088000     -7.818000     -5.627000
C          -8.363000     -5.935000     -4.628000
C          -9.602000     -7.400000     -5.875000
C          -8.742000     -8.087000     -5.111000
C          -8.653000     -9.761000     -3.267000
C          -9.519000     -5.258000     -0.292000
C         -12.615000     -8.352000      0.174000
C          -9.736000    -10.433000     -2.733000
C         -12.405000     -3.953000     -2.775000
C         -11.402000    -10.083000     -1.004000
C         -14.354000     -6.832000     -2.518000
C          -8.197000     -5.252000     -2.327000
C         -10.327000     -9.915000     -4.928000
C         -13.445000     -6.186000     -0.291000
C          -7.626000     -7.597000     -3.001000
C         -14.047000     -5.574000     -3.026000
C         -13.478000     -9.316000     -1.910000
C         -10.493000     -5.170000     -5.602000
C         -10.624000     -4.162000     -4.573000
C         -13.870000     -9.001000     -3.245000
C          -9.132000     -4.617000     -1.415000
C         -11.802000     -4.425000     -0.656000
C          -8.550000     -4.921000     -3.620000
C         -10.070000     -7.243000      0.647000
C         -12.104000    -10.430000     -3.336000
C         -13.102000     -4.905000     -0.832000
C         -14.287000     -7.702000     -3.531000
C          -7.748000     -6.577000     -2.017000
C         -12.569000     -9.111000     -5.375000
C          -7.996000     -8.826000     -2.450000
C         -10.888000     -7.921000     -6.158000
C         -12.411000    -10.182000     -2.011000
C         -12.930000     -9.684000     -4.101000
C         -10.215000     -8.647000      0.301000
C          -9.037000     -6.553000      0.012000
C          -9.362000     -6.017000     -5.619000
C         -10.752000    -10.505000     -3.676000
C         -13.701000     -5.741000     -4.389000
C          -9.646000     -4.030000     -3.545000
C         -11.801000     -5.649000     -5.882000
C          -8.081000     -7.205000     -0.805000
C          -8.023000     -7.237000     -4.304000
$end

--------------------------------------------------------------

             Standard Nuclear Orientation (Angstroms)
    I     Atom           X                Y                Z
 ----------------------------------------------------------------
    1      O      11.1677378662     3.2123954316    -5.2314982067
    2      C      12.0169698431     4.3273699995    -5.5423321853
    3      H      11.4095401789     5.2363824122    -5.4546872389
    4      H      12.4639917139     4.1204100677    -6.5227938285
    5      H      12.8454247616     4.4890030232    -4.8416908979
    6      O      11.0021162021     3.8144832088    -3.0068722217
    7      C      10.6862223197     3.0884030044    -3.9572224687
    8      C       9.8047179737     1.9373568742    -3.8241476996
    9      H      10.2214775818     1.1157378528    -4.4201884808
   10      H       8.8662864006     2.3108174481    -4.2533963248
   11      C       9.6653078955     1.4499825588    -2.4057489169
   12      H      10.6357444403     1.0979713209    -2.0342896312
   13      H       9.3548852659     2.2465199541    -1.7183880445
   14      C       8.6369322541     0.3624194516    -2.3594884806
   15      H       7.6896471565     0.6996099631    -2.7980697191
   16      H       8.8703692675    -0.4830531028    -3.0180819216
   17      C       8.3900656047    -0.1547292149    -0.9196287255
   18      C       9.5451806228    -0.8092927064    -0.1992281908
   19      C      10.2455448202    -0.2495050500     0.9233700325
   20      H      10.0951551495     0.7620182957     1.2882692898
   21      C      11.1048443351    -1.1015692144     1.7251380808
   22      H      11.5146421646    -0.6590902381     2.6282189712
   23      C      11.3689869846    -2.4265177450     1.2982879291
   24      H      11.9521428519    -3.1107300642     1.9067390255
   25      C      10.9555766761    -2.8102626142     0.0261457232
   26      H      11.2309320746    -3.7909122165    -0.3505594161
   27      C      10.0048321034    -2.0472634873    -0.6669704936
   28      H       9.5393982058    -2.5107050444    -1.5319174343
   29      C       4.7638933395    -3.0527475674     1.9257384445
   30      C       5.5235847181    -1.4958410110     3.5563594868
   31      C       1.7793419195     0.9610536966     3.8274540473
   32      C       3.0738927737    -0.6286542304    -2.1396346727
   33      C       2.9794620147     3.5291622872     1.8251476212
   34      C       5.8006885125    -2.2804621875     2.4332993387
   35      C       2.0553044870     1.8751768297    -1.2901419272
   36      C       2.0723356274    -1.3927321751     3.6281458517
   37      C       6.7677098683     1.9142343049     1.8878517852
   38      C       3.8481098923     0.5655102667    -2.3187882575
   39      C       7.4344547080     0.6665175132    -0.0165746708
   40      C       6.3224368645     2.6101769631     0.8176640593
   41      C       4.4317704771     2.5318356206    -1.2240463133
   42      C       1.8005354957     2.6506717717    -0.1618027247
   43      C       7.0323403764    -0.4227213652     2.2511600426
   44      C       1.0189742660     2.0997939355     2.0652203228
   45      C       6.9785019786    -0.6719149647    -0.6957179625
   46      C       5.8293143785    -0.7053314927    -1.6394643243
   47      C       2.0931170948     2.7868629311     2.6087995521
   48      C       0.8390538558    -1.5598374828     0.3709456908
   49      C       0.4818824925    -0.2764863481     2.1939076987
   50      C       1.1492373915    -1.4394417456     2.5216853405
   51      C       3.2460393591    -2.1724896686     3.5793319029
   52      C       5.0711168242    -1.8915119494    -1.4288523756
   53      C       7.3376528131     0.7197009121     1.4854775651
   54      C       4.2485713715    -1.4586831388     4.1731903053
   55      C       3.3735957238     1.8516253667    -1.8451108847
   56      C       6.3696462356    -0.3405857463     3.5064477450
   57      C       5.0965840555     3.3598952017     0.9374365657
   58      C       2.7378933332    -2.4649303544    -0.8954355839
   59      C       2.3848644423    -0.1903475832     4.2593146349
   60      C       6.5743314349     1.9103007761    -0.3589197450
   61      C       2.5041034329    -3.0438957970     1.3899882933
   62      C       4.1757827368     3.3149787127    -0.1343467336
   63      C       6.0189116157     2.0382705588     3.1026991767
   64      C       0.5586512290     0.7890905445     0.0497907600
   65      C       1.3077137408     0.6787542882    -1.1540457173
   66      C       4.8774516549     2.8150870572     3.2305048326
   67      C       3.6641932470    -1.8541080485    -1.6852017393
   68      C       5.2306611338     0.5290829699    -1.9839657424
   69      C       1.5648671707    -1.6756536521    -0.8313270099
   70      C       6.6154973408    -1.7684090588     0.2767620293
   71      C       4.5734140024     0.9473740235     4.4675509632
   72      C       5.5688883671     1.7322869981    -1.3329999943
   73      C       4.3740545835     3.4894995010     2.0916873563
   74      C       3.1952131458    -3.1728113623     0.1866832024
   75      C       2.6134399849     2.1093883095     3.6911711274
   76      C       3.4606948654    -2.9819036758     2.4455700326
   77      C       0.7515620188     0.9741544129     2.8501619482
   78      C       5.8802258810     0.8968071115     3.8915251814
   79      C       4.0040060651     2.1392320087     4.0179988040
   80      C       6.7030310714    -1.6237502050     1.6476783878
   81      C       5.5562191631    -2.5272682345    -0.3089029720
   82      C       0.3271903389    -0.3543198976     0.7845059547
   83      C       3.7602098902    -0.1948097423     4.6022183942
   84      C       2.8794782184     3.3621645340     0.4607096450
   85      C       1.7985010346    -0.5647552804    -1.6227276830
   86      C       0.8759163831     2.0364129603     0.6421889478
   87      C       4.5743562808    -3.1083367237     0.5161968349
   88      C       1.3352279560    -2.2804732469     1.4130562214
   89      O      -0.1097288453    -6.3805274826    -3.5691298557
   90      C       1.2269702116    -6.8882192450    -3.4507799269
   91      H       1.3512412781    -7.1788485634    -2.4003874758
   92      H       1.9798818271    -6.1970558175    -3.8484672609
   93      H       1.2574381406    -7.8502096281    -3.9766023381
   94      O       0.5807620418    -4.3037455568    -2.8708568665
   95      C      -0.2848661735    -5.0536389722    -3.3226551160
   96      C      -1.7476514724    -4.6468978385    -3.6492218313
   97      H      -1.9621050106    -5.3408026723    -4.4705736204
   98      H      -1.8055474977    -3.6257348231    -4.0457948337
   99      C      -2.8636153257    -4.8115877641    -2.5107918130
  100      H      -3.8172761720    -4.7097553097    -3.0439982847
  101      H      -2.9307534078    -5.8227024696    -2.0904805827
  102      C      -2.6812340475    -3.7164927834    -1.4049794181
  103      H      -1.8591045353    -4.0182989580    -0.7437728707
  104      H      -2.2713441905    -2.8112501529    -1.8697127665
  105      C      -3.9329592486    -3.4305132219    -0.5349462513
  106      C      -4.2688792555    -4.6660639354     0.2231026808
  107      C      -3.5355899494    -5.0278202293     1.4067720507
  108      H      -2.6962216861    -4.3869855295     1.6589541399
  109      C      -3.6895063419    -6.2413869919     2.1084881307
  110      H      -3.0059822557    -6.5368821478     2.8989452367
  111      C      -4.7706172897    -7.0333675833     1.7587284112
  112      H      -4.9473662449    -7.9596003836     2.2972027434
  113      C      -5.6302283387    -6.6316871389     0.7163207822
  114      H      -6.3969101485    -7.3194997769     0.3729918182
  115      C      -5.3888242085    -5.4770677127    -0.0551025948
  116      H      -5.9825629669    -5.2974457621    -0.9463019225
  117      C      -8.8524947240    -0.9232157836    -0.4201452877
  118      C      -8.1817719249    -0.7057378732     1.8848684400
  119      C      -7.2938858004     3.9155491948     1.7377186346
  120      C      -5.3037334102     0.8525956277    -3.6833080126
  121      C      -3.8483993977     3.3526231755     1.1257425353
  122      C      -8.2159531354    -1.4605102705     0.6879117687
  123      C      -4.0087229814     2.9456670480    -2.3635531041
  124      C      -9.0718667903     2.4608810096     0.7822846647
  125      C      -4.1831459446    -0.5887511696     1.9960861577
  126      C      -4.0322660180     0.6114374576    -3.0725622328
  127      C      -4.0943532719    -2.0505982454     0.1023139992
  128      C      -3.2816627284    -0.0772566160     1.0865613737
  129      C      -2.7163734653     1.0943897797    -1.3363923551
  130      C      -3.9253832217     3.7476329452    -1.2462030317
  131      C      -6.1989794980    -1.7939186058     1.5550231963
  132      C      -5.6527218504     4.6366728631     0.2774325173
  133      C      -4.9861175147    -2.4196725723    -1.0444595951
  134      C      -4.8526055388    -1.5390870666    -2.2750841193
  135      C      -4.9902003789     4.1158307732     1.4405927888
  136      C      -8.0549316009     2.8399101453    -2.5404578373
  137      C      -7.8542052365     4.0425560735    -0.6040418959
  138      C      -8.8170849044     3.1227435704    -0.4554730423
  139      C      -9.4236498725     1.1083554797     0.8805107000
  140      C      -6.1055939930    -1.2521342849    -2.7658824839
  141      C      -4.8192935849    -1.7263191899     1.4169141805
  142      C      -8.7254903381     0.6203897617     1.9686704872
  143      C      -3.3376850909     1.6457864946    -2.3943377822
  144      C      -6.8638939518    -0.8768170385     2.3933205686
  145      C      -2.9752923774     1.2818661408     1.0537811973
  146      C      -7.5435453159     0.6222302019    -3.3208588470
  147      C      -8.2824156238     2.9083598312     1.9015306431
  148      C      -3.1372424634    -0.9442545177    -0.0513364361
  149      C      -9.2496712695     0.9736964378    -1.5194850059
  150      C      -2.7177280356     1.8889181710    -0.1709740608
  151      C      -4.8276717699     0.3190257151     2.7710245991
  152      C      -5.9825622596     4.1083949824    -2.1317617018
  153      C      -5.2421230294     3.2145438757    -2.9948062808
  154      C      -4.5299513159     1.7139634631     2.7460203911
  155      C      -6.2989553592    -0.1126180640    -3.4629428573
  156      C      -3.7802808402    -0.5632992447    -2.3697776637
  157      C      -7.2660444221     1.9733181314    -3.3806389491
  158      C      -6.4344087170    -2.3389056098    -0.8072207048
  159      C      -6.7548353085     1.4640335225     3.1416265645
  160      C      -2.9047666281    -0.3058350691    -1.3121562462
  161      C      -3.5923422701     2.1816006880     1.8266234675
  162      C      -8.5178274589     0.1246970768    -2.3953529879
  163      C      -6.0184180142     3.6718091124     2.3068071151
  164      C      -9.4325767894     0.3338694297    -0.2914341232
  165      C      -7.0257157752     4.3998727379     0.4874048567
  166      C      -6.1797900389     0.2132285558     3.0143949914
  167      C      -5.7936093990     2.3877062266     2.9250844519
  168      C      -7.0248892101    -2.1345270908     0.5048460649
  169      C      -7.0951495752    -1.7439161615    -1.8823128286
  170      C      -7.3691359350     3.9149449224    -1.9397994214
  171      C      -8.0132764987     1.6508366182     2.5666836332
  172      C      -3.2936501238     3.1820325055    -0.1316921813
  173      C      -5.8806205205     2.1105662901    -3.6306100591
  174      C      -5.1145991413     4.4696137057    -1.0664607776
  175      C      -8.3523676765    -1.1070238809    -1.7398352209
  176      C      -8.9216384184     2.3424196611    -1.5828031445
 ----------------------------------------------------------------

    9   -5804.2544137874      8.56E-06 Convergence criterion met
 Total energy in the final basis set = -5804.2544137874

                    Orbital Energies (a.u.)
 --------------------------------------------------------------

 Alpha MOs
 -- Occupied --
-19.199 -19.193 -19.140 -19.133 -10.323 -10.313 -10.248 -10.244
-10.244 -10.242 -10.241 -10.240 -10.238 -10.234 -10.230 -10.229
-10.228 -10.226 -10.224 -10.223 -10.222 -10.222 -10.220 -10.220
-10.220 -10.220 -10.219 -10.219 -10.219 -10.219 -10.218 -10.218
-10.218 -10.218 -10.218 -10.217 -10.217 -10.217 -10.217 -10.216
-10.216 -10.216 -10.216 -10.216 -10.216 -10.215 -10.215 -10.215
-10.214 -10.214 -10.214 -10.214 -10.214 -10.214 -10.214 -10.213
-10.213 -10.213 -10.213 -10.213 -10.213 -10.213 -10.212 -10.212
-10.212 -10.212 -10.212 -10.212 -10.212 -10.212 -10.212 -10.211
-10.211 -10.211 -10.211 -10.211 -10.211 -10.211 -10.211 -10.211
-10.210 -10.210 -10.210 -10.210 -10.210 -10.210 -10.210 -10.210
-10.210 -10.210 -10.209 -10.209 -10.209 -10.209 -10.208 -10.208
-10.208 -10.208 -10.208 -10.208 -10.208 -10.208 -10.208 -10.207
-10.207 -10.207 -10.207 -10.207 -10.207 -10.207 -10.206 -10.206
-10.206 -10.206 -10.206 -10.206 -10.205 -10.205 -10.205 -10.205
-10.205 -10.204 -10.204 -10.204 -10.204 -10.204 -10.204 -10.204
-10.203 -10.203 -10.203 -10.203 -10.203 -10.203 -10.202 -10.202
-10.202 -10.201 -10.201 -10.199 -10.199 -10.199 -10.199 -10.198
-10.198 -10.197 -10.196 -10.187  -1.099  -1.090  -1.010  -1.004
 -0.982  -0.978  -0.964  -0.962  -0.962  -0.960  -0.958  -0.954
 -0.933  -0.926  -0.926  -0.924  -0.924  -0.922  -0.921  -0.920
 -0.919  -0.916  -0.898  -0.890  -0.890  -0.888  -0.886  -0.882
 -0.873  -0.870  -0.852  -0.846  -0.839  -0.838  -0.836  -0.833
 -0.833  -0.830  -0.823  -0.818  -0.810  -0.799  -0.797  -0.794
 -0.793  -0.792  -0.792  -0.789  -0.788  -0.787  -0.782  -0.780
 -0.770  -0.768  -0.768  -0.765  -0.763  -0.762  -0.761  -0.759
 -0.749  -0.748  -0.742  -0.742  -0.732  -0.729  -0.717  -0.716
 -0.714  -0.711  -0.710  -0.709  -0.708  -0.707  -0.706  -0.704
 -0.703  -0.703  -0.702  -0.701  -0.700  -0.698  -0.674  -0.670
 -0.657  -0.654  -0.654  -0.649  -0.645  -0.645  -0.631  -0.631
 -0.630  -0.624  -0.621  -0.619  -0.619  -0.618  -0.618  -0.613
 -0.613  -0.611  -0.610  -0.608  -0.607  -0.607  -0.606  -0.605
 -0.604  -0.602  -0.601  -0.598  -0.565  -0.564  -0.562  -0.561
 -0.561  -0.558  -0.558  -0.555  -0.555  -0.553  -0.549  -0.547
 -0.535  -0.533  -0.533  -0.530  -0.528  -0.526  -0.523  -0.521
 -0.520  -0.518  -0.517  -0.514  -0.514  -0.513  -0.512  -0.507
 -0.506  -0.505  -0.500  -0.500  -0.497  -0.491  -0.486  -0.484
 -0.483  -0.482  -0.480  -0.479  -0.478  -0.477  -0.474  -0.473
 -0.473  -0.471  -0.468  -0.466  -0.466  -0.465  -0.465  -0.464
 -0.462  -0.462  -0.460  -0.460  -0.459  -0.457  -0.457  -0.455
 -0.454  -0.452  -0.452  -0.450  -0.448  -0.446  -0.444  -0.442
 -0.441  -0.439  -0.437  -0.436  -0.436  -0.434  -0.432  -0.428
 -0.428  -0.427  -0.427  -0.424  -0.423  -0.422  -0.421  -0.420
 -0.419  -0.418  -0.418  -0.417  -0.417  -0.417  -0.415  -0.415
 -0.415  -0.414  -0.413  -0.413  -0.412  -0.411  -0.410  -0.410
 -0.409  -0.408  -0.407  -0.403  -0.402  -0.398  -0.397  -0.395
 -0.393  -0.390  -0.387  -0.386  -0.386  -0.383  -0.383  -0.380
 -0.380  -0.374  -0.373  -0.369  -0.368  -0.368  -0.367  -0.364
 -0.364  -0.363  -0.361  -0.361  -0.360  -0.358  -0.357  -0.357
 -0.356  -0.354  -0.353  -0.353  -0.352  -0.352  -0.352  -0.350
 -0.349  -0.348  -0.346  -0.346  -0.344  -0.344  -0.343  -0.341
 -0.339  -0.339  -0.338  -0.336  -0.335  -0.334  -0.334  -0.332
 -0.331  -0.328  -0.328  -0.327  -0.325  -0.325  -0.321  -0.319
 -0.310  -0.309  -0.302  -0.297  -0.286  -0.281  -0.271  -0.270
 -0.268  -0.267  -0.266  -0.264  -0.264  -0.262  -0.260  -0.260
 -0.259  -0.257  -0.257  -0.256  -0.254  -0.252  -0.251  -0.249
 -0.247  -0.247  -0.243  -0.243  -0.220  -0.216  -0.212  -0.206
 -0.205  -0.203  -0.200  -0.200  -0.197  -0.196

          Ground-State Mulliken Net Atomic Charges

     Atom                 Charge (a.u.)
  ----------------------------------------
      1 O                    -0.472212
      2 C                    -0.084460
      3 H                     0.127059
      4 H                     0.123307
      5 H                     0.132025
      6 O                    -0.488886
      7 C                     0.602402
      8 C                    -0.257950
      9 H                     0.132186
     10 H                     0.140054
     11 C                    -0.167088
     12 H                     0.117119
     13 H                     0.127380
     14 C                    -0.184021
     15 H                     0.105856
     16 H                     0.100952
     17 C                     0.016634
     18 C                     0.093281
     19 C                    -0.121852
     20 H                     0.100493
     21 C                    -0.096554
     22 H                     0.097383
     23 C                    -0.077768
     24 H                     0.092061
     25 C                    -0.087517
     26 H                     0.089329
     27 C                    -0.108913
     28 H                     0.088247
     29 C                    -0.020253
     30 C                     0.000066
     31 C                    -0.012534
     32 C                     0.003104
     33 C                    -0.023059
     34 C                     0.010497
     35 C                    -0.007491
     36 C                    -0.013296
     37 C                    -0.000231
     38 C                    -0.039027
     39 C                    -0.096428
     40 C                     0.016997
     41 C                     0.011494
     42 C                     0.004489
     43 C                    -0.000487
     44 C                     0.015349
     45 C                    -0.094082
     46 C                     0.024952
     47 C                     0.007486
     48 C                     0.007161
     49 C                    -0.009843
     50 C                    -0.001388
     51 C                    -0.011136
     52 C                    -0.004730
     53 C                     0.035427
     54 C                    -0.004758
     55 C                    -0.026567
     56 C                    -0.028861
     57 C                     0.003433
     58 C                     0.042520
     59 C                     0.002869
     60 C                    -0.007481
     61 C                    -0.001825
     62 C                    -0.012623
     63 C                     0.018505
     64 C                     0.009702
     65 C                     0.002832
     66 C                    -0.008320
     67 C                     0.007470
     68 C                    -0.007400
     69 C                     0.015412
     70 C                     0.032912
     71 C                    -0.008180
     72 C                     0.039729
     73 C                    -0.007227
     74 C                    -0.017517
     75 C                     0.015989
     76 C                     0.010786
     77 C                    -0.023914
     78 C                    -0.014215
     79 C                     0.006535
     80 C                     0.035631
     81 C                    -0.006507
     82 C                    -0.001396
     83 C                     0.002715
     84 C                     0.006750
     85 C                    -0.010347
     86 C                    -0.008962
     87 C                    -0.012757
     88 C                     0.005712
     89 O                    -0.452155
     90 C                    -0.086862
     91 H                     0.126845
     92 H                     0.140422
     93 H                     0.121526
     94 O                    -0.478246
     95 C                     0.586870
     96 C                    -0.259210
     97 H                     0.122883
     98 H                     0.133733
     99 C                    -0.190583
    100 H                     0.111448
    101 H                     0.124098
    102 C                    -0.185967
    103 H                     0.124047
    104 H                     0.117638
    105 C                     0.007560
    106 C                     0.097603
    107 C                    -0.121156
    108 H                     0.086262
    109 C                    -0.075661
    110 H                     0.098880
    111 C                    -0.084813
    112 H                     0.090316
    113 C                    -0.088854
    114 H                     0.089032
    115 C                    -0.122181
    116 H                     0.091312
    117 C                     0.005187
    118 C                    -0.022449
    119 C                    -0.011701
    120 C                     0.015118
    121 C                     0.038591
    122 C                    -0.007077
    123 C                     0.015890
    124 C                    -0.018189
    125 C                     0.012544
    126 C                    -0.033408
    127 C                    -0.094735
    128 C                     0.017085
    129 C                     0.006509
    130 C                    -0.018169
    131 C                     0.017949
    132 C                    -0.022564
    133 C                    -0.094130
    134 C                     0.018542
    135 C                    -0.019770
    136 C                    -0.004300
    137 C                     0.008551
    138 C                     0.018252
    139 C                    -0.005206
    140 C                     0.035548
    141 C                     0.020905
    142 C                     0.015943
    143 C                     0.012445
    144 C                    -0.006020
    145 C                     0.028462
    146 C                    -0.009581
    147 C                    -0.016410
    148 C                     0.049818
    149 C                    -0.010934
    150 C                    -0.020541
    151 C                     0.000309
    152 C                     0.006712
    153 C                    -0.025678
    154 C                    -0.022353
    155 C                    -0.023376
    156 C                     0.008868
    157 C                     0.003347
    158 C                     0.036002
    159 C                    -0.005606
    160 C                    -0.029577
    161 C                    -0.025965
    162 C                     0.001810
    163 C                    -0.007863
    164 C                     0.017564
    165 C                     0.041019
    166 C                    -0.000758
    167 C                     0.015190
    168 C                     0.002453
    169 C                     0.004696
    170 C                    -0.030536
    171 C                     0.008308
    172 C                     0.003284
    173 C                    -0.001761
    174 C                     0.002015
    175 C                    -0.026525
    176 C                     0.009247
  ----------------------------------------
  Sum of atomic charges =     0.000000

                    Cartesian Multipole Moments
 -----------------------------------------------------------------
    Charge (ESU x 10^10)
                 0.0000
    Dipole Moment (Debye)
         X       2.5314      Y      -5.9248      Z      -3.1717
       Tot       7.1813
    Quadrupole Moments (Debye-Ang)
        XX    -783.1317     XY       0.1453     YY    -776.3482
        XZ     -22.8529     YZ       2.4423     ZZ    -792.1267

 Total job time:  844.59s(wall), 7174.46s(cpu)
        *  Thank you very much for using Q-Chem.  Have a nice day.  *
