 Q-Chem 4.4, Q-Chem, Inc., Pleasanton, CA (2016)
 Q-Chem 4.4.2 for Intel X86 Linux

User input:
--------------------------------------------------------------
$comment
SP
$end

$rem
MEM_STATIC 5000
MEM_TOTAL 20000
JOBTYPE SP
EXCHANGE B3LYP
BASIS 6-31g(d,p)
$end

$molecule
0 1
O          -4.457000      6.272000    -12.995000
C          -3.364000      7.198000    -12.896000
H          -2.882000      7.458000    -13.846000
H          -2.544000      6.733000    -12.336000
H          -3.554000      8.193000    -12.475000
O          -5.785000      7.667000    -14.301000
C          -5.490000      6.551000    -13.873000
C          -6.415000      5.309000    -14.086000
H          -5.900000      4.341000    -14.127000
H          -6.754000      5.463000    -15.118000
C          -7.553000      5.260000    -13.105000
H          -8.021000      6.253000    -13.108000
H          -8.383000      4.596000    -13.377000
C          -7.082000      4.988000    -11.621000
H          -6.629000      3.989000    -11.596000
H          -6.356000      5.724000    -11.254000
C          -8.173000      5.082000    -10.513000
C          -8.589000      6.482000    -10.356000
C          -9.658000      6.937000    -11.112000
H         -10.345000      6.206000    -11.527000
C         -10.038000      8.307000    -11.169000
H         -10.949000      8.532000    -11.716000
C          -9.259000      9.209000    -10.389000
H          -9.462000     10.276000    -10.385000
C          -8.178000      8.720000     -9.624000
H          -7.558000      9.503000     -9.198000
C          -7.838000      7.377000     -9.613000
H          -7.047000      7.006000     -8.968000
C          -8.935000      3.759000     -5.390000
C         -11.261000      3.958000     -6.166000
C         -12.028000     -0.585000     -6.052000
C          -6.144000      0.635000     -8.180000
C         -11.415000     -1.029000     -9.554000
C          -9.925000      4.423000     -6.185000
C          -7.800000     -1.330000     -9.182000
C         -10.855000      0.850000     -4.459000
C         -11.378000      2.991000    -10.101000
C          -6.628000      0.717000     -9.515000
C          -9.193000      3.936000    -10.306000
C         -10.548000      2.126000    -10.865000
C          -8.463000      0.328000    -10.883000
C          -9.126000     -1.756000     -9.141000
C         -10.681000      4.475000     -8.340000
C         -10.762000     -1.961000     -7.405000
C          -8.041000      4.150000     -9.325000
C          -7.060000      3.094000     -9.194000
C         -11.764000     -1.385000     -8.211000
C          -7.682000     -0.452000     -5.203000
C          -9.779000     -1.140000     -5.309000
C          -9.783000     -0.045000     -4.494000
C         -10.603000      2.231000     -4.630000
C          -6.554000      2.955000     -7.927000
C         -10.540000      4.046000     -9.666000
C         -11.588000      2.842000     -5.396000
C          -7.466000     -0.303000    -10.079000
C         -11.757000      3.966000     -7.532000
C         -10.873000      0.754000    -10.941000
C          -6.343000      1.433000     -6.038000
C         -12.026000      0.614000     -5.252000
C          -9.226000      2.606000    -10.964000
C          -8.244000      1.836000     -4.486000
C          -9.778000     -0.158000    -10.939000
C         -12.324000      2.428000     -9.238000
C          -8.341000     -1.980000     -7.047000
C          -7.333000     -1.374000     -7.875000
C         -12.708000      1.056000     -9.267000
C          -6.035000      1.776000     -7.376000
C          -7.103000      1.945000     -9.976000
C          -6.675000      0.081000     -6.069000
C          -8.205000      4.577000     -7.940000
C         -12.949000      1.857000     -7.149000
C          -8.205000      1.707000    -10.820000
C         -11.869000      0.178000    -10.110000
C          -7.219000      2.293000     -5.266000
C         -12.514000     -0.552000     -7.387000
C          -9.276000      2.686000     -4.597000
C         -10.909000     -1.362000     -6.141000
C         -12.579000      2.916000     -7.983000
C         -12.976000      0.687000     -7.900000
C          -9.550000      4.770000     -7.498000
C          -7.285000      3.862000     -7.162000
C          -8.503000     -1.424000     -5.758000
C         -12.454000      1.798000     -5.837000
C         -10.118000     -1.238000    -10.026000
C          -6.579000     -0.347000     -7.397000
C          -9.423000     -2.213000     -7.855000
C          -7.640000      3.491000     -5.814000
C          -8.484000      0.453000     -4.487000
O         -13.800000     -2.268000      5.677000
C         -14.965000     -1.792000      6.366000
H         -15.552000     -2.682000      6.624000
H         -15.498000     -1.012000      5.809000
H         -14.636000     -1.423000      7.345000
O         -14.955000     -2.324000      3.692000
C         -13.906000     -2.422000      4.329000
C         -12.520000     -2.787000      3.731000
H         -11.863000     -2.247000      4.423000
H         -12.384000     -2.357000      2.731000
C         -12.086000     -4.329000      3.682000
H         -11.010000     -4.305000      3.468000
H         -12.126000     -4.838000      4.653000
C         -12.895000     -5.089000      2.576000
H         -13.898000     -5.309000      2.963000
H         -13.120000     -4.390000      1.761000
C         -12.260000     -6.412000      2.074000
C         -12.207000     -7.368000      3.213000
C         -13.380000     -8.093000      3.623000
H         -14.298000     -7.845000      3.099000
C         -13.460000     -8.911000      4.769000
H         -14.406000     -9.309000      5.124000
C         -12.269000     -9.205000      5.412000
H         -12.280000     -9.860000      6.278000
C         -11.059000     -8.659000      4.938000
H         -10.155000     -8.798000      5.523000
C         -11.015000     -7.745000      3.866000
H         -10.086000     -7.229000      3.643000
C          -8.306000     -8.575000     -1.118000
C         -10.029000    -10.246000     -1.340000
C         -11.211000     -9.193000     -5.774000
C          -9.990000     -3.847000     -2.216000
C         -13.847000     -7.084000     -4.694000
C          -9.340000     -9.299000     -0.545000
C         -11.973000     -4.157000     -4.158000
C          -9.052000     -9.361000     -4.549000
C         -13.567000     -8.432000     -0.885000
C         -11.365000     -3.803000     -1.822000
C         -12.573000     -6.895000      0.658000
C         -13.962000     -7.154000     -1.220000
C         -13.400000     -4.642000     -2.188000
C         -12.671000     -5.006000     -4.989000
C         -11.477000     -9.135000      0.036000
C         -12.003000     -7.060000     -6.185000
C         -11.204000     -6.357000      0.946000
C         -10.815000     -5.123000      0.150000
C         -13.088000     -7.818000     -5.627000
C          -8.363000     -5.935000     -4.628000
C          -9.602000     -7.400000     -5.875000
C          -8.742000     -8.087000     -5.111000
C          -8.653000     -9.761000     -3.267000
C          -9.519000     -5.258000     -0.292000
C         -12.615000     -8.352000      0.174000
C          -9.736000    -10.433000     -2.733000
C         -12.405000     -3.953000     -2.775000
C         -11.402000    -10.083000     -1.004000
C         -14.354000     -6.832000     -2.518000
C          -8.197000     -5.252000     -2.327000
C         -10.327000     -9.915000     -4.928000
C         -13.445000     -6.186000     -0.291000
C          -7.626000     -7.597000     -3.001000
C         -14.047000     -5.574000     -3.026000
C         -13.478000     -9.316000     -1.910000
C         -10.493000     -5.170000     -5.602000
C         -10.624000     -4.162000     -4.573000
C         -13.870000     -9.001000     -3.245000
C          -9.132000     -4.617000     -1.415000
C         -11.802000     -4.425000     -0.656000
C          -8.550000     -4.921000     -3.620000
C         -10.070000     -7.243000      0.647000
C         -12.104000    -10.430000     -3.336000
C         -13.102000     -4.905000     -0.832000
C         -14.287000     -7.702000     -3.531000
C          -7.748000     -6.577000     -2.017000
C         -12.569000     -9.111000     -5.375000
C          -7.996000     -8.826000     -2.450000
C         -10.888000     -7.921000     -6.158000
C         -12.411000    -10.182000     -2.011000
C         -12.930000     -9.684000     -4.101000
C         -10.215000     -8.647000      0.301000
C          -9.037000     -6.553000      0.012000
C          -9.362000     -6.017000     -5.619000
C         -10.752000    -10.505000     -3.676000
C         -13.701000     -5.741000     -4.389000
C          -9.646000     -4.030000     -3.545000
C         -11.801000     -5.649000     -5.882000
C          -8.081000     -7.205000     -0.805000
C          -8.023000     -7.237000     -4.304000
$end

--------------------------------------------------------------

             Standard Nuclear Orientation (Angstroms)
    I     Atom           X                Y                Z
 ----------------------------------------------------------------
    1      O     -12.6346187947    -1.3473186975    -2.7648535900
    2      C     -13.4955630375    -0.9351097817    -3.8375999815
    3      H     -14.4029313511    -1.5367654540    -3.9684326814
    4      H     -12.9783981978    -1.0789003373    -4.7936804199
    5      H     -13.9142225134     0.0786127608    -3.8162259309
    6      O     -14.1993909236    -0.9531534775    -1.0881404470
    7      C     -13.1713262151    -1.4928737094    -1.4973470285
    8      C     -12.1888485490    -2.2414683786    -0.5392751852
    9      H     -11.6191533054    -3.0602237938    -0.9964588458
   10      H     -12.8874676212    -2.7580141380     0.1306299353
   11      C     -11.2700391235    -1.3048696716     0.1944673458
   12      H     -11.8967909521    -0.5116021796     0.6222416222
   13      H     -10.7711499381    -1.7265520378     1.0759851067
   14      C     -10.2246235529    -0.5920985556    -0.7527098397
   15      H      -9.5760169792    -1.3704212487    -1.1738491253
   16      H     -10.6922931805    -0.0292606885    -1.5699978274
   17      C      -9.3399794768     0.5165703967    -0.1084746243
   18      C     -10.1747860658     1.6823948162     0.2103613554
   19      C     -10.7545580986     1.7494341617     1.4676171433
   20      H     -10.3300299774     1.1468699638     2.2646411465
   21      C     -11.7124896929     2.7385007103     1.8263139833
   22      H     -12.0247057171     2.7520465551     2.8665508142
   23      C     -12.0493085552     3.6839762975     0.8156340300
   24      H     -12.7851374014     4.4633876849     0.9910985511
   25      C     -11.4414768342     3.5969352689    -0.4555352972
   26      H     -11.8821832892     4.2597501035    -1.1940603920
   27      C     -10.5239146746     2.6049739900    -0.7612516760
   28      H     -10.0148540007     2.5909015132    -1.7204212103
   29      C      -4.9154476164     3.3372467277    -1.1299465292
   30      C      -5.0391529069     3.5435442407     1.3183572381
   31      C      -1.4577622502     0.7390227056     2.0589204857
   32      C      -5.0319948204    -1.4247100151    -2.7557822307
   33      C      -3.5124496333    -2.1278921125     2.6881805137
   34      C      -5.6913760621     3.4987518915     0.0637335491
   35      C      -3.8606705277    -3.0159970238    -0.8313680192
   36      C      -1.7531957023     2.5023602765     0.3927384168
   37      C      -6.8240211125     0.2139893565     2.7884976267
   38      C      -5.8394748195    -2.1606236976    -1.8449517838
   39      C      -8.1376821774     0.1463960001     0.7937543488
   40      C      -6.8636137266    -1.1135551195     2.2816652195
   41      C      -6.0202914860    -2.8876487121     0.3524808003
   42      C      -3.2252321428    -2.9322269752     0.4058197749
   43      C      -6.9414540401     2.2497191611     1.5113133526
   44      C      -1.5968148521    -1.4532482761     1.3508574118
   45      C      -7.9236906189     0.6662747140    -0.6272293723
   46      C      -7.2832641894    -0.2151053671    -1.5799523861
   47      C      -2.3124714695    -1.3558864587     2.5607219837
   48      C      -1.9824598864     0.2831502622    -2.3163599289
   49      C      -1.0765041742     0.2885334297    -0.3011169487
   50      C      -1.3577228264     1.5924947876    -0.5907146815
   51      C      -2.9334537542     3.2563040568     0.1966116542
   52      C      -6.4824012471     0.4296934894    -2.4874208331
   53      C      -7.5074597666     1.0108701303     1.8385572926
   54      C      -3.6529876899     3.4004790859     1.3763516579
   55      C      -5.2643999354    -3.0224000348    -0.8512866377
   56      C      -5.8094592838     2.7392426617     2.2520397623
   57      C      -5.8319188216    -2.0121447472     2.6308461236
   58      C      -4.2012314839     0.6402678831    -3.3127988897
   59      C      -1.8263238962     2.1016762577     1.7674713307
   60      C      -7.5749859607    -1.1995035835     1.0673969599
   61      C      -3.0780990078     2.4741806595    -2.0636986656
   62      C      -5.4053903054    -2.9140971339     1.6133352800
   63      C      -5.6461658573     0.6708834924     3.3889630682
   64      C      -1.8943787496    -1.8493399264    -1.0458764348
   65      C      -3.0952452497    -2.2691240956    -1.7171326453
   66      C      -4.5711744122    -0.1800768683     3.7774741458
   67      C      -5.3792967445    -0.1264663361    -3.1483669011
   68      C      -6.9307356149    -1.5208123730    -1.2568009993
   69      C      -3.1538300979    -0.2120121548    -2.9727134984
   70      C      -7.3132736203     1.9502857124    -0.9530465663
   71      C      -3.7486086589     1.8813604290     3.2680942769
   72      C      -7.0504884504    -1.9758300398     0.0706033028
   73      C      -4.6538471515    -1.5730643915     3.2894116719
   74      C      -4.1425629074     1.9818722670    -2.7654272836
   75      C      -2.2288033027    -0.0296151816     2.9722668020
   76      C      -3.5430024417     3.2427976100    -1.0672360318
   77      C      -1.1940648758    -0.1401063900     1.0482737977
   78      C      -5.1435198394     1.9306015984     3.1923637953
   79      C      -3.3643667856     0.5785491225     3.5658708415
   80      C      -6.8713302744     2.7344972633     0.1566093815
   81      C      -6.4951370209     1.7606906750    -2.0744810166
   82      C      -1.4406741055    -0.5442944199    -1.3423714969
   83      C      -2.9752175116     2.6142153664     2.3545080609
   84      C      -3.9511383349    -2.9310982899     1.6340998433
   85      C      -3.7117978541    -1.4398618933    -2.6025230033
   86      C      -1.9992061367    -2.2814260853     0.2503449083
   87      C      -5.2795966490     2.5275146561    -2.1978203299
   88      C      -2.0092597847     1.5975729221    -1.8199127145
   89      O       7.6895686247     8.1172056724    -0.2714588771
   90      C       8.0416854395     9.2163616896     0.5808273417
   91      H       8.9918783620     8.9423812833     1.0554863212
   92      H       7.2309429701     9.5013361026     1.2621673686
   93      H       8.3244190365    10.0539165505    -0.0683310120
   94      O       6.7168908090     7.0154113456     1.4941382254
   95      C       6.9626553460     7.1140061809     0.2917851779
   96      C       6.5379363011     6.0952517939    -0.8007248824
   97      H       6.4378908413     6.7663672633    -1.6619495527
   98      H       5.5509644744     5.6644978570    -0.5915989413
   99      C       7.5422245842     4.9026208980    -1.1716124539
  100      H       7.1470762126     4.4922118828    -2.1094664962
  101      H       8.5471946245     5.2349006735    -1.4599653086
  102      C       7.5725620592     3.8372736141    -0.0229472275
  103      H       8.2062166275     4.2146100825     0.7896271246
  104      H       6.5871925966     3.8099644946     0.4584592889
  105      C       8.0808258659     2.4297096039    -0.4303652681
  106      C       9.5009976928     2.5499926569    -0.8578111350
  107      C      10.5583099368     2.6446983599     0.1131552128
  108      H      10.2455005725     2.6914720250     1.1517920722
  109      C      11.9113165010     2.8979829274    -0.1935370843
  110      H      12.6424792571     3.1177531610     0.5787627723
  111      C      12.2731679889     2.8308200371    -1.5287968519
  112      H      13.3116231480     2.9843595669    -1.8065350293
  113      C      11.2980633030     2.5610789528    -2.5102766525
  114      H      11.5730214873     2.6338103231    -3.5580696401
  115      C       9.9299993483     2.4331300458    -2.1963561323
  116      H       9.2005372386     2.3885376165    -2.9994268301
  117      C       6.7409768137    -2.2587428897    -3.0235807881
  118      C       8.2110929189    -3.0971827593    -1.3071801292
  119      C       4.8606848071    -5.1223701917     1.3080962133
  120      C       2.9408186609     0.6321388820    -1.1269931693
  121      C       4.5924913883    -2.2643343075     3.3871537340
  122      C       7.8709391013    -2.0874796009    -2.2390330747
  123      C       2.3672570562    -0.3972440005     1.4050319031
  124      C       5.2866221066    -4.9557072901    -1.1374979669
  125      C       7.9606521748    -0.6343304463     1.8371326603
  126      C       3.4681546380     1.2900755242     0.0292218376
  127      C       7.5982520053     1.2103724305     0.3549075042
  128      C       6.8955239180     0.1051918230     2.3063262342
  129      C       4.3045809179     0.9982428244     2.0772273927
  130      C       2.6143709168    -1.3628572556     2.3563950206
  131      C       8.6001964057    -1.0215961452    -0.4325718260
  132      C       3.2075334631    -3.7518200061     2.1651591179
  133      C       7.0817414277     1.4174828909    -1.0368076536
  134      C       5.5783900305     1.6066260288    -1.1456766117
  135      C       4.3642533101    -3.6006766216     3.0031972273
  136      C       2.5655571969    -2.8646914862    -1.8022510529
  137      C       3.1194676064    -4.3934786652    -0.1921740300
  138      C       3.9214722700    -4.5581036182    -1.2528116422
  139      C       6.3127152738    -4.4498680173    -1.9461910127
  140      C       5.1047914519     0.8744991985    -2.2100542188
  141      C       8.3677329807    -0.0997884752     0.5790646579
  142      C       7.3904407662    -4.2573892237    -1.1029302718
  143      C       3.2000703993     0.8037496237     1.3345673702
  144      C       8.6134098900    -2.3988847148    -0.1345271985
  145      C       5.9149085520    -0.4663799593     3.1149368956
  146      C       3.5011201112    -0.8633401484    -2.7551208530
  147      C       5.7355764612    -5.2606326385     0.1972838577
  148      C       6.6642322631     1.2659207561     1.4898909863
  149      C       4.6641685102    -3.0658340593    -3.0302226410
  150      C       4.5967813239    -0.0417461445     2.9841556519
  151      C       7.9333387222    -1.9615296562     2.1160560058
  152      C       1.8554497246    -2.4613848032     0.5223762500
  153      C       1.8036277827    -1.0363939315     0.2799272822
  154      C       6.9341578013    -2.5632748197     2.9374293955
  155      C       3.8279436673     0.4371467072    -2.1973446418
  156      C       4.7697690959     1.7828602167     0.0485104319
  157      C       2.5083841903    -1.4355059605    -1.9849775710
  158      C       7.2875966873     0.3162047665    -1.9882082552
  159      C       7.5309351715    -4.0542767112     1.3281288861
  160      C       5.3000232658     1.6741271169     1.3362928780
  161      C       5.8899157683    -1.7701175698     3.4102360723
  162      C       4.5726881970    -1.6659622012    -3.2658709658
  163      C       5.3595140586    -4.4396349484     2.4461344224
  164      C       6.0026215670    -3.4248725934    -2.8553605644
  165      C       3.6081508113    -4.6071908007     1.1196345873
  166      C       8.2663385894    -2.8957720202     1.1595267099
  167      C       6.6773560015    -3.8591467424     2.3564011729
  168      C       8.1295816287    -0.8364039663    -1.7152403680
  169      C       6.1431062147     0.0795313317    -2.7501408268
  170      C       2.2140164213    -3.3416498142    -0.5232921652
  171      C       7.0661082282    -4.6901621074     0.1754300201
  172      C       3.7688192872    -1.1815436459     3.1280810546
  173      C       2.1468410629    -0.4946312007    -0.9926251873
  174      C       2.3201200456    -2.6388230492     1.8532790118
  175      C       5.8849479118    -1.1726684241    -3.3599597032
  176      C       3.6535543226    -3.6137610391    -2.2156964052
 ----------------------------------------------------------------

    9   -5804.2377792081      8.90E-06 Convergence criterion met
 Total energy in the final basis set = -5804.2377792081

                    Orbital Energies (a.u.)
 --------------------------------------------------------------

 Alpha MOs
 -- Occupied --
-19.202 -19.197 -19.146 -19.136 -10.327 -10.320 -10.247 -10.246
-10.243 -10.242 -10.241 -10.239 -10.234 -10.230 -10.229 -10.228
-10.227 -10.225 -10.225 -10.225 -10.223 -10.223 -10.222 -10.220
-10.220 -10.220 -10.220 -10.220 -10.220 -10.219 -10.219 -10.219
-10.219 -10.219 -10.218 -10.218 -10.218 -10.217 -10.217 -10.217
-10.217 -10.217 -10.217 -10.217 -10.217 -10.217 -10.217 -10.217
-10.216 -10.216 -10.216 -10.216 -10.216 -10.216 -10.216 -10.215
-10.215 -10.215 -10.215 -10.215 -10.215 -10.215 -10.214 -10.214
-10.214 -10.214 -10.214 -10.214 -10.214 -10.214 -10.214 -10.214
-10.213 -10.213 -10.213 -10.213 -10.213 -10.213 -10.213 -10.213
-10.213 -10.213 -10.213 -10.212 -10.212 -10.212 -10.212 -10.212
-10.211 -10.211 -10.211 -10.211 -10.211 -10.211 -10.211 -10.211
-10.211 -10.211 -10.210 -10.210 -10.210 -10.210 -10.210 -10.210
-10.210 -10.210 -10.209 -10.209 -10.209 -10.209 -10.209 -10.208
-10.208 -10.208 -10.208 -10.207 -10.207 -10.207 -10.207 -10.207
-10.207 -10.206 -10.206 -10.205 -10.205 -10.205 -10.204 -10.203
-10.203 -10.202 -10.202 -10.202 -10.202 -10.202 -10.201 -10.201
-10.201 -10.201 -10.201 -10.200 -10.200 -10.199 -10.199 -10.199
-10.198 -10.196 -10.196 -10.194  -1.096  -1.091  -1.013  -1.007
 -0.984  -0.981  -0.966  -0.963  -0.962  -0.961  -0.961  -0.959
 -0.934  -0.932  -0.928  -0.925  -0.923  -0.923  -0.922  -0.920
 -0.920  -0.919  -0.897  -0.893  -0.890  -0.889  -0.889  -0.886
 -0.873  -0.872  -0.852  -0.851  -0.841  -0.838  -0.837  -0.836
 -0.833  -0.832  -0.817  -0.817  -0.803  -0.799  -0.797  -0.797
 -0.794  -0.793  -0.792  -0.792  -0.792  -0.788  -0.782  -0.781
 -0.769  -0.769  -0.768  -0.767  -0.765  -0.765  -0.763  -0.761
 -0.749  -0.749  -0.741  -0.737  -0.732  -0.729  -0.716  -0.715
 -0.713  -0.713  -0.711  -0.711  -0.711  -0.709  -0.708  -0.707
 -0.706  -0.704  -0.704  -0.702  -0.701  -0.701  -0.673  -0.669
 -0.658  -0.657  -0.656  -0.654  -0.645  -0.643  -0.632  -0.631
 -0.629  -0.625  -0.624  -0.623  -0.621  -0.619  -0.618  -0.617
 -0.613  -0.613  -0.613  -0.611  -0.611  -0.608  -0.607  -0.606
 -0.604  -0.604  -0.601  -0.600  -0.573  -0.564  -0.564  -0.563
 -0.560  -0.560  -0.558  -0.558  -0.554  -0.554  -0.552  -0.552
 -0.535  -0.534  -0.533  -0.529  -0.528  -0.526  -0.526  -0.525
 -0.523  -0.520  -0.518  -0.517  -0.514  -0.513  -0.513  -0.512
 -0.504  -0.504  -0.502  -0.498  -0.491  -0.489  -0.486  -0.483
 -0.482  -0.482  -0.479  -0.479  -0.478  -0.476  -0.475  -0.474
 -0.471  -0.470  -0.470  -0.469  -0.469  -0.466  -0.465  -0.465
 -0.464  -0.463  -0.462  -0.461  -0.460  -0.459  -0.457  -0.456
 -0.455  -0.453  -0.451  -0.449  -0.447  -0.445  -0.443  -0.440
 -0.440  -0.440  -0.439  -0.437  -0.436  -0.435  -0.432  -0.431
 -0.428  -0.427  -0.427  -0.427  -0.426  -0.424  -0.422  -0.422
 -0.421  -0.420  -0.419  -0.418  -0.418  -0.418  -0.417  -0.417
 -0.416  -0.416  -0.414  -0.414  -0.414  -0.412  -0.411  -0.411
 -0.410  -0.409  -0.409  -0.408  -0.401  -0.399  -0.396  -0.394
 -0.392  -0.392  -0.390  -0.389  -0.387  -0.386  -0.384  -0.383
 -0.378  -0.375  -0.374  -0.371  -0.368  -0.367  -0.367  -0.366
 -0.364  -0.363  -0.362  -0.362  -0.360  -0.359  -0.358  -0.357
 -0.356  -0.356  -0.354  -0.353  -0.353  -0.352  -0.351  -0.351
 -0.351  -0.349  -0.348  -0.347  -0.345  -0.345  -0.344  -0.344
 -0.343  -0.341  -0.340  -0.338  -0.338  -0.335  -0.334  -0.331
 -0.331  -0.330  -0.330  -0.328  -0.327  -0.326  -0.324  -0.323
 -0.310  -0.305  -0.302  -0.300  -0.285  -0.281  -0.275  -0.270
 -0.269  -0.267  -0.266  -0.266  -0.264  -0.263  -0.261  -0.261
 -0.260  -0.259  -0.258  -0.257  -0.257  -0.256  -0.254  -0.252
 -0.247  -0.246  -0.243  -0.242  -0.220  -0.215  -0.211  -0.210
 -0.210  -0.206  -0.205  -0.201  -0.198  -0.197

          Ground-State Mulliken Net Atomic Charges

     Atom                 Charge (a.u.)
  ----------------------------------------
      1 O                    -0.451587
      2 C                    -0.095618
      3 H                     0.122795
      4 H                     0.122929
      5 H                     0.130055
      6 O                    -0.455685
      7 C                     0.581933
      8 C                    -0.229474
      9 H                     0.114889
     10 H                     0.130529
     11 C                    -0.199962
     12 H                     0.128788
     13 H                     0.108177
     14 C                    -0.163737
     15 H                     0.101914
     16 H                     0.121201
     17 C                    -0.015857
     18 C                     0.122836
     19 C                    -0.120365
     20 H                     0.089757
     21 C                    -0.085477
     22 H                     0.096769
     23 C                    -0.090162
     24 H                     0.091017
     25 C                    -0.091845
     26 H                     0.090691
     27 C                    -0.102046
     28 H                     0.092135
     29 C                    -0.000674
     30 C                    -0.025016
     31 C                    -0.017005
     32 C                    -0.007236
     33 C                     0.019252
     34 C                    -0.006498
     35 C                     0.000536
     36 C                    -0.022066
     37 C                     0.002726
     38 C                    -0.026570
     39 C                    -0.088882
     40 C                     0.001794
     41 C                     0.015723
     42 C                     0.020181
     43 C                     0.015737
     44 C                    -0.018299
     45 C                    -0.095017
     46 C                     0.067857
     47 C                     0.003785
     48 C                    -0.027939
     49 C                     0.025340
     50 C                     0.000065
     51 C                     0.005665
     52 C                     0.026929
     53 C                     0.014922
     54 C                     0.020136
     55 C                    -0.027793
     56 C                    -0.028518
     57 C                    -0.003199
     58 C                    -0.023526
     59 C                    -0.023831
     60 C                     0.039452
     61 C                     0.003959
     62 C                    -0.035737
     63 C                     0.026174
     64 C                    -0.012221
     65 C                    -0.022430
     66 C                    -0.044004
     67 C                    -0.019018
     68 C                    -0.010373
     69 C                    -0.013360
     70 C                     0.013785
     71 C                     0.003125
     72 C                     0.006458
     73 C                    -0.020507
     74 C                     0.011926
     75 C                    -0.000288
     76 C                     0.016152
     77 C                     0.026023
     78 C                     0.020351
     79 C                    -0.003368
     80 C                     0.009950
     81 C                    -0.024821
     82 C                     0.017432
     83 C                     0.013219
     84 C                     0.000723
     85 C                     0.072487
     86 C                     0.001606
     87 C                    -0.020050
     88 C                     0.002994
     89 O                    -0.453084
     90 C                    -0.086095
     91 H                     0.125615
     92 H                     0.140983
     93 H                     0.120813
     94 O                    -0.475967
     95 C                     0.585227
     96 C                    -0.259542
     97 H                     0.122604
     98 H                     0.133483
     99 C                    -0.190580
    100 H                     0.111100
    101 H                     0.123647
    102 C                    -0.183993
    103 H                     0.123542
    104 H                     0.117501
    105 C                     0.007070
    106 C                     0.097886
    107 C                    -0.120220
    108 H                     0.084666
    109 C                    -0.075853
    110 H                     0.097915
    111 C                    -0.084546
    112 H                     0.090085
    113 C                    -0.088808
    114 H                     0.089076
    115 C                    -0.121897
    116 H                     0.091567
    117 C                     0.005785
    118 C                    -0.022161
    119 C                    -0.011787
    120 C                     0.013891
    121 C                     0.037823
    122 C                    -0.007821
    123 C                     0.019089
    124 C                    -0.018026
    125 C                     0.011682
    126 C                    -0.034695
    127 C                    -0.092773
    128 C                     0.014994
    129 C                     0.001424
    130 C                    -0.021195
    131 C                     0.018600
    132 C                    -0.022412
    133 C                    -0.092883
    134 C                     0.017998
    135 C                    -0.020234
    136 C                    -0.004518
    137 C                     0.007507
    138 C                     0.018583
    139 C                    -0.006384
    140 C                     0.035040
    141 C                     0.020225
    142 C                     0.016205
    143 C                     0.016280
    144 C                    -0.007387
    145 C                     0.024399
    146 C                    -0.009547
    147 C                    -0.016668
    148 C                     0.047072
    149 C                    -0.010123
    150 C                    -0.025371
    151 C                    -0.000152
    152 C                     0.010521
    153 C                    -0.023219
    154 C                    -0.023154
    155 C                    -0.022839
    156 C                     0.010382
    157 C                     0.002491
    158 C                     0.035423
    159 C                    -0.005758
    160 C                    -0.028577
    161 C                    -0.022674
    162 C                     0.000853
    163 C                    -0.009156
    164 C                     0.017808
    165 C                     0.041663
    166 C                     0.000204
    167 C                     0.015805
    168 C                     0.001994
    169 C                     0.005548
    170 C                    -0.033178
    171 C                     0.008139
    172 C                     0.007465
    173 C                    -0.000053
    174 C                     0.001358
    175 C                    -0.026686
    176 C                     0.008167
  ----------------------------------------
  Sum of atomic charges =     0.000000

                    Cartesian Multipole Moments
 -----------------------------------------------------------------
    Charge (ESU x 10^10)
                 0.0000
    Dipole Moment (Debye)
         X       1.1441      Y       3.0745      Z      -3.2205
       Tot       4.5970
    Quadrupole Moments (Debye-Ang)
        XX    -749.4074     XY      31.9810     YY    -785.3615
        XZ       7.6380     YZ      -8.3434     ZZ    -800.7174

 Total job time:  844.44s(wall), 7156.21s(cpu)
        *  Thank you very much for using Q-Chem.  Have a nice day.  *
