 Q-Chem 4.4, Q-Chem, Inc., Pleasanton, CA (2016)
 Q-Chem 4.4.2 for Intel X86 Linux

User input:
--------------------------------------------------------------
$comment
SP
$end

$rem
MEM_STATIC 5000
MEM_TOTAL 20000
JOBTYPE SP
EXCHANGE B3LYP
BASIS 6-31g(d,p)
$end

$molecule
0 1
O           7.623000    -10.400000     -3.742000
C           8.688000    -10.153000     -4.594000
H           8.722000    -10.913000     -5.384000
H           9.638000    -10.299000     -4.065000
H           8.663000     -9.158000     -5.055000
O           8.027000     -8.574000     -2.372000
C           7.403000     -9.624000     -2.639000
C           6.376000    -10.187000     -1.608000
H           6.577000    -11.243000     -1.391000
H           5.439000    -10.072000     -2.167000
C           6.131000     -9.380000     -0.299000
H           7.062000     -9.317000      0.278000
H           5.994000     -8.301000     -0.439000
C           4.881000     -9.990000      0.279000
H           4.053000     -9.607000     -0.330000
H           4.848000    -11.058000      0.029000
C           4.639000     -9.811000      1.725000
C           5.256000     -8.564000      2.293000
C           4.462000     -7.430000      2.303000
H           3.555000     -7.366000      1.710000
C           5.031000     -6.342000      3.039000
H           4.456000     -5.424000      3.100000
C           6.346000     -6.360000      3.670000
H           6.827000     -5.491000      4.110000
C           7.089000     -7.541000      3.643000
H           8.055000     -7.527000      4.139000
C           6.567000     -8.644000      2.894000
H           7.023000     -9.628000      2.943000
C           5.142000    -12.586000      6.484000
C           3.481000    -10.888000      6.996000
C          -0.132000    -13.715000      7.292000
C           3.801000    -15.227000      2.345000
C          -1.095000    -12.935000      3.921000
C           4.613000    -11.318000      6.310000
C           1.073000    -15.333000      2.339000
C           2.217000    -14.013000      8.128000
C           1.412000     -9.887000      3.662000
C           3.111000    -14.320000      1.437000
C           3.410000    -10.289000      2.456000
C           1.068000    -10.595000      2.511000
C           1.205000    -13.104000      1.340000
C          -0.069000    -14.895000      3.028000
C           3.433000     -9.919000      4.959000
C          -0.632000    -14.866000      5.412000
C           4.654000    -11.074000      2.560000
C           4.666000    -12.465000      2.030000
C          -1.207000    -13.506000      5.193000
C           3.046000    -16.372000      5.623000
C           1.166000    -15.718000      6.731000
C           2.273000    -15.227000      7.423000
C           3.274000    -13.114000      7.979000
C           5.256000    -13.320000      2.943000
C           2.792000     -9.795000      3.728000
C           2.860000    -11.757000      7.936000
C           1.702000    -14.413000      1.393000
C           2.754000    -10.057000      6.140000
C          -0.016000    -11.443000      2.592000
C           4.908000    -15.345000      4.298000
C           0.985000    -13.206000      8.036000
C           2.232000    -10.910000      1.827000
C           4.573000    -14.773000      6.713000
C           0.014000    -12.693000      1.988000
C           0.716000    -10.030000      4.928000
C           1.063000    -16.298000      4.308000
C           1.795000    -16.171000      3.189000
C          -0.347000    -10.910000      4.974000
C           4.904000    -14.685000      3.065000
C           3.470000    -12.965000      1.397000
C           3.845000    -16.256000      4.425000
C           5.175000    -11.251000      3.955000
C           0.708000    -10.987000      6.952000
C           2.304000    -12.211000      1.260000
C          -0.678000    -11.613000      3.846000
C           5.289000    -14.634000      5.471000
C          -0.844000    -12.843000      6.371000
C           4.488000    -13.496000      7.271000
C          -0.013000    -14.964000      6.656000
C           1.359000    -10.042000      6.143000
C          -0.335000    -11.532000      6.220000
C           4.576000    -10.681000      5.060000
C           5.611000    -12.611000      4.118000
C           1.705000    -16.295000      5.546000
C           1.480000    -11.834000      7.853000
C          -0.548000    -13.613000      2.864000
C           3.148000    -16.176000      3.198000
C          -0.130000    -15.550000      4.280000
C           5.601000    -13.292000      5.382000
C           3.462000    -15.675000      6.776000
O          -5.089000     -8.125000      6.718000
C          -6.544000     -8.204000      6.885000
H          -6.961000     -7.193000      6.813000
H          -6.765000     -8.538000      7.906000
H          -6.967000     -8.874000      6.127000
O          -4.850000     -5.942000      7.045000
C          -4.396000     -7.025000      6.783000
C          -2.916000     -7.294000      6.601000
H          -2.755000     -8.009000      5.785000
H          -2.577000     -7.750000      7.540000
C          -2.169000     -5.982000      6.434000
H          -2.495000     -5.508000      5.500000
H          -2.357000     -5.368000      7.324000
C          -0.665000     -6.190000      6.335000
H          -0.292000     -7.042000      6.917000
H          -0.396000     -6.440000      5.301000
C           0.062000     -4.919000      6.682000
C          -0.514000     -3.718000      5.874000
C          -1.235000     -2.657000      6.515000
H          -1.489000     -2.656000      7.571000
C          -1.667000     -1.525000      5.805000
H          -2.162000     -0.685000      6.283000
C          -1.365000     -1.432000      4.430000
H          -1.736000     -0.628000      3.801000
C          -0.690000     -2.512000      3.774000
H          -0.431000     -2.417000      2.723000
C          -0.272000     -3.610000      4.482000
H           0.228000     -4.446000      4.003000
C           5.065000     -2.748000      7.015000
C           3.839000     -1.451000      8.619000
C           5.664000     -3.307000     12.326000
C           4.646000     -7.762000      7.826000
C           3.074000     -5.489000     12.874000
C           3.872000     -2.147000      7.404000
C           4.364000     -8.062000     10.618000
C           6.770000     -2.510000     10.265000
C           0.752000     -3.622000     10.127000
C           3.393000     -7.887000      8.381000
C           0.691000     -4.658000      8.013000
C           0.715000     -4.995000     10.328000
C           2.114000     -7.394000     10.113000
C           4.294000     -7.390000     11.822000
C           1.788000     -2.417000      8.249000
C           5.517000     -5.576000     12.736000
C           1.531000     -4.954000      6.834000
C           2.365000     -6.206000      6.918000
C           4.300000     -4.888000     13.096000
C           7.289000     -5.860000      9.141000
C           7.176000     -4.792000     11.143000
C           7.358000     -3.786000     10.163000
C           6.081000     -2.093000      9.073000
C           3.713000     -5.942000      6.415000
C           0.846000     -3.382000      8.785000
C           4.922000     -1.452000      9.482000
C           3.234000     -8.051000      9.756000
C           2.548000     -1.645000      9.157000
C           1.259000     -5.559000     11.528000
C           6.034000     -6.154000      7.018000
C           5.855000     -2.319000     11.362000
C           0.691000     -5.700000      9.077000
C           6.831000     -3.953000      7.794000
C           2.003000     -6.776000     11.413000
C           1.503000     -2.825000     11.048000
C           6.369000     -7.097000     11.035000
C           5.645000     -7.891000     10.072000
C           2.035000     -3.367000     12.223000
C           4.810000     -6.792000      6.798000
C           2.274000     -7.161000      7.929000
C           6.586000     -6.663000      8.222000
C           2.557000     -3.932000      6.482000
C           3.510000     -1.814000     11.357000
C           1.531000     -6.822000      9.014000
C           1.952000     -4.756000     12.443000
C           6.079000     -4.745000      6.866000
C           4.393000     -3.542000     12.811000
C           6.158000     -2.720000      7.865000
C           6.336000     -4.525000     12.243000
C           2.412000     -1.819000     10.491000
C           3.307000     -2.800000     12.389000
C           2.645000     -2.746000      7.205000
C           3.751000     -4.607000      6.147000
C           7.093000     -5.976000     10.491000
C           4.761000     -1.570000     10.864000
C           3.093000     -6.734000     12.246000
C           5.776000     -7.687000      8.669000
C           5.529000     -6.841000     12.105000
C           5.009000     -4.022000      6.337000
C           7.430000     -4.481000      8.968000
$end

--------------------------------------------------------------

             Standard Nuclear Orientation (Angstroms)
    I     Atom           X                Y                Z
 ----------------------------------------------------------------
    1      O       7.3199731674     7.8326545251    -3.2822166677
    2      C       7.5996093484     9.1835151837    -3.4168163979
    3      H       8.6779201182     9.3331387126    -3.5499129166
    4      H       7.3878380292     9.7095607254    -2.4776220643
    5      H       7.0662240144     9.6642897551    -4.2459888149
    6      O       5.0298253553     8.1170405088    -3.0614461727
    7      C       6.0484941679     7.3923466504    -3.0441932880
    8      C       5.9185005434     5.8998294263    -2.6081279333
    9      H       6.6411023427     5.6573243617    -1.8196712552
   10      H       6.1727167419     5.3887260323    -3.5450497257
   11      C       4.5013851802     5.3567277606    -2.2594452290
   12      H       4.0927356442     5.9081897269    -1.4035513942
   13      H       3.7136499219     5.6262573509    -2.9731937581
   14      C       4.6800810939     3.8615314136    -2.2256864631
   15      H       4.7447318774     3.5450495268    -3.2739295129
   16      H       5.6915100100     3.6237218644    -1.8725984204
   17      C       3.6903507929     3.0721537350    -1.4648725490
   18      C       2.3355877481     3.7171143470    -1.3814165639
   19      C       1.4283415699     3.3813113300    -2.3716855707
   20      H       1.7431906536     2.8952946728    -3.2898641282
   21      C       0.1044146751     3.8638266516    -2.1195000403
   22      H      -0.6624675864     3.6259325968    -2.8491355765
   23      C      -0.2781253501     4.6918921962    -0.9812203809
   24      H      -1.2492035588     5.1649976787    -0.8658933894
   25      C       0.6781462451     4.9779771991    -0.0059055562
   26      H       0.3560328397     5.5801044063     0.8385195621
   27      C       2.0209065779     4.5364493089    -0.2342513704
   28      H       2.7789060187     4.6053520890     0.5398818576
   29      C       3.1280973318     0.5642526007     3.4337005031
   30      C       1.4869698267    -0.5572384515     2.0361214062
   31      C       3.6718224716    -4.5910824778     1.7397512119
   32      C       7.7234578592     0.4655810481     1.2479721239
   33      C       5.0412232965    -3.6832569203    -1.4539933204
   34      C       2.2153032238     0.5739709115     2.3922335229
   35      C       7.8672294699    -1.8705304680    -0.1574348307
   36      C       3.3746259695    -3.0630747701     3.7101236855
   37      C       2.6779698307    -0.5347786587    -1.8341928637
   38      C       7.5372302961     0.5549485242    -0.1944375782
   39      C       3.6719444435     1.5667519458    -1.3829417280
   40      C       3.9339248270    -0.5298414618    -2.4399598744
   41      C       6.6487586890    -0.6494025260    -1.8918054674
   42      C       7.1308620604    -3.0091218905    -0.5208926838
   43      C       1.9012539752     0.5920898685     0.1392695256
   44      C       5.7176312946    -4.5290658517     0.7805738573
   45      C       4.2209159076     2.3374330480    -0.2518988595
   46      C       5.6572534626     2.1644350282     0.0987164754
   47      C       4.7577877359    -4.5107912737    -0.3624713660
   48      C       6.7382677426    -1.9634947737     3.6469979859
   49      C       5.5956979868    -3.8463991403     3.0647733735
   50      C       4.7697617685    -3.0685217411     3.8760255631
   51      C       2.7139154631    -1.8338276046     3.7181257284
   52      C       5.8004805974     2.0038876322     1.4648806389
   53      C       2.5371955553     0.6306888632    -1.0999667006
   54      C       1.6498502879    -1.7580043701     2.7817977196
   55      C       7.6664639563    -0.6450561113    -0.9287083292
   56      C       1.3323948018    -0.5449097215     0.6476760295
   57      C       4.5938856189    -1.7366055623    -2.5342634220
   58      C       6.6490489261     0.5040993658     3.2222425673
   59      C       2.8005679389    -3.8223084067     2.5824895858
   60      C       4.5674259106     0.6620329403    -2.1235917555
   61      C       4.7738398204    -0.6738819953     4.3916803480
   62      C       5.9593040276    -1.8194269792    -2.2955393511
   63      C       2.0635419789    -1.7251813101    -1.2746922449
   64      C       7.4908308890    -3.0376859156     1.6603545601
   65      C       8.0310924034    -1.8865377266     1.2278163041
   66      C       2.7695350400    -2.9083303414    -1.3653408380
   67      C       6.8398953204     1.2430079756     2.0502798033
   68      C       6.4575746307     1.2825461364    -0.7154475194
   69      C       7.3325144056    -0.7241074476     3.2021935800
   70      C       3.5338618684     2.1090547202     1.0613395372
   71      C       1.6483103819    -2.9125287457     0.5774086671
   72      C       5.9515123270     0.5830998673    -1.8115847652
   73      C       4.0076694594    -2.9010545382    -1.9511088998
   74      C       5.3769991883     0.5216384508     3.8611422816
   75      C       3.5219839905    -4.5250761187     0.2944967049
   76      C       3.4147146156    -0.6091663168     4.0787769145
   77      C       5.0534594236    -4.5842119312     2.0037400912
   78      C       1.3463722511    -1.7214378889    -0.1018872448
   79      C       2.5401527493    -3.6348174820    -0.1995174383
   80      C       2.4354030177     1.2855807072     1.2027775214
   81      C       4.5293927020     1.9979566746     2.0922811376
   82      C       6.7480318307    -3.0404443411     2.8406337432
   83      C       1.7884823553    -2.9114681494     2.0284581814
   84      C       6.1998682584    -2.9573369473    -1.5359935952
   85      C       8.0028135320    -0.7478265950     1.9580575412
   86      C       6.9261043014    -3.8098877308     0.6267563606
   87      C       4.3375938515     1.2272247358     3.2884176180
   88      C       5.4885961069    -1.9117258591     4.2980853706
   89      O      -0.4132686891    -6.8532643726    -4.1206232031
   90      C      -0.4184397599    -8.1811272884    -4.7434460808
   91      H      -1.1855407758    -8.1987978027    -5.5260301238
   92      H      -0.7438874266    -8.9189503024    -4.0001163988
   93      H       0.5774001893    -8.4051107184    -5.1441045622
   94      O      -2.3759308554    -6.1408715506    -4.8756018040
   95      C      -1.3550477285    -5.9660427958    -4.2633260919
   96      C      -1.0600817499    -4.7147757671    -3.4613217937
   97      H      -0.0054271047    -4.4327790743    -3.5670736002
   98      H      -1.2498495881    -4.9794097939    -2.4132115898
   99      C      -2.0380744275    -3.6158851296    -3.8397549969
  100      H      -1.8660639997    -3.3370670256    -4.8866460503
  101      H      -3.0539840376    -3.9836740067    -3.6471439746
  102      C      -1.8417049830    -2.3626735142    -2.9995284273
  103      H      -1.5020472825    -2.5596945686    -1.9750420435
  104      H      -1.0372090853    -1.7536519542    -3.4306851159
  105      C      -3.0882015333    -1.5199214851    -3.0193871145
  106      C      -3.5732761122    -1.2901318883    -4.4818987877
  107      C      -4.7937595031    -1.8646783167    -4.9684783742
  108      H      -5.4100807529    -2.5453992266    -4.3884609953
  109      C      -5.2834931754    -1.5770719142    -6.2528426090
  110      H      -6.2339452710    -1.9548085557    -6.6176231508
  111      C      -4.5566936114    -0.6867320207    -7.0710939565
  112      H      -4.8299457012    -0.4816637044    -8.1021023372
  113      C      -3.3111078194    -0.1501615010    -6.6096081904
  114      H      -2.7754743136     0.5613691982    -7.2321255087
  115      C      -2.8474199085    -0.4385281208    -5.3512639554
  116      H      -1.8997154331    -0.0549221189    -4.9865179304
  117      C      -5.1398720904     3.2149693046    -1.2233926449
  118      C      -7.1070869249     1.8589724764    -1.4457423622
  119      C      -7.8208499186     1.2090900985     2.9797977499
  120      C      -1.5525404756     0.9989576523     1.6390926812
  121      C      -6.3262396335    -1.8774708849     3.0736561061
  122      C      -5.8307595047     2.2145796812    -1.8999029421
  123      C      -2.9450471536    -0.5621479807     3.5334691892
  124      C      -7.2763974104     3.2933309664     1.7691460778
  125      C      -6.1756139934    -2.0684232158    -0.9716165823
  126      C      -1.7525595384    -0.3431770190     1.4103441327
  127      C      -4.0940777588    -1.4973625509    -1.9134815519
  128      C      -5.1824489619    -2.6001959931    -0.1606049096
  129      C      -3.1436239590    -2.0416133432     1.6531770594
  130      C      -4.1947584679    -0.9513855313     3.9725771030
  131      C      -6.0673179981    -0.0018199486    -2.3018902058
  132      C      -6.2235833935     0.2233241845     4.3270450213
  133      C      -3.1785706169    -0.3552440547    -2.1151471508
  134      C      -2.2319212446    -0.0625017090    -0.9801260564
  135      C      -6.9673184349    -0.7584679481     3.5740673348
  136      C      -3.9165755035     3.2238600583     2.9782811186
  137      C      -5.9546983417     2.5646978830     3.7352206954
  138      C      -6.1961123698     3.4529612618     2.6589923566
  139      C      -6.8994087765     3.3619859367     0.3825531076
  140      C      -2.1767895274     1.3786971969    -0.7357591036
  141      C      -5.5829525077    -1.3244678807    -1.9527805966
  142      C      -7.6350830278     2.3935143420    -0.2824951360
  143      C      -2.4247881154    -1.1338787252     2.3407749749
  144      C      -7.2405456549     0.4715159597    -1.6713840732
  145      C      -5.4423410775    -2.8390873889     1.2284303633
  146      C      -2.4060586588     3.0116854694     1.0182018330
  147      C      -8.0572873429     2.0925025581     1.9283222292
  148      C      -3.8765466074    -2.2795966958    -0.6650225254
  149      C      -4.6582966139     4.0031243431     0.8561550693
  150      C      -4.4052552915    -2.5241007458     2.1628213346
  151      C      -7.3765228431    -1.6009406391    -0.3497412127
  152      C      -4.0107089615     1.2386935815     4.3974562140
  153      C      -2.7880836804     0.8134865218     3.7599867023
  154      C      -7.6392779158    -1.8323450861     1.0048158195
  155      C      -1.7362677811     1.8823951213     0.5389279136
  156      C      -2.0517947452    -0.8722019283     0.1398592110
  157      C      -2.7129479964     2.7942870705     2.3863969472
  158      C      -3.8188515308     0.9742974826    -2.3235305759
  159      C      -8.4159624633     0.2630687581     0.4188192879
  160      C      -2.9487788156    -1.8778950927     0.3077753705
  161      C      -6.6434180663    -2.4162050533     1.8122690373
  162      C      -3.4572982827     3.5393860136     0.2264712040
  163      C      -7.8903985660    -0.1503490120     2.7496254440
  164      C      -5.6838847981     3.7724039549    -0.0782944900
  165      C      -6.8003223495     1.4487610743     3.8979907057
  166      C      -7.8810505249    -0.2846328902    -0.7514273197
  167      C      -8.2208650418    -0.6599137775     1.5089886486
  168      C      -5.2047950037     1.0851763931    -2.3862645937
  169      C      -3.0998639005     1.9295003838    -1.5724445588
  170      C      -4.6121975777     2.4273006982     3.8477494133
  171      C      -8.3485924155     1.6118255288     0.6283484032
  172      C      -4.9505414164    -1.9574992312     3.2877118918
  173      C      -2.1311946073     1.6048669690     2.7754057084
  174      C      -4.8298053089     0.1327029817     4.5454493451
  175      C      -3.7098348295     3.0848943643    -1.0685703526
  176      C      -4.9331266007     3.8330193038     2.2386867159
 ----------------------------------------------------------------

    9   -5804.2228919006      8.49E-06 Convergence criterion met
 Total energy in the final basis set = -5804.2228919006

                    Orbital Energies (a.u.)
 --------------------------------------------------------------

 Alpha MOs
 -- Occupied --
-19.200 -19.191 -19.136 -19.123 -10.325 -10.307 -10.252 -10.246
-10.237 -10.235 -10.235 -10.234 -10.233 -10.233 -10.230 -10.230
-10.229 -10.228 -10.227 -10.227 -10.226 -10.225 -10.224 -10.224
-10.224 -10.224 -10.224 -10.223 -10.223 -10.222 -10.222 -10.222
-10.222 -10.221 -10.221 -10.221 -10.221 -10.221 -10.221 -10.220
-10.220 -10.220 -10.220 -10.219 -10.219 -10.219 -10.219 -10.219
-10.218 -10.218 -10.218 -10.218 -10.217 -10.217 -10.217 -10.217
-10.217 -10.217 -10.217 -10.217 -10.217 -10.217 -10.216 -10.216
-10.216 -10.215 -10.215 -10.215 -10.215 -10.215 -10.215 -10.214
-10.214 -10.214 -10.214 -10.213 -10.213 -10.213 -10.213 -10.213
-10.213 -10.213 -10.213 -10.212 -10.212 -10.212 -10.212 -10.212
-10.212 -10.211 -10.211 -10.211 -10.211 -10.211 -10.211 -10.210
-10.210 -10.210 -10.210 -10.210 -10.210 -10.210 -10.210 -10.210
-10.210 -10.209 -10.209 -10.209 -10.209 -10.209 -10.209 -10.209
-10.209 -10.208 -10.208 -10.208 -10.208 -10.208 -10.208 -10.208
-10.208 -10.208 -10.207 -10.207 -10.207 -10.207 -10.207 -10.207
-10.206 -10.206 -10.206 -10.205 -10.205 -10.205 -10.204 -10.203
-10.202 -10.201 -10.200 -10.200 -10.199 -10.198 -10.198 -10.197
-10.196 -10.195 -10.195 -10.185  -1.107  -1.100  -1.011  -1.003
 -0.986  -0.985  -0.970  -0.969  -0.965  -0.964  -0.962  -0.961
 -0.940  -0.938  -0.932  -0.928  -0.926  -0.926  -0.924  -0.921
 -0.921  -0.920  -0.901  -0.900  -0.892  -0.888  -0.887  -0.887
 -0.876  -0.875  -0.849  -0.847  -0.845  -0.843  -0.840  -0.839
 -0.836  -0.833  -0.825  -0.822  -0.811  -0.808  -0.802  -0.800
 -0.797  -0.796  -0.794  -0.793  -0.792  -0.789  -0.786  -0.784
 -0.772  -0.770  -0.769  -0.768  -0.767  -0.766  -0.764  -0.763
 -0.753  -0.751  -0.744  -0.742  -0.734  -0.733  -0.718  -0.717
 -0.716  -0.715  -0.715  -0.713  -0.712  -0.710  -0.709  -0.709
 -0.708  -0.707  -0.707  -0.706  -0.704  -0.702  -0.675  -0.674
 -0.660  -0.660  -0.657  -0.657  -0.648  -0.646  -0.634  -0.630
 -0.630  -0.626  -0.625  -0.624  -0.622  -0.620  -0.619  -0.618
 -0.616  -0.615  -0.613  -0.613  -0.610  -0.610  -0.608  -0.608
 -0.607  -0.603  -0.601  -0.601  -0.571  -0.565  -0.563  -0.563
 -0.562  -0.561  -0.560  -0.558  -0.558  -0.557  -0.556  -0.554
 -0.537  -0.536  -0.535  -0.532  -0.530  -0.528  -0.527  -0.524
 -0.523  -0.522  -0.521  -0.517  -0.517  -0.516  -0.514  -0.513
 -0.509  -0.507  -0.502  -0.501  -0.497  -0.497  -0.491  -0.488
 -0.487  -0.485  -0.484  -0.481  -0.481  -0.480  -0.478  -0.476
 -0.475  -0.474  -0.471  -0.470  -0.469  -0.469  -0.467  -0.467
 -0.466  -0.465  -0.464  -0.464  -0.463  -0.462  -0.461  -0.460
 -0.459  -0.456  -0.455  -0.452  -0.450  -0.449  -0.447  -0.446
 -0.443  -0.442  -0.441  -0.439  -0.439  -0.437  -0.433  -0.432
 -0.431  -0.430  -0.429  -0.427  -0.427  -0.427  -0.426  -0.425
 -0.423  -0.423  -0.422  -0.421  -0.420  -0.419  -0.419  -0.418
 -0.418  -0.417  -0.417  -0.415  -0.415  -0.415  -0.413  -0.413
 -0.412  -0.411  -0.410  -0.409  -0.402  -0.399  -0.398  -0.397
 -0.394  -0.394  -0.393  -0.390  -0.388  -0.387  -0.385  -0.382
 -0.379  -0.378  -0.373  -0.371  -0.369  -0.368  -0.367  -0.365
 -0.363  -0.363  -0.362  -0.362  -0.360  -0.359  -0.359  -0.358
 -0.356  -0.355  -0.355  -0.354  -0.353  -0.352  -0.351  -0.350
 -0.348  -0.347  -0.347  -0.345  -0.345  -0.344  -0.344  -0.343
 -0.343  -0.342  -0.341  -0.339  -0.337  -0.336  -0.334  -0.333
 -0.333  -0.331  -0.329  -0.329  -0.328  -0.326  -0.326  -0.325
 -0.310  -0.305  -0.299  -0.299  -0.291  -0.287  -0.275  -0.273
 -0.270  -0.268  -0.267  -0.266  -0.265  -0.265  -0.264  -0.262
 -0.261  -0.260  -0.259  -0.258  -0.257  -0.256  -0.255  -0.254
 -0.249  -0.247  -0.242  -0.239  -0.226  -0.223  -0.212  -0.210
 -0.210  -0.207  -0.205  -0.203  -0.200  -0.198

          Ground-State Mulliken Net Atomic Charges

     Atom                 Charge (a.u.)
  ----------------------------------------
      1 O                    -0.447710
      2 C                    -0.081235
      3 H                     0.120164
      4 H                     0.119528
      5 H                     0.127718
      6 O                    -0.478499
      7 C                     0.579335
      8 C                    -0.265921
      9 H                     0.136159
     10 H                     0.132158
     11 C                    -0.168767
     12 H                     0.122091
     13 H                     0.127494
     14 C                    -0.196981
     15 H                     0.108922
     16 H                     0.110885
     17 C                     0.022633
     18 C                     0.066140
     19 C                    -0.097354
     20 H                     0.100731
     21 C                    -0.112348
     22 H                     0.085466
     23 C                    -0.077615
     24 H                     0.101264
     25 C                    -0.089271
     26 H                     0.098605
     27 C                    -0.102634
     28 H                     0.094815
     29 C                    -0.003524
     30 C                     0.013612
     31 C                    -0.007997
     32 C                    -0.021642
     33 C                     0.008096
     34 C                     0.016253
     35 C                    -0.010916
     36 C                    -0.011077
     37 C                    -0.003069
     38 C                    -0.019734
     39 C                    -0.076844
     40 C                     0.012311
     41 C                     0.002592
     42 C                     0.012036
     43 C                     0.020933
     44 C                    -0.003559
     45 C                    -0.092173
     46 C                     0.018595
     47 C                    -0.019214
     48 C                    -0.002533
     49 C                     0.001013
     50 C                     0.013631
     51 C                     0.008539
     52 C                     0.000130
     53 C                     0.035497
     54 C                    -0.022562
     55 C                    -0.031132
     56 C                     0.000700
     57 C                    -0.005723
     58 C                     0.004993
     59 C                    -0.020142
     60 C                     0.028120
     61 C                    -0.018945
     62 C                    -0.024649
     63 C                    -0.008474
     64 C                    -0.014705
     65 C                     0.052716
     66 C                    -0.001399
     67 C                     0.012781
     68 C                     0.021696
     69 C                    -0.016347
     70 C                     0.014582
     71 C                    -0.009837
     72 C                    -0.007395
     73 C                     0.004437
     74 C                    -0.009301
     75 C                    -0.011996
     76 C                     0.015913
     77 C                     0.014763
     78 C                    -0.024976
     79 C                     0.021068
     80 C                     0.005888
     81 C                    -0.014041
     82 C                     0.031980
     83 C                     0.002949
     84 C                     0.024354
     85 C                    -0.010369
     86 C                    -0.023023
     87 C                     0.003831
     88 C                    -0.021701
     89 O                    -0.455278
     90 C                    -0.099347
     91 H                     0.146161
     92 H                     0.132368
     93 H                     0.133177
     94 O                    -0.478999
     95 C                     0.595953
     96 C                    -0.280666
     97 H                     0.123898
     98 H                     0.136496
     99 C                    -0.158852
    100 H                     0.121607
    101 H                     0.125558
    102 C                    -0.188803
    103 H                     0.104173
    104 H                     0.103192
    105 C                     0.010417
    106 C                     0.076509
    107 C                    -0.112349
    108 H                     0.095155
    109 C                    -0.084362
    110 H                     0.096251
    111 C                    -0.090507
    112 H                     0.089908
    113 C                    -0.089508
    114 H                     0.088880
    115 C                    -0.097559
    116 H                     0.083843
    117 C                    -0.029240
    118 C                    -0.023238
    119 C                     0.028812
    120 C                    -0.014874
    121 C                     0.000449
    122 C                     0.008558
    123 C                     0.001757
    124 C                    -0.048486
    125 C                     0.015215
    126 C                    -0.002798
    127 C                    -0.080577
    128 C                    -0.008408
    129 C                     0.019936
    130 C                     0.025897
    131 C                    -0.004950
    132 C                    -0.000669
    133 C                    -0.085462
    134 C                     0.011732
    135 C                    -0.022434
    136 C                     0.007517
    137 C                    -0.001081
    138 C                     0.015910
    139 C                     0.022173
    140 C                     0.042390
    141 C                     0.023283
    142 C                     0.023476
    143 C                    -0.015530
    144 C                    -0.015182
    145 C                    -0.018876
    146 C                    -0.029448
    147 C                    -0.014696
    148 C                     0.018853
    149 C                    -0.015216
    150 C                    -0.038759
    151 C                    -0.024845
    152 C                    -0.032765
    153 C                    -0.026415
    154 C                    -0.015433
    155 C                     0.005778
    156 C                    -0.021597
    157 C                     0.007171
    158 C                     0.033324
    159 C                    -0.007078
    160 C                     0.042793
    161 C                     0.009372
    162 C                     0.013286
    163 C                     0.026345
    164 C                     0.016339
    165 C                    -0.024068
    166 C                     0.024201
    167 C                     0.004318
    168 C                     0.039740
    169 C                     0.001415
    170 C                     0.026973
    171 C                    -0.002540
    172 C                     0.019044
    173 C                     0.014330
    174 C                     0.000900
    175 C                    -0.032576
    176 C                    -0.012137
  ----------------------------------------
  Sum of atomic charges =     0.000000

                    Cartesian Multipole Moments
 -----------------------------------------------------------------
    Charge (ESU x 10^10)
                 0.0000
    Dipole Moment (Debye)
         X       2.7335      Y      -0.0495      Z      -2.9566
       Tot       4.0269
    Quadrupole Moments (Debye-Ang)
        XX    -802.6028     XY      13.5599     YY    -791.2613
        XZ      -8.7526     YZ       4.2193     ZZ    -798.0928

 Total job time:  869.59s(wall), 7387.42s(cpu)
        *  Thank you very much for using Q-Chem.  Have a nice day.  *
