 Q-Chem 4.4, Q-Chem, Inc., Pleasanton, CA (2016)
 Q-Chem 4.4.2 for Intel X86 Linux

User input:
--------------------------------------------------------------
$comment
SP
$end

$rem
MEM_STATIC 5000
MEM_TOTAL 20000
JOBTYPE SP
EXCHANGE B3LYP
BASIS 6-31g(d,p)
$end

$molecule
0 1
O         -19.362000     -2.182000     -6.943000
C         -19.245000     -3.620000     -7.114000
H         -19.209000     -3.856000     -8.184000
H         -20.103000     -4.132000     -6.661000
H         -18.294000     -3.877000     -6.633000
O         -21.361000     -2.117000     -8.248000
C         -20.439000     -1.551000     -7.614000
C         -20.311000     -0.063000     -7.442000
H         -19.617000      0.118000     -6.613000
H         -21.248000      0.468000     -7.234000
C         -19.687000      0.530000     -8.696000
H         -18.621000      0.285000     -8.775000
H         -20.172000      0.113000     -9.588000
C         -19.705000      2.106000     -8.725000
H         -20.770000      2.359000     -8.788000
H         -19.309000      2.490000     -7.777000
C         -19.004000      2.734000     -9.890000
C         -19.279000      1.955000    -11.154000
C         -20.575000      1.668000    -11.587000
H         -21.431000      2.169000    -11.146000
C         -20.829000      0.879000    -12.709000
H         -21.832000      0.755000    -13.107000
C         -19.817000      0.280000    -13.410000
H         -20.074000     -0.396000    -14.220000
C         -18.522000      0.459000    -12.895000
H         -17.718000     -0.097000    -13.366000
C         -18.246000      1.258000    -11.815000
H         -17.231000      1.371000    -11.445000
C         -14.726000      5.604000    -11.917000
C         -16.624000      6.454000    -13.204000
C         -16.785000     10.513000    -11.409000
C         -15.721000      6.159000     -6.968000
C         -19.466000      9.760000     -9.252000
C         -15.984000      5.389000    -12.521000
C         -17.380000      8.445000     -6.598000
C         -14.883000      9.220000    -11.998000
C         -20.022000      6.258000    -11.220000
C         -17.103000      5.982000     -6.806000
C         -19.117000      4.300000    -10.080000
C         -20.238000      6.400000     -9.837000
C         -19.083000      6.832000     -7.276000
C         -17.998000      9.448000     -7.360000
C         -18.185000      5.111000    -12.266000
C         -17.280000     10.877000     -9.232000
C         -17.784000      3.743000     -9.732000
C         -17.117000      4.159000     -8.463000
C         -18.486000     10.573000     -9.857000
C         -13.946000      8.609000     -8.678000
C         -14.991000     10.263000     -9.801000
C         -14.332000      9.506000    -10.741000
C         -14.836000      7.955000    -12.547000
C         -15.740000      4.351000     -8.653000
C         -19.289000      5.036000    -11.355000
C         -15.977000      7.711000    -13.301000
C         -17.953000      7.112000     -6.612000
C         -17.983000      6.279000    -13.052000
C         -20.337000      7.697000     -9.263000
C         -14.030000      6.056000     -8.464000
C         -16.126000      9.749000    -12.384000
C         -19.659000      5.287000     -9.134000
C         -13.597000      7.105000    -10.621000
C         -19.753000      7.903000     -7.985000
C         -19.864000      7.408000    -12.022000
C         -15.812000      9.712000     -7.607000
C         -16.015000      8.609000     -6.825000
C         -19.869000      8.674000    -11.423000
C         -15.040000      5.245000     -7.834000
C         -17.785000      5.034000     -7.534000
C         -14.168000      7.410000     -7.959000
C         -16.739000      3.912000    -10.697000
C         -18.217000      8.683000    -13.064000
C         -18.963000      5.602000     -7.940000
C         -20.174000      8.837000    -10.036000
C         -13.812000      5.968000     -9.868000
C         -18.196000     10.400000    -11.223000
C         -14.176000      6.884000    -11.904000
C         -16.255000     10.782000    -10.135000
C         -18.799000      7.435000    -12.990000
C         -18.838000      9.444000    -12.009000
C         -16.952000      4.510000    -11.945000
C         -15.563000      4.244000    -10.033000
C         -14.786000      9.725000     -8.546000
C         -16.823000      8.847000    -13.177000
C         -19.229000      9.185000     -7.991000
C         -15.209000      7.438000     -7.031000
C         -17.038000     10.262000     -7.948000
C         -14.564000      5.054000    -10.641000
C         -13.714000      8.405000    -10.052000
O         -10.786000     11.730000     -7.193000
C         -11.604000     10.981000     -8.084000
H         -12.543000     11.517000     -8.268000
H         -11.905000     10.035000     -7.617000
H         -11.142000     10.843000     -9.070000
O         -11.948000     11.076000     -5.372000
C         -11.142000     11.843000     -5.891000
C         -10.207000     12.782000     -5.101000
H          -9.161000     12.803000     -5.432000
H         -10.216000     12.401000     -4.072000
C         -10.610000     14.272000     -4.946000
H         -11.589000     14.121000     -4.474000
H         -10.047000     14.875000     -4.223000
C         -10.726000     14.966000     -6.336000
H          -9.680000     14.974000     -6.665000
H         -11.186000     14.275000     -7.054000
C         -11.484000     16.258000     -6.298000
C         -10.871000     17.311000     -5.454000
C          -9.813000     18.009000     -5.988000
H          -9.518000     17.912000     -7.029000
C          -9.318000     19.156000     -5.402000
H          -8.636000     19.839000     -5.898000
C          -9.791000     19.525000     -4.150000
H          -9.437000     20.428000     -3.662000
C         -10.883000     18.773000     -3.564000
H         -11.234000     18.996000     -2.561000
C         -11.385000     17.647000     -4.202000
H         -12.174000     17.122000     -3.672000
C         -16.484000     18.520000     -6.236000
C         -15.127000     20.105000     -7.556000
C         -16.967000     19.131000    -11.593000
C         -15.987000     13.794000     -8.183000
C         -14.358000     17.013000    -12.668000
C         -15.235000     19.269000     -6.442000
C         -15.569000     13.961000    -10.998000
C         -18.014000     19.466000     -9.394000
C         -12.155000     18.224000     -9.437000
C         -14.720000     13.636000     -8.764000
C         -11.994000     16.741000     -7.574000
C         -12.058000     16.947000     -9.962000
C         -13.305000     14.479000    -10.324000
C         -15.479000     14.888000    -12.067000
C         -13.184000     18.995000     -7.403000
C         -16.775000     17.015000    -12.433000
C         -12.986000     16.234000     -6.543000
C         -13.811000     15.049000     -6.968000
C         -15.580000     17.691000    -12.659000
C         -18.625000     15.965000     -9.047000
C         -18.443000     17.413000    -10.766000
C         -18.714000     18.222000     -9.603000
C         -17.414000     19.625000     -8.154000
C         -15.132000     15.182000     -6.399000
C         -12.232000     18.156000     -8.023000
C         -16.265000     20.357000     -8.368000
C         -14.483000     13.812000    -10.144000
C         -13.845000     20.024000     -8.093000
C         -12.618000     16.645000    -11.210000
C         -17.423000     15.245000     -7.112000
C         -17.089000     19.828000    -10.372000
C         -12.018000     16.009000     -8.887000
C         -18.303000     17.580000     -7.264000
C         -13.214000     15.390000    -11.396000
C         -12.802000     19.264000    -10.164000
C         -17.528000     15.154000    -11.092000
C         -16.870000     14.175000    -10.385000
C         -13.429000     18.924000    -11.395000
C         -16.199000     14.526000     -7.027000
C         -13.631000     14.246000     -8.153000
C         -17.991000     14.962000     -8.310000
C         -14.007000     17.182000     -5.958000
C         -14.739000     20.479000    -10.320000
C         -12.726000     14.773000     -9.099000
C         -13.338000     17.623000    -11.935000
C         -17.569000     16.536000     -6.560000
C         -15.652000     18.995000    -12.114000
C         -17.630000     18.780000     -7.069000
C         -17.643000     17.906000    -11.807000
C         -13.606000     20.277000     -9.444000
C         -14.589000     19.683000    -11.515000
C         -14.033000     18.535000     -6.381000
C         -15.254000     16.507000     -5.849000
C         -18.453000     16.029000    -10.446000
C         -16.010000     20.479000     -9.732000
C         -14.307000     15.608000    -12.304000
C         -17.061000     14.135000     -8.962000
C         -16.701000     15.628000    -12.120000
C         -16.484000     17.166000     -5.926000
C         -18.823000     17.312000     -8.550000
$end

--------------------------------------------------------------

             Standard Nuclear Orientation (Angstroms)
    I     Atom           X                Y                Z
 ----------------------------------------------------------------
    1      O     -13.4982858076    -2.8893553564     2.2921922326
    2      C     -14.8528946934    -3.2559631096     1.9161503174
    3      H     -15.1777102349    -2.6306079462     1.0763183202
    4      H     -15.5387562352    -3.1103490693     2.7598964266
    5      H     -14.7771705756    -4.3046635008     1.6058208996
    6      O     -14.1405839111    -0.6206481091     2.6712325630
    7      C     -13.2730873929    -1.5225761120     2.5914098304
    8      C     -11.8008845942    -1.3115451991     2.8109476932
    9      H     -11.3451943251    -2.2940185950     2.9804481503
   10      H     -11.5405593852    -0.6571700319     3.6519101931
   11      C     -11.1870211581    -0.7374551670     1.5432200738
   12      H     -11.1247423749    -1.4873981770     0.7455178518
   13      H     -11.8145164903     0.0774352876     1.1598388600
   14      C      -9.6932761129    -0.2668362503     1.7226206734
   15      H      -9.7622681720     0.5796488875     2.4160945427
   16      H      -9.1168335261    -1.0670514039     2.2025640575
   17      C      -9.0149439639     0.2043936791     0.4732937148
   18      C      -9.9658503867     1.0226628463    -0.3671671975
   19      C     -10.6533916321     2.1255204099     0.1431917257
   20      H     -10.3745717557     2.5598389924     1.0980973993
   21      C     -11.5932190780     2.8315303775    -0.6079376223
   22      H     -12.0382975265     3.7544500284    -0.2475024789
   23      C     -11.9477301202     2.4363761144    -1.8698889008
   24      H     -12.7486012300     2.9671758569    -2.3758356360
   25      C     -11.3549497635     1.2492753924    -2.3321597357
   26      H     -11.7040953386     0.8555473280    -3.2810899642
   27      C     -10.4036459370     0.5589892692    -1.6254044049
   28      H      -9.9685123639    -0.3565292298    -2.0157614868
   29      C      -5.2691326857    -0.5883242317    -3.5251321232
   30      C      -5.1327124642     1.8173123405    -3.1061151713
   31      C      -1.1257162024     1.8574958309    -1.1914890342
   32      C      -4.5142807127    -3.0592198374     0.8469982963
   33      C      -2.3854655932     2.0521916428     2.0921893930
   34      C      -5.8948363303     0.6228007444    -3.1573329366
   35      C      -2.7706550209    -1.5270462080     2.4984190229
   36      C      -1.8763321165     0.5808763055    -3.0470731301
   37      C      -6.0838758607     2.7769250227     0.5946290367
   38      C      -5.0602445387    -2.2645509541     1.8657828008
   39      C      -7.5743889741     0.8454082819     0.5962839593
   40      C      -5.8677214319     2.0400253519     1.7735120411
   41      C      -4.8630722624    -0.3490142604     2.9407908326
   42      C      -2.0694777466    -0.3121035607     2.4694053412
   43      C      -6.7609477999     1.8914999664    -1.5365420167
   44      C      -0.6957807798     0.8434494200     0.7842931929
   45      C      -7.6893495760    -0.4610763516    -0.1023747288
   46      C      -6.9721033920    -1.6538897317     0.4371251803
   47      C      -1.3936363155     2.0080103601     1.0913314120
   48      C      -1.8496089555    -2.4561485141    -1.3008039305
   49      C      -0.6869549908    -0.5241755650    -1.2330818357
   50      C      -1.3172747282    -0.5601694731    -2.4546920301
   51      C      -3.1249577319     0.5635720569    -3.6339884863
   52      C      -6.4161537713    -2.4222034613    -0.5971412419
   53      C      -7.0533334251     2.0218880110    -0.1394480313
   54      C      -3.7603893609     1.7863537900    -3.4580212218
   55      C      -4.2057374130    -1.4939786012     2.7102186013
   56      C      -5.6712434013     2.6033791952    -2.1097752044
   57      C      -4.6008506706     2.0853467018     2.4173058351
   58      C      -4.2844221201    -3.2522823215    -1.3930905199
   59      C      -1.7663106674     1.8429692980    -2.4396996379
   60      C      -6.6909173517     0.8608031922     1.7719071511
   61      C      -3.3834423389    -1.8154644138    -3.1436129374
   62      C      -4.1064601224     0.8852360001     2.9935768559
   63      C      -5.0255155017     3.5248174819     0.0367776050
   64      C      -1.2201600231    -1.5797166895     0.8628197193
   65      C      -2.2486190822    -2.2701324066     1.4415598175
   66      C      -3.7588152414     3.4800059350     0.6326336076
   67      C      -5.2803233882    -3.2035971784    -0.3536043868
   68      C      -6.2330329080    -1.5714791934     1.6707674797
   69      C      -2.9814556584    -3.1180514997    -0.7672746634
   70      C      -7.3297656786    -0.4885064489    -1.4886495970
   71      C      -3.4482741008     3.4420139041    -1.6747863380
   72      C      -6.0693757374    -0.3299379492     2.2247852317
   73      C      -3.5476083419     2.8076071398     1.8762712180
   74      C      -4.4507090552    -2.4876755316    -2.5822957638
   75      C      -1.6164864918     2.6739114606    -0.1280530735
   76      C      -3.8912167562    -0.6196305293    -3.7286919592
   77      C      -0.5870951293     0.7148140780    -0.5746399836
   78      C      -4.7958591526     3.4460747896    -1.3820372349
   79      C      -2.7914679605     3.3759960885    -0.3933674595
   80      C      -6.9491261714     0.6597383160    -2.1937201790
   81      C      -6.6097636057    -1.6506907959    -1.7436408883
   82      C      -1.0119767741    -1.6548847360    -0.5103428711
   83      C      -2.9062322268     2.6026731850    -2.6670558397
   84      C      -2.7360066550     0.8851149444     2.7935936587
   85      C      -3.1559764046    -3.0137716869     0.6126953471
   86      C      -1.0806464580    -0.3535980948     1.4945048917
   87      C      -5.6156857220    -1.7067931632    -2.7597248836
   88      C      -2.1193588855    -1.7535587554    -2.4911478330
   89      O       2.1783201785    -4.7582356374    -1.9392769272
   90      C       1.1396161160    -3.8069841718    -2.1398274686
   91      H       1.3637709649    -2.8875747554    -1.5854684436
   92      H       0.2003981655    -4.1754060862    -1.7088507472
   93      H       1.0382814770    -3.5040984713    -3.1899110574
   94      O       1.4113418080    -5.3579202780     0.0969262824
   95      C       2.3185877878    -5.3525436142    -0.7302144696
   96      C       3.5613073975    -6.2639441284    -0.6591998622
   97      H       3.8454227321    -6.7574433246    -1.5972057363
   98      H       3.3016226959    -7.0522684869     0.0585685974
   99      C       4.8822915402    -5.6750704926    -0.0981626658
  100      H       4.5079105764    -5.3582722140     0.8834196000
  101      H       5.6918706248    -6.3788540754     0.1311349013
  102      C       5.3674451770    -4.4719349663    -0.9608809595
  103      H       5.6393779954    -4.9703918934    -1.8989716983
  104      H       4.5038831811    -3.8669761440    -1.2656603920
  105      C       6.3864947167    -3.6152831006    -0.2731618188
  106      C       7.6516183980    -4.3091800171     0.0657823364
  107      C       8.5634041959    -4.4866329646    -0.9485554329
  108      H       8.4478701158    -4.0204544971    -1.9229498668
  109      C       9.8579005324    -4.9004307646    -0.7096399339
  110      H      10.6521172363    -4.8483821240    -1.4472982330
  111      C      10.2036233093    -5.3093827427     0.5712300989
  112      H      11.2153111575    -5.6283895004     0.8027282334
  113      C       9.2360397949    -5.1583259658     1.6400275507
  114      H       9.4517695903    -5.5254085269     2.6388518840
  115      C       7.9542055301    -4.6990672322     1.3700158228
  116      H       7.2835544428    -4.6561368688     2.2229109528
  117      C       7.1231033466     0.4185560824     3.3745823022
  118      C       8.8844643452     0.8078995273     1.6887314444
  119      C       7.0160497060     4.5055649449    -0.1735097311
  120      C       2.5606167551     0.0628132241     1.0443340062
  121      C       5.6307456745     2.8371967653    -2.9566572941
  122      C       8.1717138732    -0.0957601076     2.4805281538
  123      C       2.5490555142     1.7046169596    -1.2861562495
  124      C       7.2632541216     3.8491083071     2.1827563107
  125      C       7.7454977736    -0.5053763521    -1.9011386944
  126      C       2.7114107871    -0.4655567688    -0.2463636000
  127      C       6.5699939433    -2.2756624450    -0.8147424065
  128      C       6.5021616603    -0.5765337941    -2.5051378068
  129      C       3.7574975944    -0.1622098891    -2.2363779371
  130      C       3.3480276215     2.6159111234    -2.0219391787
  131      C       8.3963330356    -0.9424476211     0.3739041992
  132      C       4.9678272540     4.3460841137    -1.1731449904
  133      C       5.9102151279    -2.4230222242     0.5443201419
  134      C       4.5020105856    -1.9001174192     0.6392176225
  135      C       5.9294184018     3.8620344141    -2.0546864545
  136      C       3.7884978375     3.0631918709     2.4259334501
  137      C       5.0432563066     4.4910295785     1.2128177650
  138      C       5.8567011635     4.1249352070     2.3462962059
  139      C       7.7135038640     2.6503091159     2.7147682172
  140      C       4.3107629572    -1.3334683989     1.9540652306
  141      C       7.8043482753    -1.4172724629    -0.8171963059
  142      C       8.7165829669     2.2055218739     1.8794134288
  143      C       2.8045926133     0.3434068829    -1.3989432968
  144      C       9.1174430487     0.2611947152     0.4296489323
  145      C       5.9262180221     0.5602375674    -3.0868145187
  146      C       3.6442768588     0.7398272391     2.9631541653
  147      C       7.7712115445     3.9668056301     0.8899765164
  148      C       5.7303844017    -1.5844879975    -1.8528670141
  149      C       5.6029184444     2.0980743096     3.7172211615
  150      C       4.5411985238     0.7459473423    -2.9769515636
  151      C       8.4772713971     0.7164358617    -1.8806380098
  152      C       3.1177965457     3.4496263928     0.0926989703
  153      C       2.4452297590     2.2505993987     0.0574543298
  154      C       7.8477659330     1.8774227279    -2.4097149107
  155      C       3.3167823447    -0.3606942358     2.1241298352
  156      C       3.6660764044    -1.4549254379    -0.4491077628
  157      C       3.0893074410     1.8539496342     2.4258858580
  158      C       6.5827982693    -1.8468836843     1.7686837728
  159      C       9.0668648719     2.4938911645    -0.5594407570
  160      C       4.3288656072    -1.2989136984    -1.6852472411
  161      C       6.5783037957     1.8137530636    -3.0236318887
  162      C       4.8897660300     0.8305845782     3.6213492958
  163      C       7.2076706714     3.9101012774    -1.4493884190
  164      C       6.9584026368     1.8379685573     3.5560951178
  165      C       5.6339298641     4.7734889018    -0.0273642697
  166      C       9.2875590111     1.0708174569    -0.6936954385
  167      C       8.2280194743     2.9683955967    -1.6343011864
  168      C       7.8211820372    -1.1692409269     1.6366991649
  169      C       5.5952885376    -1.2484446052     2.5988706181
  170      C       3.7544620674     3.8984741242     1.2892601796
  171      C       8.7650839105     2.9763416066     0.7201509054
  172      C       4.3438595592     2.1673212948    -2.8909840092
  173      C       2.4991914620     1.4190355064     1.2273259585
  174      C       3.6993995131     3.6994922288    -1.1581783427
  175      C       5.8647188776    -0.1658469299     3.4405947804
  176      C       5.0668654018     3.2421719818     3.0849967933
 ----------------------------------------------------------------

    9   -5804.2876300541      9.90E-06 Convergence criterion met
 Total energy in the final basis set = -5804.2876300541

                    Orbital Energies (a.u.)
 --------------------------------------------------------------

 Alpha MOs
 -- Occupied --
-19.194 -19.193 -19.144 -19.136 -10.325 -10.322 -10.247 -10.245
-10.244 -10.244 -10.239 -10.238 -10.237 -10.235 -10.234 -10.232
-10.232 -10.231 -10.229 -10.228 -10.226 -10.226 -10.225 -10.225
-10.224 -10.223 -10.223 -10.223 -10.222 -10.222 -10.222 -10.222
-10.221 -10.221 -10.221 -10.220 -10.220 -10.220 -10.220 -10.220
-10.220 -10.220 -10.220 -10.220 -10.219 -10.219 -10.219 -10.219
-10.219 -10.218 -10.218 -10.218 -10.218 -10.217 -10.217 -10.217
-10.217 -10.217 -10.217 -10.217 -10.217 -10.217 -10.216 -10.216
-10.216 -10.216 -10.216 -10.216 -10.216 -10.215 -10.215 -10.215
-10.215 -10.215 -10.215 -10.215 -10.215 -10.214 -10.214 -10.214
-10.214 -10.214 -10.214 -10.214 -10.214 -10.214 -10.214 -10.214
-10.214 -10.214 -10.214 -10.214 -10.214 -10.214 -10.213 -10.213
-10.213 -10.213 -10.213 -10.213 -10.213 -10.213 -10.213 -10.213
-10.213 -10.213 -10.213 -10.212 -10.212 -10.212 -10.212 -10.212
-10.212 -10.212 -10.211 -10.211 -10.211 -10.211 -10.211 -10.211
-10.211 -10.210 -10.210 -10.210 -10.210 -10.209 -10.209 -10.209
-10.209 -10.207 -10.207 -10.207 -10.206 -10.205 -10.204 -10.202
-10.201 -10.200 -10.199 -10.199 -10.198 -10.198 -10.198 -10.196
-10.196 -10.196 -10.195 -10.194  -1.098  -1.073  -1.006  -1.001
 -0.983  -0.980  -0.968  -0.964  -0.963  -0.962  -0.958  -0.958
 -0.936  -0.935  -0.928  -0.928  -0.925  -0.921  -0.921  -0.920
 -0.919  -0.915  -0.899  -0.899  -0.890  -0.886  -0.886  -0.877
 -0.876  -0.876  -0.858  -0.857  -0.841  -0.840  -0.836  -0.836
 -0.834  -0.834  -0.824  -0.819  -0.809  -0.805  -0.799  -0.796
 -0.795  -0.794  -0.793  -0.791  -0.790  -0.788  -0.785  -0.783
 -0.769  -0.769  -0.768  -0.768  -0.768  -0.767  -0.765  -0.762
 -0.758  -0.753  -0.743  -0.741  -0.732  -0.732  -0.719  -0.716
 -0.714  -0.714  -0.713  -0.712  -0.712  -0.708  -0.708  -0.707
 -0.706  -0.705  -0.704  -0.703  -0.703  -0.702  -0.672  -0.671
 -0.659  -0.657  -0.656  -0.655  -0.647  -0.646  -0.633  -0.630
 -0.629  -0.627  -0.625  -0.625  -0.623  -0.621  -0.618  -0.618
 -0.616  -0.615  -0.614  -0.610  -0.610  -0.610  -0.608  -0.608
 -0.607  -0.607  -0.602  -0.601  -0.569  -0.567  -0.564  -0.564
 -0.561  -0.560  -0.559  -0.557  -0.557  -0.555  -0.553  -0.552
 -0.539  -0.538  -0.536  -0.532  -0.528  -0.527  -0.526  -0.524
 -0.522  -0.522  -0.520  -0.517  -0.517  -0.516  -0.515  -0.513
 -0.510  -0.507  -0.502  -0.501  -0.491  -0.491  -0.488  -0.487
 -0.486  -0.483  -0.480  -0.479  -0.477  -0.477  -0.475  -0.474
 -0.474  -0.471  -0.470  -0.470  -0.468  -0.467  -0.466  -0.465
 -0.464  -0.463  -0.463  -0.462  -0.461  -0.461  -0.459  -0.458
 -0.455  -0.455  -0.455  -0.451  -0.451  -0.450  -0.445  -0.444
 -0.444  -0.442  -0.440  -0.440  -0.438  -0.436  -0.434  -0.433
 -0.432  -0.431  -0.427  -0.426  -0.426  -0.425  -0.425  -0.424
 -0.423  -0.422  -0.422  -0.420  -0.419  -0.419  -0.418  -0.418
 -0.417  -0.416  -0.415  -0.415  -0.414  -0.413  -0.413  -0.412
 -0.411  -0.411  -0.409  -0.407  -0.406  -0.402  -0.400  -0.397
 -0.396  -0.392  -0.392  -0.391  -0.388  -0.387  -0.386  -0.386
 -0.380  -0.377  -0.373  -0.372  -0.372  -0.370  -0.367  -0.367
 -0.366  -0.364  -0.363  -0.361  -0.360  -0.359  -0.359  -0.358
 -0.356  -0.356  -0.355  -0.354  -0.353  -0.353  -0.352  -0.352
 -0.351  -0.349  -0.347  -0.346  -0.346  -0.345  -0.345  -0.343
 -0.342  -0.341  -0.340  -0.340  -0.339  -0.339  -0.337  -0.336
 -0.333  -0.331  -0.330  -0.329  -0.327  -0.325  -0.325  -0.324
 -0.312  -0.302  -0.299  -0.295  -0.289  -0.284  -0.272  -0.272
 -0.271  -0.270  -0.270  -0.268  -0.266  -0.265  -0.265  -0.264
 -0.262  -0.261  -0.260  -0.259  -0.258  -0.256  -0.255  -0.255
 -0.252  -0.248  -0.243  -0.242  -0.222  -0.220  -0.214  -0.213
 -0.211  -0.208  -0.207  -0.203  -0.198  -0.197

          Ground-State Mulliken Net Atomic Charges

     Atom                 Charge (a.u.)
  ----------------------------------------
      1 O                    -0.481010
      2 C                    -0.081132
      3 H                     0.129912
      4 H                     0.132295
      5 H                     0.124588
      6 O                    -0.482001
      7 C                     0.599017
      8 C                    -0.232078
      9 H                     0.127657
     10 H                     0.128603
     11 C                    -0.203239
     12 H                     0.111322
     13 H                     0.139132
     14 C                    -0.192384
     15 H                     0.113921
     16 H                     0.108664
     17 C                     0.012321
     18 C                     0.086479
     19 C                    -0.116486
     20 H                     0.088452
     21 C                    -0.082541
     22 H                     0.090934
     23 C                    -0.073094
     24 H                     0.095118
     25 C                    -0.097939
     26 H                     0.085487
     27 C                    -0.094923
     28 H                     0.090226
     29 C                    -0.019597
     30 C                     0.016725
     31 C                    -0.009523
     32 C                    -0.000422
     33 C                    -0.003163
     34 C                    -0.017175
     35 C                    -0.021782
     36 C                     0.002656
     37 C                     0.024106
     38 C                    -0.023473
     39 C                    -0.074474
     40 C                    -0.011341
     41 C                    -0.000392
     42 C                     0.005190
     43 C                    -0.016047
     44 C                    -0.014150
     45 C                    -0.070997
     46 C                    -0.009330
     47 C                     0.006302
     48 C                    -0.030529
     49 C                     0.018827
     50 C                    -0.015625
     51 C                     0.030362
     52 C                     0.032261
     53 C                     0.019741
     54 C                    -0.027390
     55 C                     0.008772
     56 C                     0.020885
     57 C                     0.002722
     58 C                    -0.028614
     59 C                     0.006531
     60 C                     0.028976
     61 C                     0.011036
     62 C                    -0.022616
     63 C                    -0.017654
     64 C                     0.013554
     65 C                     0.011708
     66 C                     0.006173
     67 C                    -0.021205
     68 C                    -0.011732
     69 C                    -0.005618
     70 C                     0.034118
     71 C                     0.012678
     72 C                     0.022593
     73 C                    -0.007993
     74 C                     0.008780
     75 C                    -0.014229
     76 C                    -0.018141
     77 C                     0.023356
     78 C                    -0.018504
     79 C                    -0.001076
     80 C                     0.012420
     81 C                     0.010232
     82 C                     0.008278
     83 C                    -0.007012
     84 C                     0.003446
     85 C                     0.033501
     86 C                    -0.002076
     87 C                    -0.002104
     88 C                    -0.012343
     89 O                    -0.452469
     90 C                    -0.099004
     91 H                     0.119995
     92 H                     0.138608
     93 H                     0.124482
     94 O                    -0.472602
     95 C                     0.598753
     96 C                    -0.258064
     97 H                     0.123517
     98 H                     0.132915
     99 C                    -0.205864
    100 H                     0.109858
    101 H                     0.117843
    102 C                    -0.183562
    103 H                     0.110856
    104 H                     0.116500
    105 C                     0.045199
    106 C                     0.082184
    107 C                    -0.110909
    108 H                     0.092760
    109 C                    -0.081100
    110 H                     0.095526
    111 C                    -0.086191
    112 H                     0.089462
    113 C                    -0.098796
    114 H                     0.090342
    115 C                    -0.099415
    116 H                     0.099567
    117 C                    -0.024898
    118 C                    -0.005320
    119 C                    -0.019641
    120 C                     0.029334
    121 C                    -0.032976
    122 C                    -0.025223
    123 C                    -0.020679
    124 C                    -0.043690
    125 C                     0.000951
    126 C                    -0.008938
    127 C                    -0.100883
    128 C                     0.012920
    129 C                     0.007532
    130 C                    -0.012936
    131 C                     0.025409
    132 C                     0.013662
    133 C                    -0.094790
    134 C                     0.048022
    135 C                     0.015074
    136 C                    -0.006913
    137 C                     0.000860
    138 C                    -0.010014
    139 C                     0.053270
    140 C                    -0.006436
    141 C                     0.024386
    142 C                    -0.012396
    143 C                     0.027664
    144 C                     0.040240
    145 C                    -0.008841
    146 C                     0.006869
    147 C                     0.022042
    148 C                     0.045584
    149 C                    -0.022748
    150 C                    -0.015755
    151 C                    -0.019172
    152 C                    -0.002917
    153 C                    -0.004555
    154 C                     0.016212
    155 C                    -0.023135
    156 C                    -0.033278
    157 C                     0.001002
    158 C                     0.014815
    159 C                    -0.023024
    160 C                    -0.009741
    161 C                     0.027743
    162 C                     0.005865
    163 C                     0.008959
    164 C                     0.003053
    165 C                    -0.015499
    166 C                    -0.049908
    167 C                    -0.001581
    168 C                     0.008949
    169 C                    -0.002327
    170 C                     0.004875
    171 C                     0.024646
    172 C                    -0.013846
    173 C                    -0.000724
    174 C                     0.006794
    175 C                     0.014209
    176 C                     0.014542
  ----------------------------------------
  Sum of atomic charges =     0.000000

                    Cartesian Multipole Moments
 -----------------------------------------------------------------
    Charge (ESU x 10^10)
                 0.0000
    Dipole Moment (Debye)
         X      -0.2143      Y      -2.9025      Z      -1.2380
       Tot       3.1628
    Quadrupole Moments (Debye-Ang)
        XX    -757.9985     XY     -10.4724     YY    -800.7278
        XZ      13.0396     YZ       1.0390     ZZ    -808.5523

 Total job time:  866.93s(wall), 7370.05s(cpu)
        *  Thank you very much for using Q-Chem.  Have a nice day.  *
