 Q-Chem 4.4, Q-Chem, Inc., Pleasanton, CA (2016)
 Q-Chem 4.4.2 for Intel X86 Linux

User input:
--------------------------------------------------------------
$comment
SP
$end

$rem
MEM_STATIC 5000
MEM_TOTAL 20000
JOBTYPE SP
EXCHANGE B3LYP
BASIS 6-31g(d,p)
$end

$molecule
0 1
O          10.085000     13.057000      9.012000
C          11.326000     13.725000      9.059000
H          11.725000     13.615000      8.043000
H          11.994000     13.295000      9.817000
H          11.139000     14.763000      9.359000
O           8.853000     14.785000      8.139000
C           8.948000     13.680000      8.584000
C           7.718000     12.846000      8.828000
H           7.348000     12.523000      7.847000
H           7.056000     13.535000      9.368000
C           7.761000     11.554000      9.719000
H           8.522000     10.857000      9.346000
H           8.048000     11.795000     10.751000
C           6.386000     10.929000      9.805000
H           5.624000     11.648000     10.130000
H           6.016000     10.684000      8.802000
C           6.375000      9.658000     10.740000
C           6.289000     10.036000     12.194000
C           5.075000     10.171000     12.901000
H           4.073000     10.158000     12.482000
C           5.173000     10.486000     14.254000
H           4.272000     10.743000     14.803000
C           6.374000     10.710000     14.930000
H           6.413000     11.087000     15.948000
C           7.561000     10.430000     14.258000
H           8.519000     10.407000     14.769000
C           7.525000     10.144000     12.889000
H           8.437000     10.064000     12.306000
C           8.257000      4.559000     11.767000
C           5.932000      4.474000     12.573000
C           4.438000      1.796000      9.138000
C           8.553000      6.268000      7.079000
C           3.105000      4.529000      7.250000
C           7.177000      5.139000     12.438000
C           6.256000      5.323000      5.741000
C           6.552000      1.727000     10.442000
C           3.698000      6.956000     10.365000
C           7.494000      7.145000      6.841000
C           5.540000      8.480000     10.361000
C           3.647000      7.555000      9.086000
C           5.208000      7.260000      6.806000
C           5.064000      4.606000      5.865000
C           5.465000      6.615000     12.125000
C           4.578000      2.589000      6.973000
C           7.063000      8.333000     10.402000
C           7.727000      8.014000      9.116000
C           3.449000      3.152000      7.556000
C           8.551000      2.912000      7.790000
C           6.628000      1.705000      7.992000
C           7.267000      1.653000      9.184000
C           6.964000      2.539000     11.442000
C           8.776000      7.197000      9.343000
C           4.790000      7.484000     11.203000
C           5.867000      3.188000     12.043000
C           6.317000      6.631000      6.224000
C           4.893000      5.342000     12.391000
C           3.251000      6.641000      8.087000
C           9.632000      4.988000      8.569000
C           5.120000      1.797000     10.396000
C           4.823000      8.266000      8.974000
C           8.912000      3.244000     10.119000
C           3.993000      6.546000      6.927000
C           3.140000      5.709000     10.668000
C           6.844000      3.180000      6.106000
C           7.370000      4.466000      5.945000
C           2.689000      4.927000      9.630000
C           9.217000      6.323000      8.327000
C           7.062000      8.036000      7.861000
C           9.149000      4.179000      7.526000
C           7.674000      7.288000     11.341000
C           3.622000      3.587000     11.191000
C           5.646000      8.084000      7.831000
C           2.668000      5.382000      8.285000
C           9.550000      4.516000      9.862000
C           3.415000      2.710000      8.905000
C           8.224000      3.238000     11.300000
C           5.178000      1.760000      7.923000
C           3.700000      4.882000     11.684000
C           3.058000      3.629000      9.883000
C           6.852000      6.500000     12.174000
C           8.738000      6.718000     10.655000
C           7.406000      2.443000      7.122000
C           4.694000      2.703000     11.376000
C           3.919000      5.278000      6.377000
C           8.522000      5.005000      6.576000
C           5.412000      3.296000      6.063000
C           9.021000      5.353000     10.887000
C           8.435000      2.467000      9.070000
O          -5.089000     -8.125000      6.718000
C          -6.544000     -8.204000      6.885000
H          -6.961000     -7.193000      6.813000
H          -6.765000     -8.538000      7.906000
H          -6.967000     -8.874000      6.127000
O          -4.850000     -5.942000      7.045000
C          -4.396000     -7.025000      6.783000
C          -2.916000     -7.294000      6.601000
H          -2.755000     -8.009000      5.785000
H          -2.577000     -7.750000      7.540000
C          -2.169000     -5.982000      6.434000
H          -2.495000     -5.508000      5.500000
H          -2.357000     -5.368000      7.324000
C          -0.665000     -6.190000      6.335000
H          -0.292000     -7.042000      6.917000
H          -0.396000     -6.440000      5.301000
C           0.062000     -4.919000      6.682000
C          -0.514000     -3.718000      5.874000
C          -1.235000     -2.657000      6.515000
H          -1.489000     -2.656000      7.571000
C          -1.667000     -1.525000      5.805000
H          -2.162000     -0.685000      6.283000
C          -1.365000     -1.432000      4.430000
H          -1.736000     -0.628000      3.801000
C          -0.690000     -2.512000      3.774000
H          -0.431000     -2.417000      2.723000
C          -0.272000     -3.610000      4.482000
H           0.228000     -4.446000      4.003000
C           5.065000     -2.748000      7.015000
C           3.839000     -1.451000      8.619000
C           5.664000     -3.307000     12.326000
C           4.646000     -7.762000      7.826000
C           3.074000     -5.489000     12.874000
C           3.872000     -2.147000      7.404000
C           4.364000     -8.062000     10.618000
C           6.770000     -2.510000     10.265000
C           0.752000     -3.622000     10.127000
C           3.393000     -7.887000      8.381000
C           0.691000     -4.658000      8.013000
C           0.715000     -4.995000     10.328000
C           2.114000     -7.394000     10.113000
C           4.294000     -7.390000     11.822000
C           1.788000     -2.417000      8.249000
C           5.517000     -5.576000     12.736000
C           1.531000     -4.954000      6.834000
C           2.365000     -6.206000      6.918000
C           4.300000     -4.888000     13.096000
C           7.289000     -5.860000      9.141000
C           7.176000     -4.792000     11.143000
C           7.358000     -3.786000     10.163000
C           6.081000     -2.093000      9.073000
C           3.713000     -5.942000      6.415000
C           0.846000     -3.382000      8.785000
C           4.922000     -1.452000      9.482000
C           3.234000     -8.051000      9.756000
C           2.548000     -1.645000      9.157000
C           1.259000     -5.559000     11.528000
C           6.034000     -6.154000      7.018000
C           5.855000     -2.319000     11.362000
C           0.691000     -5.700000      9.077000
C           6.831000     -3.953000      7.794000
C           2.003000     -6.776000     11.413000
C           1.503000     -2.825000     11.048000
C           6.369000     -7.097000     11.035000
C           5.645000     -7.891000     10.072000
C           2.035000     -3.367000     12.223000
C           4.810000     -6.792000      6.798000
C           2.274000     -7.161000      7.929000
C           6.586000     -6.663000      8.222000
C           2.557000     -3.932000      6.482000
C           3.510000     -1.814000     11.357000
C           1.531000     -6.822000      9.014000
C           1.952000     -4.756000     12.443000
C           6.079000     -4.745000      6.866000
C           4.393000     -3.542000     12.811000
C           6.158000     -2.720000      7.865000
C           6.336000     -4.525000     12.243000
C           2.412000     -1.819000     10.491000
C           3.307000     -2.800000     12.389000
C           2.645000     -2.746000      7.205000
C           3.751000     -4.607000      6.147000
C           7.093000     -5.976000     10.491000
C           4.761000     -1.570000     10.864000
C           3.093000     -6.734000     12.246000
C           5.776000     -7.687000      8.669000
C           5.529000     -6.841000     12.105000
C           5.009000     -4.022000      6.337000
C           7.430000     -4.481000      8.968000
$end

--------------------------------------------------------------

             Standard Nuclear Orientation (Angstroms)
    I     Atom           X                Y                Z
 ----------------------------------------------------------------
    1      O      13.3635002327     0.0560585089     1.5520985060
    2      C      14.4313802907     0.8374440443     2.0395231942
    3      H      14.3835161076     0.7028796478     3.1272540631
    4      H      14.3349436366     1.8911592332     1.7461424304
    5      H      15.3562926067     0.4680284575     1.5807396592
    6      O      14.4564935985    -1.9616480506     1.5393414614
    7      C      13.5008079708    -1.2810229710     1.3124285221
    8      C      12.3075544132    -1.8540759090     0.5942723569
    9      H      11.7904350758    -2.5124285119     1.3033206212
   10      H      12.7591988643    -2.3646249581    -0.2659148077
   11      C      11.1978901378    -0.9330016700    -0.0264219657
   12      H      10.7885187269    -0.2593850972     0.7369355920
   13      H      11.6135429052    -0.2875209573    -0.8113177718
   14      C      10.1337350472    -1.7723019687    -0.6985789056
   15      H      10.5590705505    -2.4777373378    -1.4229273367
   16      H       9.6872792745    -2.4687652838     0.0215253185
   17      C       9.0281586516    -0.8805124499    -1.3857464890
   18      C       9.4747530282    -0.3772175949    -2.7317196505
   19      C       9.2286631947    -1.0538303690    -3.9455997713
   20      H       8.8231965349    -2.0547057334    -4.0621299935
   21      C       9.6735139488    -0.4300332372    -5.1085369772
   22      H       9.6388478310    -0.9755886936    -6.0468431661
   23      C      10.3684115390     0.7805737920    -5.1417176942
   24      H      10.8209728456     1.1728575361    -6.0479603372
   25      C      10.4730055945     1.5035558654    -3.9562599745
   26      H      10.8372435218     2.5264846425    -3.9372481536
   27      C      10.0758526214     0.9114368873    -2.7525500295
   28      H      10.2761672276     1.3870395776    -1.7977154158
   29      C       5.0441083879     2.9182660183    -0.8443781799
   30      C       4.2058677694     1.4775437331    -2.6566027694
   31      C       0.8852344583    -0.4423140173    -0.1089596172
   32      C       6.3345725619     0.2804997686     3.2006845425
   33      C       2.7895081131    -3.3866971057     0.6087256040
   34      C       5.2566618404     2.1749240094    -2.0085537198
   35      C       4.5210534530    -1.8750050021     3.3569715390
   36      C       1.6872525527     1.9069232008    -0.2186157590
   37      C       5.5278165152    -2.2551060839    -2.0682824001
   38      C       6.7523945154    -0.9913490162     2.8068832171
   39      C       7.6018702065    -1.3184172875    -1.3358403310
   40      C       5.9564117712    -3.1269438379    -1.0419062326
   41      C       6.0414728422    -2.8790629205     1.7245835406
   42      C       3.4398260369    -2.5169911757     2.7494108198
   43      C       5.9924859311     0.1331429615    -2.7136651013
   44      C       1.4858627664    -1.6591573363     1.7603215207
   45      C       8.0115559979    -0.0274300379    -0.6228687512
   46      C       7.8403992791    -0.0072335344     0.8491198625
   47      C       1.6575327939    -2.4784270149     0.6508957254
   48      C       3.2731667251     1.8043963844     2.9290332827
   49      C       1.4822493223     0.7873526350     1.9523967752
   50      C       1.7646193212     1.8953371988     1.2281548336
   51      C       2.6759045217     2.4360800849    -0.9746900122
   52      C       7.4738808714     1.2301653111     1.2414556295
   53      C       6.4806656981    -1.1601572409    -2.3264634722
   54      C       2.9405426608     1.6209044441    -2.0932901776
   55      C       5.8013596317    -2.0521014906     2.8303531547
   56      C       4.6272835174     0.2520321766    -3.0885740557
   57      C       4.8786584030    -3.6069203212    -0.2684185127
   58      C       5.6571126978     2.3173165900     2.5563504921
   59      C       1.2379397768     0.7134598201    -0.8754286610
   60      C       7.0273904217    -2.4898375895    -0.4518711840
   61      C       3.9118891978     3.1061071622     1.0416094686
   62      C       4.9545784670    -3.5419743329     1.1082467198
   63      C       4.1949886204    -2.1162113329    -2.4713457336
   64      C       2.7685377524    -0.4732741247     3.5447407228
   65      C       4.1385064361    -0.5826456075     3.8047728064
   66      C       3.2170612351    -2.7055765244    -1.7040936889
   67      C       6.7302342305     1.3980143314     2.4286495395
   68      C       7.5154100832    -1.1560331958     1.6187791121
   69      C       4.6422282011     1.7094048324     3.3153444009
   70      C       7.3382968568     1.2847923937    -1.0374304705
   71      C       2.4378716932    -0.7301130766    -2.4743000405
   72      C       7.0527160999    -2.3211868798     0.9580286522
   73      C       3.5166853848    -3.5347411314    -0.5908989964
   74      C       5.3004655386     3.0447772040     1.4405723516
   75      C       1.3507424550    -1.6959317875    -0.4936137359
   76      C       3.7630713637     3.1301136510    -0.3168521395
   77      C       1.0105788323    -0.4263993481     1.3084875639
   78      C       3.7130076162    -0.8841753288    -3.0000863091
   79      C       2.1629137210    -1.8307866159    -1.6119544756
   80      C       6.3841530395     1.3078637153    -2.0764657394
   81      C       7.1280473139     2.0045314418     0.1310569417
   82      C       2.3709972564     0.7286998802     3.0076289600
   83      C       2.0135935918     0.5289037868    -2.0273888296
   84      C       3.7010630945    -3.4218513770     1.6827636355
   85      C       5.1050966061     0.4560847889     3.7544875532
   86      C       2.3622782062    -1.6814660781     2.8805461843
   87      C       5.9790991531     2.8238529525     0.2070068314
   88      C       2.9283950349     2.4888314536     1.8053953883
   89      O     -11.9494332244    -5.7533486295    -1.5617455006
   90      C     -12.5271617148    -6.8095094189    -2.3995457025
   91      H     -11.7414879921    -7.5339813731    -2.6425502067
   92      H     -12.8284705373    -6.3737992552    -3.3598621330
   93      H     -13.3667276531    -7.2800699917    -1.8740984811
   94      O      -9.8051329194    -6.1714216051    -1.9576371386
   95      C     -10.6734499299    -5.5539727299    -1.3986814554
   96      C     -10.4118520650    -4.3626387764    -0.4996959336
   97      H     -11.0901150086    -4.3779170788     0.3621207248
   98      H     -10.6341197833    -3.4754113040    -1.1063280079
   99      C      -8.9394344726    -4.3071239841    -0.1307155257
  100      H      -8.6953552741    -5.1878508746     0.4759585954
  101      H      -8.3583650544    -4.2420426526    -1.0594580904
  102      C      -8.6053632718    -3.0777832123     0.7012692696
  103      H      -9.2147496575    -2.1971470521     0.4627631138
  104      H      -8.8313658807    -3.2759071825     1.7565828311
  105      C      -7.1338188942    -2.7745859283     0.6175581480
  106      C      -6.2916399929    -4.0501385485     0.9187909675
  107      C      -5.5062288684    -4.6898195106    -0.0962856957
  108      H      -5.5046252093    -4.3814148454    -1.1376967532
  109      C      -4.6684447343    -5.7782772228     0.1961618269
  110      H      -4.0221495082    -6.2383097298    -0.5453107439
  111      C      -4.5930440034    -6.2360245801     1.5285506916
  112      H      -4.0316591919    -7.1209656216     1.8139003833
  113      C      -5.4138241144    -5.6337634040     2.5365003358
  114      H      -5.3239041321    -5.9695141948     3.5660112892
  115      C      -6.2251411277    -4.5694463809     2.2355252900
  116      H      -6.8660191718    -4.1073028541     2.9798610296
  117      C      -3.3019550220     0.6287601584     2.5118109502
  118      C      -2.3938246915    -0.0312567659     0.3910144105
  119      C      -3.1497148875     3.8806519448    -1.7637037266
  120      C      -8.0458177131     2.4505911011     2.1242844555
  121      C      -6.0555574702     2.8403922049    -3.2615243292
  122      C      -3.1345047238    -0.3492027977     1.5364546799
  123      C      -8.1842638074     3.6843697949    -0.4101604174
  124      C      -2.1920348027     3.4862635936     0.4798364856
  125      C      -5.3836744036    -1.0077439341    -2.1827271284
  126      C      -8.5608189926     1.7605103937     1.0508687394
  127      C      -6.5518210200    -1.7173158718    -0.2649278303
  128      C      -6.6568122096    -0.4568491556    -2.2330666739
  129      C      -8.4084912614     1.4029931776    -1.1234568347
  130      C      -7.4800505751     3.9758007980    -1.5613561843
  131      C      -4.0555746941    -1.5129696666    -0.1744683999
  132      C      -5.2775654205     4.7600584303    -1.9559700586
  133      C      -6.6295999650    -1.5124059772     1.1963111545
  134      C      -7.4897942248    -0.3634569418     1.6546755831
  135      C      -5.0402386606     3.7182081360    -2.9266692774
  136      C      -5.2206445160     4.5352795838     2.0553762841
  137      C      -4.0944277823     5.0399648192     0.1479367223
  138      C      -3.1783137581     4.3564935965     0.9840959071
  139      C      -2.1526663253     2.2098343713     1.1421449964
  140      C      -6.8071242939     0.3790012178     2.7141691634
  141      C      -5.2428132796    -1.6677390263    -0.9944659526
  142      C      -1.9341563172     1.2547201377     0.1616078084
  143      C      -8.6512966899     2.3577292502    -0.2052942372
  144      C      -2.9880312977    -0.7357312813    -0.6787496599
  145      C      -6.8839324152     0.7590825145    -2.9569165104
  146      C      -6.1249028521     2.6043228754     3.3290768186
  147      C      -2.2457561144     3.2184786246    -0.9352678325
  148      C      -7.4292932562    -0.8347244729    -1.0828122337
  149      C      -3.7261643573     2.8444273341     2.8092792785
  150      C      -7.7608373602     1.7271520494    -2.3723405163
  151      C      -4.2949586271    -0.2402022204    -2.7052485880
  152      C      -6.5357817928     5.1523979662     0.0923725028
  153      C      -7.6157099485     4.3850498551     0.6641356138
  154      C      -4.5080491660     0.9462576770    -3.4154023277
  155      C      -7.1737573062     1.7420952993     2.9972817897
  156      C      -8.3233463813     0.3899645811     0.8300703374
  157      C      -6.2976589554     3.8092497912     2.5998940869
  158      C      -5.3434969911    -1.2212023772     1.8907199706
  159      C      -2.6122984921     1.1608677638    -2.1125355298
  160      C      -8.1791065636     0.2020029957    -0.5071133887
  161      C      -5.8108281612     1.4751659736    -3.5027688163
  162      C      -4.8111897204     2.0709311582     3.3368924204
  163      C      -3.7795127892     3.1809117341    -2.7734607471
  164      C      -2.8128660163     1.9062364045     2.2955255244
  165      C      -4.0504516450     4.8069454526    -1.2415441427
  166      C      -3.0831548465    -0.1364628642    -1.8871191708
  167      C      -3.5128005005     1.8457071729    -3.0061350579
  168      C      -4.1463326761    -1.2173688531     1.1808947056
  169      C      -5.5747690408    -0.1902164972     2.8272387127
  170      C      -5.2818162568     5.0738632910     0.7981739899
  171      C      -1.9819482038     1.8375489779    -1.1063809450
  172      C      -7.2612619055     2.9890565760    -2.5767282138
  173      C      -7.5004196786     3.7377613079     1.9270337452
  174      C      -6.5046303889     4.9086996631    -1.2698597561
  175      C      -4.5656923085     0.7033303821     3.2070111747
  176      C      -3.9024336941     4.0791202890     2.1308078878
 ----------------------------------------------------------------

    9   -5804.2588058624      8.36E-06 Convergence criterion met
 Total energy in the final basis set = -5804.2588058624

                    Orbital Energies (a.u.)
 --------------------------------------------------------------

 Alpha MOs
 -- Occupied --
-19.192 -19.190 -19.137 -19.124 -10.317 -10.308 -10.253 -10.246
-10.240 -10.239 -10.239 -10.234 -10.233 -10.232 -10.232 -10.230
-10.229 -10.228 -10.228 -10.224 -10.223 -10.223 -10.222 -10.222
-10.222 -10.221 -10.220 -10.218 -10.218 -10.218 -10.218 -10.217
-10.217 -10.217 -10.217 -10.217 -10.217 -10.217 -10.217 -10.217
-10.216 -10.216 -10.216 -10.216 -10.216 -10.216 -10.216 -10.215
-10.215 -10.215 -10.215 -10.215 -10.215 -10.215 -10.215 -10.215
-10.215 -10.215 -10.214 -10.214 -10.214 -10.214 -10.214 -10.214
-10.213 -10.213 -10.213 -10.213 -10.213 -10.213 -10.213 -10.213
-10.213 -10.212 -10.212 -10.212 -10.212 -10.212 -10.212 -10.212
-10.212 -10.212 -10.211 -10.211 -10.211 -10.211 -10.211 -10.211
-10.211 -10.210 -10.210 -10.210 -10.210 -10.210 -10.210 -10.209
-10.209 -10.209 -10.209 -10.209 -10.209 -10.209 -10.209 -10.209
-10.209 -10.209 -10.208 -10.208 -10.208 -10.208 -10.208 -10.208
-10.208 -10.208 -10.208 -10.207 -10.207 -10.207 -10.207 -10.207
-10.207 -10.206 -10.206 -10.206 -10.206 -10.206 -10.205 -10.205
-10.205 -10.205 -10.205 -10.203 -10.203 -10.202 -10.200 -10.198
-10.198 -10.197 -10.197 -10.197 -10.197 -10.197 -10.196 -10.196
-10.195 -10.195 -10.194 -10.185  -1.108  -1.100  -1.026  -1.011
 -0.983  -0.981  -0.968  -0.964  -0.962  -0.961  -0.959  -0.959
 -0.938  -0.931  -0.927  -0.925  -0.924  -0.924  -0.922  -0.921
 -0.919  -0.919  -0.899  -0.894  -0.890  -0.887  -0.885  -0.885
 -0.874  -0.874  -0.853  -0.848  -0.841  -0.839  -0.838  -0.837
 -0.834  -0.833  -0.821  -0.818  -0.808  -0.806  -0.800  -0.797
 -0.794  -0.792  -0.791  -0.791  -0.790  -0.788  -0.784  -0.783
 -0.770  -0.769  -0.767  -0.766  -0.765  -0.764  -0.762  -0.760
 -0.752  -0.749  -0.745  -0.744  -0.732  -0.730  -0.716  -0.716
 -0.714  -0.713  -0.712  -0.711  -0.710  -0.708  -0.707  -0.707
 -0.707  -0.705  -0.705  -0.703  -0.702  -0.701  -0.673  -0.671
 -0.658  -0.657  -0.655  -0.654  -0.645  -0.644  -0.630  -0.629
 -0.629  -0.624  -0.622  -0.621  -0.620  -0.618  -0.617  -0.615
 -0.614  -0.612  -0.612  -0.609  -0.608  -0.608  -0.606  -0.605
 -0.604  -0.602  -0.601  -0.600  -0.567  -0.563  -0.563  -0.562
 -0.561  -0.560  -0.558  -0.557  -0.556  -0.555  -0.552  -0.550
 -0.535  -0.534  -0.533  -0.530  -0.528  -0.527  -0.525  -0.523
 -0.522  -0.519  -0.516  -0.516  -0.515  -0.515  -0.512  -0.510
 -0.506  -0.506  -0.501  -0.501  -0.497  -0.496  -0.488  -0.486
 -0.483  -0.482  -0.480  -0.480  -0.479  -0.479  -0.476  -0.474
 -0.474  -0.473  -0.470  -0.469  -0.468  -0.466  -0.466  -0.465
 -0.464  -0.464  -0.463  -0.462  -0.460  -0.460  -0.460  -0.458
 -0.457  -0.455  -0.451  -0.451  -0.448  -0.447  -0.444  -0.443
 -0.442  -0.441  -0.438  -0.437  -0.436  -0.435  -0.432  -0.431
 -0.430  -0.428  -0.427  -0.426  -0.426  -0.425  -0.424  -0.424
 -0.422  -0.422  -0.421  -0.419  -0.419  -0.418  -0.417  -0.416
 -0.416  -0.415  -0.414  -0.414  -0.414  -0.414  -0.413  -0.412
 -0.411  -0.410  -0.409  -0.406  -0.404  -0.397  -0.396  -0.395
 -0.392  -0.392  -0.391  -0.389  -0.388  -0.386  -0.385  -0.381
 -0.378  -0.377  -0.371  -0.370  -0.369  -0.367  -0.365  -0.363
 -0.362  -0.362  -0.361  -0.360  -0.359  -0.357  -0.357  -0.356
 -0.355  -0.354  -0.353  -0.353  -0.351  -0.349  -0.349  -0.348
 -0.346  -0.346  -0.346  -0.345  -0.344  -0.343  -0.343  -0.342
 -0.341  -0.340  -0.339  -0.338  -0.336  -0.335  -0.333  -0.331
 -0.330  -0.329  -0.329  -0.328  -0.326  -0.325  -0.324  -0.322
 -0.314  -0.309  -0.300  -0.299  -0.285  -0.284  -0.273  -0.273
 -0.271  -0.270  -0.267  -0.266  -0.265  -0.264  -0.262  -0.261
 -0.260  -0.259  -0.258  -0.257  -0.255  -0.255  -0.254  -0.252
 -0.247  -0.246  -0.245  -0.240  -0.221  -0.215  -0.211  -0.209
 -0.206  -0.206  -0.204  -0.203  -0.201  -0.197

          Ground-State Mulliken Net Atomic Charges

     Atom                 Charge (a.u.)
  ----------------------------------------
      1 O                    -0.464944
      2 C                    -0.083865
      3 H                     0.126467
      4 H                     0.123405
      5 H                     0.129296
      6 O                    -0.453747
      7 C                     0.590031
      8 C                    -0.264872
      9 H                     0.137006
     10 H                     0.139231
     11 C                    -0.179210
     12 H                     0.114049
     13 H                     0.107411
     14 C                    -0.183192
     15 H                     0.111947
     16 H                     0.104604
     17 C                     0.006541
     18 C                     0.069362
     19 C                    -0.097220
     20 H                     0.098532
     21 C                    -0.098041
     22 H                     0.083998
     23 C                    -0.074931
     24 H                     0.092996
     25 C                    -0.095666
     26 H                     0.090636
     27 C                    -0.094531
     28 H                     0.094176
     29 C                     0.016237
     30 C                    -0.001556
     31 C                    -0.003048
     32 C                     0.016565
     33 C                    -0.021062
     34 C                    -0.026027
     35 C                    -0.012098
     36 C                    -0.011427
     37 C                     0.002152
     38 C                    -0.033565
     39 C                    -0.099867
     40 C                    -0.014335
     41 C                    -0.008249
     42 C                     0.026461
     43 C                     0.004292
     44 C                     0.002650
     45 C                    -0.094562
     46 C                     0.075561
     47 C                    -0.007514
     48 C                     0.021182
     49 C                     0.032283
     50 C                    -0.012584
     51 C                     0.014172
     52 C                     0.009880
     53 C                     0.032563
     54 C                     0.013414
     55 C                     0.003372
     56 C                    -0.001485
     57 C                     0.016424
     58 C                    -0.005716
     59 C                    -0.003731
     60 C                     0.033970
     61 C                     0.012969
     62 C                     0.002091
     63 C                     0.002175
     64 C                    -0.032977
     65 C                     0.006232
     66 C                     0.000947
     67 C                     0.000234
     68 C                    -0.030930
     69 C                    -0.015471
     70 C                     0.025737
     71 C                    -0.011173
     72 C                     0.004308
     73 C                    -0.021937
     74 C                    -0.021374
     75 C                     0.004396
     76 C                    -0.024229
     77 C                    -0.005712
     78 C                    -0.013199
     79 C                     0.018290
     80 C                     0.016577
     81 C                    -0.008594
     82 C                     0.003755
     83 C                    -0.013390
     84 C                    -0.002821
     85 C                     0.005071
     86 C                    -0.005775
     87 C                     0.011863
     88 C                    -0.003675
     89 O                    -0.455727
     90 C                    -0.099716
     91 H                     0.146748
     92 H                     0.132334
     93 H                     0.133062
     94 O                    -0.478599
     95 C                     0.596581
     96 C                    -0.279380
     97 H                     0.121835
     98 H                     0.135598
     99 C                    -0.158550
    100 H                     0.122467
    101 H                     0.126274
    102 C                    -0.186775
    103 H                     0.101066
    104 H                     0.102776
    105 C                     0.010141
    106 C                     0.076672
    107 C                    -0.112594
    108 H                     0.094679
    109 C                    -0.084665
    110 H                     0.096253
    111 C                    -0.090192
    112 H                     0.089911
    113 C                    -0.089724
    114 H                     0.089914
    115 C                    -0.097796
    116 H                     0.085659
    117 C                    -0.028172
    118 C                    -0.015094
    119 C                     0.029192
    120 C                    -0.014360
    121 C                    -0.000405
    122 C                     0.003820
    123 C                     0.003129
    124 C                    -0.047235
    125 C                     0.015075
    126 C                    -0.000709
    127 C                    -0.081146
    128 C                    -0.008020
    129 C                     0.017715
    130 C                     0.025423
    131 C                    -0.004065
    132 C                    -0.000234
    133 C                    -0.086537
    134 C                     0.014882
    135 C                    -0.022363
    136 C                     0.008344
    137 C                    -0.000755
    138 C                     0.016536
    139 C                     0.019838
    140 C                     0.036272
    141 C                     0.023471
    142 C                     0.021885
    143 C                    -0.013013
    144 C                    -0.016940
    145 C                    -0.019698
    146 C                    -0.035042
    147 C                    -0.018815
    148 C                     0.016987
    149 C                    -0.012218
    150 C                    -0.038717
    151 C                    -0.024918
    152 C                    -0.032131
    153 C                    -0.026553
    154 C                    -0.016139
    155 C                    -0.012906
    156 C                    -0.035402
    157 C                     0.014918
    158 C                     0.037429
    159 C                    -0.010927
    160 C                     0.046612
    161 C                     0.010700
    162 C                     0.023056
    163 C                     0.026175
    164 C                     0.015119
    165 C                    -0.024838
    166 C                     0.024344
    167 C                     0.004496
    168 C                     0.038200
    169 C                     0.005307
    170 C                     0.025954
    171 C                     0.009391
    172 C                     0.018426
    173 C                     0.013504
    174 C                     0.000310
    175 C                    -0.032030
    176 C                    -0.012586
  ----------------------------------------
  Sum of atomic charges =     0.000000

                    Cartesian Multipole Moments
 -----------------------------------------------------------------
    Charge (ESU x 10^10)
                 0.0000
    Dipole Moment (Debye)
         X      -0.9380      Y      -1.1073      Z      -0.7966
       Tot       1.6555
    Quadrupole Moments (Debye-Ang)
        XX    -748.1505     XY      59.8767     YY    -800.4126
        XZ     -18.1747     YZ       1.0312     ZZ    -798.9579

 Total job time:  842.91s(wall), 7137.60s(cpu)
        *  Thank you very much for using Q-Chem.  Have a nice day.  *
