 Q-Chem 4.4, Q-Chem, Inc., Pleasanton, CA (2016)
 Q-Chem 4.4.2 for Intel X86 Linux

User input:
--------------------------------------------------------------
$comment
SP
$end

$rem
MEM_STATIC 5000
MEM_TOTAL 20000
JOBTYPE SP
EXCHANGE B3LYP
BASIS 6-31g(d,p)
$end

$molecule
0 1
O         -20.096000    -21.552000      5.591000
C         -20.520000    -22.911000      5.735000
H         -19.627000    -23.518000      5.542000
H         -21.306000    -23.181000      5.019000
H         -20.725000    -23.085000      6.798000
O         -22.214000    -20.843000      5.632000
C         -21.008000    -20.623000      5.540000
C         -20.375000    -19.309000      5.521000
H         -19.840000    -19.204000      4.569000
H         -19.594000    -19.356000      6.290000
C         -21.320000    -18.134000      5.863000
H         -22.197000    -18.188000      5.206000
H         -21.726000    -18.173000      6.882000
C         -20.602000    -16.748000      5.662000
H         -19.751000    -16.680000      6.352000
H         -20.148000    -16.698000      4.665000
C         -21.511000    -15.477000      5.724000
C         -22.052000    -15.164000      7.094000
C         -21.297000    -14.285000      7.920000
H         -20.356000    -13.869000      7.573000
C         -21.712000    -14.093000      9.287000
H         -21.216000    -13.436000      9.995000
C         -22.901000    -14.687000      9.760000
H         -23.099000    -14.603000     10.825000
C         -23.641000    -15.494000      8.876000
H         -24.483000    -16.060000      9.262000
C         -23.188000    -15.752000      7.606000
H         -23.742000    -16.487000      7.031000
C         -25.943000    -13.143000      3.520000
C         -24.462000    -11.226000      4.069000
C         -23.351000    -10.167000     -0.213000
C         -23.469000    -16.649000      0.722000
C         -20.297000    -11.834000     -0.038000
C         -25.012000    -12.550000      4.419000
C         -21.579000    -15.147000     -0.877000
C         -25.495000    -10.848000      0.760000
C         -20.573000    -12.216000      3.993000
C         -22.069000    -16.546000      1.063000
C         -21.310000    -14.388000      4.665000
C         -19.928000    -13.198000      3.195000
C         -20.261000    -15.151000      1.158000
C         -21.128000    -13.859000     -1.146000
C         -22.848000    -12.408000      4.984000
C         -22.229000    -11.732000     -1.484000
C         -22.460000    -15.277000      4.581000
C         -22.739000    -16.248000      3.404000
C         -21.311000    -11.057000     -0.631000
C         -25.396000    -14.009000     -0.649000
C         -24.604000    -11.988000     -1.223000
C         -25.625000    -11.813000     -0.278000
C         -25.886000    -11.196000      2.044000
C         -24.096000    -16.188000      3.047000
C         -21.531000    -12.910000      4.818000
C         -24.903000    -10.576000      2.857000
C         -21.155000    -15.778000      0.309000
C         -23.150000    -11.154000      4.488000
C         -19.589000    -12.900000      1.850000
C         -25.505000    -15.625000      1.141000
C         -24.356000    -10.050000      0.757000
C         -20.438000    -14.477000      3.447000
C         -26.516000    -13.422000      1.333000
C         -19.721000    -13.885000      0.803000
C         -20.940000    -10.975000      3.394000
C         -23.251000    -13.982000     -1.735000
C         -22.956000    -15.233000     -1.200000
C         -20.599000    -10.679000      2.084000
C         -24.497000    -16.402000      1.688000
C         -21.692000    -16.364000      2.387000
C         -25.056000    -15.278000     -0.118000
C         -23.865000    -14.619000      4.681000
C         -22.661000     -9.867000      2.442000
C         -20.627000    -15.483000      2.430000
C         -19.936000    -11.670000      1.280000
C         -26.203000    -14.703000      1.876000
C         -22.006000    -10.151000      0.173000
C         -26.362000    -12.475000      2.394000
C         -23.465000    -11.167000     -1.207000
C         -22.243000    -10.460000      3.618000
C         -21.646000     -9.951000      1.504000
C         -23.985000    -13.258000      4.934000
C         -24.732000    -15.238000      3.767000
C         -24.530000    -13.374000     -1.539000
C         -23.978000     -9.898000      2.118000
C         -20.168000    -13.203000     -0.306000
C         -23.853000    -15.926000     -0.401000
C         -22.153000    -13.152000     -1.730000
C         -25.823000    -14.469000      3.195000
C         -26.134000    -13.109000      0.049000
O         -21.885000    -24.622000     -9.404000
C         -23.163000    -25.259000     -9.104000
H         -22.972000    -25.852000     -8.202000
H         -23.312000    -25.984000     -9.914000
H         -23.922000    -24.504000     -8.864000
O         -21.923000    -23.632000     -7.368000
C         -21.337000    -23.899000     -8.387000
C         -19.884000    -23.492000     -8.811000
H         -19.862000    -23.231000     -9.876000
H         -19.281000    -24.406000     -8.744000
C         -19.231000    -22.402000     -7.946000
H         -18.584000    -21.810000     -8.605000
H         -19.973000    -21.768000     -7.446000
C         -18.307000    -23.074000     -6.805000
H         -18.942000    -23.792000     -6.272000
H         -17.387000    -23.631000     -7.022000
C         -17.968000    -22.007000     -5.820000
C         -17.107000    -20.890000     -6.385000
C         -17.714000    -19.724000     -6.952000
H         -18.796000    -19.631000     -6.948000
C         -16.911000    -18.692000     -7.465000
H         -17.344000    -17.789000     -7.885000
C         -15.515000    -18.803000     -7.340000
H         -14.835000    -18.085000     -7.788000
C         -14.888000    -19.929000     -6.730000
H         -13.823000    -20.070000     -6.572000
C         -15.651000    -20.967000     -6.316000
H         -15.147000    -21.849000     -5.933000
C         -16.162000    -20.869000     -0.691000
C         -17.747000    -19.094000     -1.182000
C         -21.026000    -20.423000      1.727000
C         -18.402000    -25.403000     -1.384000
C         -22.966000    -22.012000     -0.809000
C         -16.809000    -20.057000     -1.593000
C         -21.136000    -25.132000     -0.767000
C         -18.585000    -20.368000      1.932000
C         -20.690000    -20.335000     -3.680000
C         -19.355000    -25.154000     -2.404000
C         -19.042000    -21.739000     -4.735000
C         -21.277000    -21.595000     -3.903000
C         -21.220000    -24.214000     -2.967000
C         -22.077000    -24.204000     -0.330000
C         -18.313000    -19.773000     -3.276000
C         -21.943000    -22.428000      1.383000
C         -17.775000    -22.390000     -4.374000
C         -17.814000    -23.724000     -3.720000
C         -22.555000    -21.548000      0.503000
C         -18.150000    -23.813000      1.825000
C         -19.800000    -22.353000      2.539000
C         -18.577000    -21.698000      2.376000
C         -17.570000    -19.971000      1.128000
C         -16.946000    -23.853000     -2.651000
C         -19.317000    -20.480000     -4.062000
C         -18.150000    -19.069000      0.189000
C         -20.697000    -25.183000     -2.104000
C         -18.668000    -18.946000     -2.146000
C         -22.245000    -22.012000     -2.944000
C         -16.833000    -24.276000     -0.209000
C         -19.793000    -19.718000      1.630000
C         -20.306000    -22.481000     -4.514000
C         -16.588000    -22.172000      1.103000
C         -22.208000    -23.323000     -2.534000
C         -21.031000    -19.553000     -2.622000
C         -20.493000    -24.419000      1.397000
C         -20.138000    -25.227000      0.292000
C         -22.081000    -19.909000     -1.794000
C         -17.210000    -24.739000     -1.529000
C         -19.055000    -24.336000     -3.505000
C         -17.825000    -24.676000      0.714000
C         -16.856000    -21.728000     -3.360000
C         -20.454000    -18.889000     -0.500000
C         -20.216000    -23.768000     -3.875000
C         -22.690000    -21.228000     -1.899000
C         -16.184000    -23.026000      0.009000
C         -21.959000    -20.341000      0.655000
C         -16.609000    -20.871000      0.640000
C         -20.989000    -21.773000      2.158000
C         -20.018000    -18.888000     -1.807000
C         -21.694000    -19.587000     -0.493000
C         -17.140000    -20.464000     -2.865000
C         -16.428000    -22.594000     -2.370000
C         -19.543000    -23.694000      2.138000
C         -19.534000    -18.955000      0.501000
C         -22.644000    -23.305000     -1.240000
C         -18.792000    -25.389000     -0.028000
C         -21.679000    -23.749000      0.977000
C         -15.939000    -22.210000     -1.102000
C         -17.541000    -22.606000      2.034000
$end

--------------------------------------------------------------

             Standard Nuclear Orientation (Angstroms)
    I     Atom           X                Y                Z
 ----------------------------------------------------------------
    1      O      -0.0350900713     6.4743109850    -0.0395281927
    2      C       0.8045203288     7.2621039959     0.8100773323
    3      H       1.6637749307     7.5460328265     0.1902281989
    4      H       1.1557394193     6.7017940206     1.6853200884
    5      H       0.2930282277     8.2145235730     0.9932242126
    6      O      -1.2790689494     5.8428468543     1.7051940208
    7      C      -1.0164370684     5.8123041820     0.5046143107
    8      C      -1.8231956029     5.1812314427    -0.5339105395
    9      H      -1.2141971002     4.4030690636    -1.0105006521
   10      H      -1.9593768242     5.9542475333    -1.3003515344
   11      C      -3.2205004651     4.7115676643    -0.0674675555
   12      H      -3.0977770213     4.0729132370     0.8161350015
   13      H      -3.8763252846     5.5279507556     0.2613643993
   14      C      -3.9565487148     3.9016777969    -1.1984991098
   15      H      -4.1164153879     4.5568828626    -2.0645672183
   16      H      -3.3060408684     3.1043043417    -1.5775243263
   17      C      -5.2637049297     3.1519317431    -0.7804207862
   18      C      -6.4270232329     4.0551977730    -0.4668111488
   19      C      -7.3200683943     4.3781888309    -1.5265701385
   20      H      -7.1539713457     3.9942344843    -2.5285366200
   21      C      -8.3480063842     5.3606088502    -1.2899852810
   22      H      -9.0867349016     5.6684004647    -2.0237928168
   23      C      -8.5238023905     5.9110715385    -0.0029838852
   24      H      -9.2340590921     6.7284508826     0.0859623099
   25      C      -7.6500665299     5.5032805961     1.0220025504
   26      H      -7.6898495331     6.0132603895     1.9794230030
   27      C      -6.6119707720     4.6422080337     0.7659083495
   28      H      -5.9039415047     4.4791932285     1.5720638742
   29      C      -7.2736075638    -0.5346977348     2.7291162907
   30      C      -8.5889829636    -0.8982755781     0.6537248314
   31      C      -6.7154934071    -4.8871958441    -0.4731638026
   32      C      -2.2420818999    -0.6641002211     1.7759528787
   33      C      -4.5503017942    -3.4372523900    -2.7853141566
   34      C      -7.9291202721     0.0257150907     1.5964859211
   35      C      -1.9316053193    -2.5439087633    -0.4046041918
   36      C      -7.4003908696    -4.0024963326     1.7075352230
   37      C      -6.5460471171     0.0942110275    -2.6555923890
   38      C      -2.0639862960    -0.2444218898     0.4051713300
   39      C      -5.4645916589     1.7140969688    -1.2703990345
   40      C      -5.1441568351     0.0395191556    -2.8766476676
   41      C      -2.6228967140    -0.6641087418    -1.7709251961
   42      C      -2.6392880760    -3.3945054489    -1.2474424884
   43      C      -7.6612321077     0.7152483571    -0.5189489765
   44      C      -4.4518784067    -4.9609568817    -0.9137956665
   45      C      -5.0948877732     1.9622676904     0.1158214854
   46      C      -3.7875597575     1.4599375506     0.7825814797
   47      C      -5.1498967369    -4.4844612969    -2.0590818178
   48      C      -4.1494679471    -3.4787030616     2.7771817821
   49      C      -5.1500605607    -4.9287469996     1.3852881082
   50      C      -6.1264234388    -4.3717722158     2.2234919143
   51      C      -7.9569475765    -2.7979835025     2.1100702821
   52      C      -4.0695475910     0.9457660457     2.0587509533
   53      C      -6.7635170421     1.0232256163    -1.5740824604
   54      C      -8.5698508340    -2.3167140769     0.9250017875
   55      C      -1.9566374172    -1.1596196295    -0.6647003050
   56      C      -8.4574496013    -0.4088828949    -0.6289609353
   57      C      -4.5320115826    -1.1962943863    -3.2095036118
   58      C      -3.9107760640    -1.1369548623     3.3126054989
   59      C      -7.6555105706    -4.2762331689     0.3680890379
   60      C      -4.4528779645     0.8631163272    -1.9803964628
   61      C      -6.0434825660    -2.2892992124     3.5019714807
   62      C      -3.2382622692    -1.5626835894    -2.6843087282
   63      C      -7.2965038254    -1.1177885546    -2.6935758319
   64      C      -2.8957608752    -4.1086483899     0.8246097704
   65      C      -2.1254142829    -2.9545103372     0.9376694141
   66      C      -6.7013118685    -2.3230454664    -3.0298782420
   67      C      -3.2879331620    -0.1289610579     2.5949585036
   68      C      -2.8092876606     0.8149045774    -0.0954106432
   69      C      -3.3487054100    -2.3121939596     2.8543690488
   70      C      -6.1053108842     1.5040165071     1.2048761166
   71      C      -8.1806511406    -2.7372353791    -1.3930049927
   72      C      -3.1773535192     0.5252416908    -1.3965093850
   73      C      -5.2834547326    -2.3755016372    -3.2643894197
   74      C      -5.2485538337    -1.1100333536     3.6077984379
   75      C      -6.5120543640    -4.3909942467    -1.7657091715
   76      C      -7.3084626719    -1.8879621014     2.9681177039
   77      C      -5.4333891670    -5.1988945582     0.0368211278
   78      C      -8.2315612842    -1.3823838821    -1.6597156570
   79      C      -7.2805249812    -3.3377350680    -2.2568904138
   80      C      -7.3362092900     0.9727573572     0.8396599749
   81      C      -5.4011388115     0.9536385415     2.2872216193
   82      C      -3.8799451156    -4.4429831377     1.8062016700
   83      C      -8.3974824145    -3.1698763460    -0.1256329114
   84      C      -3.3021467604    -2.9130255540    -2.4248682718
   85      C      -2.3100813538    -2.0394570444     1.9632592660
   86      C      -3.1930609954    -4.3983442025    -0.4877232570
   87      C      -6.0304575327    -0.0822191915     3.0870857979
   88      C      -5.4626651761    -3.4763585000     3.1197537322
   89      O       9.9747720299    -4.6482737765     3.6437061112
   90      C       9.8986379589    -4.2313653026     5.0399309956
   91      H       9.9254995359    -3.1360518132     5.0038641738
   92      H      10.8559600374    -4.5409396574     5.4776799612
   93      H       8.9415479951    -4.5368433339     5.4808028289
   94      O       8.0824165803    -3.4819993296     3.2128525785
   95      C       9.0324546514    -4.1106872436     2.8188663221
   96      C       9.4101337842    -4.4846455288     1.3443671958
   97      H       9.7972304630    -5.5099863068     1.3035940398
   98      H      10.2730353997    -3.8592138895     1.0841171878
   99      C       8.2999113172    -4.2555197695     0.3062720845
  100      H       8.4069316587    -5.0337333327    -0.4594199532
  101      H       7.2997998955    -4.2770808492     0.7555295428
  102      C       8.4899481940    -2.8190750905    -0.4062962768
  103      H       8.5532541630    -2.0771893166     0.3989588708
  104      H       9.3321565049    -2.5781961137    -1.0669024224
  105      C       7.2322688068    -2.5201079415    -1.1495971600
  106      C       6.9490548743    -3.4709335281    -2.3002298435
  107      C       6.1630344485    -4.6487679164    -2.0895831162
  108      H       5.7453714646    -4.8418679794    -1.1058865179
  109      C       5.8988346852    -5.5187008158    -3.1602918702
  110      H       5.2914295796    -6.4098813546    -3.0331923628
  111      C       6.3595698436    -5.1656999481    -4.4408681081
  112      H       6.2640695212    -5.8305213345    -5.2938160624
  113      C       7.0974350806    -3.9705977776    -4.6866132896
  114      H       7.4583117608    -3.6189552113    -5.6484789389
  115      C       7.4331115030    -3.1746813823    -3.6450531948
  116      H       8.0670125360    -2.3159593586    -3.8435348472
  117      C       4.1193018878     1.3994602046    -3.5599381130
  118      C       2.5094731274    -0.1725758834    -2.6428313034
  119      C       0.9078035781     2.5200434863     0.6985484392
  120      C       7.3001068271     2.9361754837     0.1246230670
  121      C       2.9098386645     0.9875755780     3.2210897417
  122      C       3.7780317314     0.1254209195    -3.1701746202
  123      C       5.8850145562     2.9356737040     2.5590428362
  124      C       1.5278601978     2.9930540893    -1.6242347530
  125      C       3.9027601353    -1.9950999263     0.7005938007
  126      C       7.3624351274     1.8225048163     1.0001016946
  127      C       6.0904790461    -1.9030738227    -0.3021834247
  128      C       4.8146039425    -1.5886203077     1.6931728610
  129      C       6.3500444473     0.5978958527     2.4678182875
  130      C       4.6284044714     2.6776494784     3.0994025255
  131      C       4.0008797383    -1.6351649517    -1.7468555569
  132      C       2.3582783700     3.1782394908     2.2612867084
  133      C       6.7996081064    -1.0824386001    -1.2936998427
  134      C       7.4631833618     0.1700060955    -0.8466616284
  135      C       1.9634027450     1.8910326730     2.5937259495
  136      C       4.3935445941     4.8008859407    -0.8572302301
  137      C       2.3482586244     4.3940408789     0.1503303873
  138      C       2.3180797601     4.0744332958    -1.2091780639
  139      C       1.9820481934     2.2477734624    -2.6598601930
  140      C       7.2541103940     1.2490206291    -1.6862103944
  141      C       4.6597600828    -2.0503240750    -0.5143051141
  142      C       1.6125446854     0.9039169376    -2.3611265354
  143      C       6.7949226021     1.9063217584     2.2501853933
  144      C       2.6295904445    -1.1812654172    -1.7667272831
  145      C       4.3060766644    -0.6968963810     2.6815161445
  146      C       6.2824466048     3.5286414455    -1.8056273717
  147      C       0.8059716273     2.2302116059    -0.6915417503
  148      C       6.1433366133    -1.4941908541     1.1215868502
  149      C       4.0126867902     3.5345278076    -2.8334117532
  150      C       5.1093707490     0.3498968238     3.0650948197
  151      C       2.6101482569    -1.5753961518     0.6874685048
  152      C       4.3534296202     4.4490060261     1.5747731240
  153      C       5.6963283830     4.0058388483     1.5865953611
  154      C       2.0999625720    -0.8367055822     1.7404959543
  155      C       7.2432734961     2.6225858559    -1.2099991709
  156      C       7.4259005825     0.5076377357     0.5118172525
  157      C       5.7728150472     4.3779852649    -0.7982129824
  158      C       6.0239461349    -0.4644676380    -2.4458549520
  159      C       1.1185445516    -0.0799365169    -0.2155419418
  160      C       6.8196430999    -0.2618415962     1.4325769511
  161      C       2.9860144110    -0.3032240538     2.7661550582
  162      C       5.4007630223     3.1317363042    -2.8526829429
  163      C       1.1343008140     1.4547821595     1.6152350310
  164      C       3.2511986669     2.4509967271    -3.2252117475
  165      C       1.7298314288     3.6051765833     1.0940056106
  166      C       1.9708082506    -1.1123967954    -0.5411465497
  167      C       1.2619423690     0.1300782682     1.1845237195
  168      C       4.6838253045    -0.7642019368    -2.6397944015
  169      C       6.2894272995     0.8821304863    -2.6174161451
  170      C       3.6880694742     4.8096675142     0.3896886683
  171      C       0.9143468020     0.9157527507    -1.1208944485
  172      C       4.2494945305     1.3613669300     3.3850903087
  173      C       6.4240289281     4.0077794491     0.3988209083
  174      C       3.6875493692     3.5799706540     2.4876132049
  175      C       5.4537892036     1.8021253088    -3.2880274328
  176      C       3.5374017817     4.4139832047    -1.8515826615
 ----------------------------------------------------------------

    9   -5804.2292170631      8.62E-06 Convergence criterion met
 Total energy in the final basis set = -5804.2292170631

                    Orbital Energies (a.u.)
 --------------------------------------------------------------

 Alpha MOs
 -- Occupied --
-19.193 -19.192 -19.146 -19.121 -10.322 -10.304 -10.247 -10.242
-10.236 -10.236 -10.235 -10.234 -10.234 -10.233 -10.232 -10.230
-10.229 -10.227 -10.226 -10.226 -10.224 -10.222 -10.222 -10.222
-10.220 -10.220 -10.219 -10.218 -10.218 -10.217 -10.217 -10.216
-10.216 -10.216 -10.216 -10.216 -10.216 -10.215 -10.215 -10.215
-10.215 -10.215 -10.215 -10.214 -10.214 -10.214 -10.214 -10.214
-10.214 -10.214 -10.214 -10.213 -10.213 -10.213 -10.213 -10.213
-10.213 -10.213 -10.213 -10.213 -10.213 -10.212 -10.212 -10.212
-10.212 -10.212 -10.211 -10.211 -10.211 -10.211 -10.211 -10.211
-10.211 -10.211 -10.210 -10.210 -10.210 -10.210 -10.210 -10.210
-10.210 -10.210 -10.210 -10.210 -10.209 -10.209 -10.209 -10.209
-10.209 -10.209 -10.209 -10.209 -10.209 -10.209 -10.209 -10.208
-10.208 -10.208 -10.208 -10.208 -10.208 -10.208 -10.208 -10.208
-10.208 -10.208 -10.208 -10.208 -10.207 -10.207 -10.207 -10.207
-10.207 -10.206 -10.206 -10.206 -10.206 -10.206 -10.206 -10.205
-10.205 -10.205 -10.205 -10.205 -10.204 -10.204 -10.204 -10.204
-10.204 -10.204 -10.203 -10.203 -10.203 -10.202 -10.202 -10.202
-10.201 -10.201 -10.200 -10.200 -10.199 -10.198 -10.197 -10.195
-10.194 -10.193 -10.191 -10.191  -1.112  -1.099  -1.018  -0.999
 -0.982  -0.980  -0.967  -0.963  -0.962  -0.960  -0.960  -0.957
 -0.936  -0.931  -0.927  -0.926  -0.924  -0.923  -0.922  -0.920
 -0.918  -0.917  -0.898  -0.897  -0.890  -0.888  -0.883  -0.881
 -0.873  -0.872  -0.851  -0.850  -0.840  -0.839  -0.838  -0.834
 -0.832  -0.829  -0.823  -0.816  -0.803  -0.802  -0.797  -0.795
 -0.793  -0.792  -0.791  -0.789  -0.789  -0.787  -0.780  -0.780
 -0.770  -0.769  -0.767  -0.764  -0.763  -0.761  -0.760  -0.760
 -0.758  -0.747  -0.744  -0.738  -0.734  -0.729  -0.715  -0.714
 -0.713  -0.711  -0.710  -0.710  -0.709  -0.707  -0.706  -0.706
 -0.705  -0.704  -0.702  -0.701  -0.700  -0.698  -0.670  -0.670
 -0.656  -0.656  -0.653  -0.652  -0.646  -0.643  -0.633  -0.630
 -0.627  -0.625  -0.624  -0.619  -0.619  -0.618  -0.617  -0.612
 -0.612  -0.612  -0.611  -0.608  -0.607  -0.606  -0.605  -0.603
 -0.603  -0.602  -0.600  -0.599  -0.568  -0.562  -0.561  -0.560
 -0.559  -0.557  -0.556  -0.555  -0.554  -0.553  -0.552  -0.548
 -0.538  -0.533  -0.533  -0.526  -0.525  -0.524  -0.523  -0.522
 -0.520  -0.519  -0.519  -0.515  -0.514  -0.514  -0.510  -0.508
 -0.508  -0.504  -0.502  -0.501  -0.496  -0.490  -0.487  -0.485
 -0.483  -0.482  -0.481  -0.478  -0.477  -0.474  -0.474  -0.472
 -0.472  -0.470  -0.469  -0.468  -0.468  -0.467  -0.464  -0.464
 -0.463  -0.462  -0.461  -0.460  -0.459  -0.458  -0.457  -0.457
 -0.455  -0.452  -0.452  -0.449  -0.448  -0.445  -0.442  -0.442
 -0.440  -0.438  -0.438  -0.437  -0.436  -0.435  -0.433  -0.431
 -0.429  -0.428  -0.427  -0.426  -0.424  -0.423  -0.423  -0.420
 -0.420  -0.420  -0.419  -0.419  -0.417  -0.417  -0.416  -0.414
 -0.414  -0.413  -0.413  -0.412  -0.411  -0.411  -0.411  -0.410
 -0.409  -0.409  -0.407  -0.404  -0.402  -0.401  -0.396  -0.393
 -0.391  -0.389  -0.387  -0.386  -0.384  -0.381  -0.380  -0.379
 -0.377  -0.374  -0.373  -0.370  -0.369  -0.367  -0.366  -0.365
 -0.363  -0.362  -0.361  -0.361  -0.360  -0.358  -0.357  -0.355
 -0.355  -0.354  -0.353  -0.353  -0.351  -0.350  -0.349  -0.348
 -0.347  -0.346  -0.346  -0.345  -0.344  -0.344  -0.342  -0.341
 -0.339  -0.339  -0.338  -0.336  -0.335  -0.335  -0.334  -0.331
 -0.330  -0.329  -0.328  -0.328  -0.326  -0.322  -0.320  -0.319
 -0.306  -0.304  -0.301  -0.296  -0.289  -0.286  -0.280  -0.269
 -0.267  -0.266  -0.265  -0.265  -0.264  -0.263  -0.261  -0.261
 -0.260  -0.259  -0.258  -0.255  -0.253  -0.253  -0.252  -0.250
 -0.245  -0.243  -0.243  -0.240  -0.222  -0.216  -0.208  -0.207
 -0.205  -0.204  -0.202  -0.201  -0.198  -0.194

          Ground-State Mulliken Net Atomic Charges

     Atom                 Charge (a.u.)
  ----------------------------------------
      1 O                    -0.442283
      2 C                    -0.087059
      3 H                     0.120687
      4 H                     0.141748
      5 H                     0.124243
      6 O                    -0.510130
      7 C                     0.612495
      8 C                    -0.272448
      9 H                     0.140073
     10 H                     0.132729
     11 C                    -0.181105
     12 H                     0.122548
     13 H                     0.115703
     14 C                    -0.184998
     15 H                     0.104858
     16 H                     0.103329
     17 C                     0.000663
     18 C                     0.094164
     19 C                    -0.110887
     20 H                     0.092596
     21 C                    -0.098510
     22 H                     0.089446
     23 C                    -0.082936
     24 H                     0.092053
     25 C                    -0.092347
     26 H                     0.090218
     27 C                    -0.100583
     28 H                     0.097421
     29 C                     0.012620
     30 C                    -0.025914
     31 C                    -0.003387
     32 C                    -0.020104
     33 C                     0.008286
     34 C                    -0.027652
     35 C                    -0.030792
     36 C                     0.003705
     37 C                    -0.011123
     38 C                    -0.002448
     39 C                    -0.103253
     40 C                     0.011248
     41 C                    -0.004086
     42 C                    -0.000192
     43 C                     0.015588
     44 C                    -0.010677
     45 C                    -0.070904
     46 C                     0.018068
     47 C                    -0.014741
     48 C                     0.028712
     49 C                     0.013075
     50 C                    -0.021954
     51 C                     0.001228
     52 C                     0.020196
     53 C                     0.017016
     54 C                    -0.001476
     55 C                     0.005879
     56 C                    -0.008500
     57 C                    -0.031416
     58 C                     0.012551
     59 C                    -0.012540
     60 C                     0.040985
     61 C                    -0.022344
     62 C                    -0.019519
     63 C                    -0.008449
     64 C                    -0.003041
     65 C                     0.011556
     66 C                    -0.015203
     67 C                    -0.016412
     68 C                    -0.025511
     69 C                     0.013943
     70 C                     0.021825
     71 C                     0.034482
     72 C                     0.027004
     73 C                     0.009792
     74 C                    -0.012304
     75 C                     0.014505
     76 C                     0.005319
     77 C                    -0.001134
     78 C                    -0.011938
     79 C                    -0.001781
     80 C                     0.043446
     81 C                     0.011274
     82 C                    -0.047652
     83 C                     0.003399
     84 C                     0.013641
     85 C                     0.010124
     86 C                     0.016805
     87 C                     0.002676
     88 C                     0.011259
     89 O                    -0.470459
     90 C                    -0.085374
     91 H                     0.127398
     92 H                     0.126877
     93 H                     0.140014
     94 O                    -0.466209
     95 C                     0.598831
     96 C                    -0.274193
     97 H                     0.132894
     98 H                     0.137486
     99 C                    -0.181263
    100 H                     0.117812
    101 H                     0.127114
    102 C                    -0.186888
    103 H                     0.114448
    104 H                     0.108645
    105 C                     0.003555
    106 C                     0.075265
    107 C                    -0.104497
    108 H                     0.096041
    109 C                    -0.089405
    110 H                     0.097753
    111 C                    -0.094859
    112 H                     0.089336
    113 C                    -0.079141
    114 H                     0.093888
    115 C                    -0.095102
    116 H                     0.089436
    117 C                    -0.041625
    118 C                     0.012139
    119 C                    -0.024419
    120 C                    -0.011579
    121 C                    -0.003425
    122 C                     0.034396
    123 C                     0.004163
    124 C                     0.013889
    125 C                     0.004618
    126 C                     0.005993
    127 C                    -0.053359
    128 C                    -0.011738
    129 C                    -0.006220
    130 C                     0.007983
    131 C                    -0.035583
    132 C                     0.005936
    133 C                    -0.084805
    134 C                    -0.003138
    135 C                    -0.003629
    136 C                     0.012152
    137 C                     0.009674
    138 C                     0.001751
    139 C                    -0.011666
    140 C                    -0.004269
    141 C                     0.025927
    142 C                    -0.031456
    143 C                    -0.028452
    144 C                    -0.019783
    145 C                     0.006969
    146 C                    -0.010866
    147 C                    -0.017928
    148 C                     0.030668
    149 C                    -0.002609
    150 C                     0.022855
    151 C                     0.014526
    152 C                     0.006888
    153 C                    -0.011646
    154 C                    -0.033504
    155 C                    -0.018081
    156 C                     0.045426
    157 C                     0.007575
    158 C                     0.011921
    159 C                     0.014385
    160 C                    -0.006364
    161 C                    -0.000569
    162 C                    -0.016087
    163 C                     0.013599
    164 C                     0.035238
    165 C                     0.015774
    166 C                     0.002154
    167 C                     0.016904
    168 C                     0.006371
    169 C                     0.046634
    170 C                    -0.026174
    171 C                     0.006303
    172 C                    -0.010536
    173 C                    -0.004691
    174 C                    -0.016770
    175 C                    -0.011824
    176 C                    -0.014867
  ----------------------------------------
  Sum of atomic charges =     0.000000

                    Cartesian Multipole Moments
 -----------------------------------------------------------------
    Charge (ESU x 10^10)
                 0.0000
    Dipole Moment (Debye)
         X       4.9457      Y      -0.3899      Z      -1.4974
       Tot       5.1821
    Quadrupole Moments (Debye-Ang)
        XX    -758.4249     XY     -39.7786     YY    -780.2676
        XZ       9.7695     YZ      -5.5446     ZZ    -799.6954

 Total job time:  861.95s(wall), 7357.24s(cpu)
        *  Thank you very much for using Q-Chem.  Have a nice day.  *
