 Q-Chem 4.4, Q-Chem, Inc., Pleasanton, CA (2016)
 Q-Chem 4.4.2 for Intel X86 Linux

User input:
--------------------------------------------------------------
$comment
SP
$end

$rem
MEM_STATIC 5000
MEM_TOTAL 20000
JOBTYPE SP
EXCHANGE B3LYP
BASIS 6-31g(d,p)
$end

$molecule
0 1
O         -17.946000     19.833000     10.344000
C         -16.840000     19.466000     11.230000
H         -17.226000     19.424000     12.256000
H         -16.070000     20.247000     11.191000
H         -16.324000     18.522000     11.019000
O         -16.878000     19.034000      8.449000
C         -17.793000     19.578000      9.012000
C         -18.986000     20.175000      8.239000
H         -19.131000     21.189000      8.633000
H         -19.856000     19.563000      8.506000
C         -18.855000     20.100000      6.672000
H         -17.837000     20.356000      6.352000
H         -18.857000     19.040000      6.389000
C         -19.775000     21.088000      5.911000
H         -20.805000     21.056000      6.287000
H         -19.561000     22.130000      6.176000
C         -19.762000     21.080000      4.361000
C         -18.599000     21.802000      3.793000
C         -17.497000     21.033000      3.329000
H         -17.496000     19.948000      3.367000
C         -16.354000     21.718000      2.838000
H         -15.544000     21.107000      2.452000
C         -16.401000     23.147000      2.747000
H         -15.557000     23.744000      2.412000
C         -17.535000     23.864000      3.191000
H         -17.553000     24.933000      2.998000
C         -18.606000     23.192000      3.752000
H         -19.464000     23.762000      4.095000
C         -22.533000     22.753000      0.020000
C         -21.140000     20.916000     -0.857000
C         -24.568000     17.903000     -1.410000
C         -25.238000     21.067000      4.061000
C         -23.866000     16.181000      1.542000
C         -21.376000     21.986000      0.046000
C         -25.758000     18.416000      3.606000
C         -24.471000     20.279000     -1.865000
C         -20.357000     18.206000      2.097000
C         -24.430000     20.098000      4.714000
C         -20.381000     19.963000      3.585000
C         -21.133000     17.687000      3.166000
C         -23.528000     18.041000      4.464000
C         -25.609000     17.363000      2.648000
C         -20.089000     20.447000      1.098000
C         -25.770000     17.241000      0.352000
C         -21.061000     21.291000      3.685000
C         -22.466000     21.450000      4.255000
C         -24.552000     16.543000      0.352000
C         -26.570000     21.103000      0.816000
C         -26.375000     19.356000     -0.601000
C         -25.685000     20.462000     -1.160000
C         -23.391000     21.226000     -1.705000
C         -23.178000     22.365000      3.595000
C         -20.012000     19.547000      2.229000
C         -22.153000     20.557000     -1.729000
C         -24.719000     18.737000      4.520000
C         -20.353000     19.973000     -0.147000
C         -22.185000     16.717000      2.932000
C         -25.244000     22.522000      2.318000
C         -23.906000     19.040000     -1.966000
C         -21.211000     18.765000      4.064000
C         -24.835000     22.475000     -0.113000
C         -23.431000     16.922000      3.618000
C         -20.775000     17.797000      0.828000
C         -26.909000     18.890000      1.699000
C         -26.538000     19.367000      2.994000
C         -21.794000     16.859000      0.620000
C         -24.588000     22.184000      3.500000
C         -23.037000     20.257000      4.762000
C         -26.307000     21.606000      2.133000
C         -21.213000     22.095000      2.452000
C         -21.685000     18.186000     -1.182000
C         -22.459000     18.968000      4.648000
C         -22.530000     16.288000      1.639000
C         -24.486000     22.919000      1.200000
C         -23.780000     16.961000     -0.740000
C         -23.630000     22.334000     -0.830000
C         -25.756000     18.118000     -0.775000
C         -20.641000     18.581000     -0.311000
C         -22.380000     17.176000     -0.593000
C         -20.719000     21.663000      1.214000
C         -22.419000     22.765000      2.518000
C         -26.938000     19.762000      0.595000
C         -22.481000     19.181000     -1.863000
C         -24.434000     16.554000      2.717000
C         -26.323000     20.762000      3.242000
C         -26.333000     17.607000      1.550000
C         -23.117000     23.054000      1.274000
C         -25.865000     21.562000     -0.317000
O         -22.491000     28.342000      0.623000
C         -21.202000     27.643000      0.837000
H         -20.496000     28.294000      1.367000
H         -20.796000     27.176000     -0.069000
H         -21.431000     26.898000      1.608000
O         -23.501000     26.349000      0.088000
C         -23.585000     27.570000      0.183000
C         -24.770000     28.450000     -0.250000
H         -24.684000     29.273000      0.470000
H         -25.707000     27.890000     -0.140000
C         -24.543000     28.858000     -1.698000
H         -25.256000     29.669000     -1.893000
H         -23.517000     29.194000     -1.893000
C         -24.832000     27.719000     -2.712000
H         -24.640000     26.713000     -2.317000
H         -25.916000     27.871000     -2.778000
C         -24.270000     27.974000     -4.149000
C         -24.942000     29.165000     -4.857000
C         -24.194000     30.240000     -5.216000
H         -23.166000     30.362000     -4.889000
C         -24.658000     31.111000     -6.234000
H         -24.072000     31.982000     -6.511000
C         -25.814000     30.935000     -6.931000
H         -26.087000     31.563000     -7.774000
C         -26.634000     29.853000     -6.502000
H         -27.554000     29.602000     -7.021000
C         -26.200000     29.038000     -5.436000
H         -26.832000     28.213000     -5.121000
C         -22.196000     25.559000     -8.639000
C         -20.708000     27.411000     -8.257000
C         -17.037000     25.083000     -6.919000
C         -22.523000     22.780000     -4.292000
C         -17.768000     25.697000     -3.508000
C         -22.015000     26.881000     -8.311000
C         -20.033000     22.989000     -2.978000
C         -18.686000     24.613000     -8.658000
C         -20.583000     28.439000     -4.386000
C         -22.356000     23.675000     -3.245000
C         -22.778000     27.769000     -4.216000
C         -20.658000     27.724000     -3.170000
C         -20.936000     25.138000     -2.268000
C         -18.763000     23.579000     -3.046000
C         -21.821000     28.243000     -6.459000
C         -17.232000     23.857000     -4.982000
C         -23.691000     26.804000     -4.925000
C         -23.689000     25.356000     -4.475000
C         -17.099000     25.191000     -4.648000
C         -20.192000     21.954000     -6.894000
C         -18.100000     22.871000     -6.986000
C         -18.816000     23.284000     -8.136000
C         -19.829000     25.338000     -9.134000
C         -23.687000     24.531000     -5.512000
C         -21.768000     28.425000     -5.058000
C         -19.618000     26.640000     -8.723000
C         -21.142000     23.804000     -2.608000
C         -20.604000     28.286000     -7.142000
C         -19.538000     26.971000     -2.797000
C         -22.551000     22.643000     -6.625000
C         -17.764000     25.477000     -8.036000
C         -21.929000     27.257000     -3.082000
C         -21.186000     23.457000     -8.516000
C         -19.678000     25.663000     -2.319000
C         -19.341000     28.459000     -5.135000
C         -18.985000     22.182000     -4.792000
C         -20.211000     22.165000     -4.075000
C         -18.307000     27.673000     -4.670000
C         -23.133000     23.232000     -5.460000
C         -22.919000     24.937000     -3.318000
C         -21.436000     21.918000     -6.137000
C         -23.625000     26.608000     -6.382000
C         -18.298000     27.596000     -6.959000
C         -22.061000     25.859000     -2.675000
C         -18.341000     26.989000     -3.467000
C         -22.422000     23.395000     -7.809000
C         -16.967000     25.956000     -5.795000
C         -21.085000     24.748000     -9.066000
C         -17.193000     23.775000     -6.401000
C         -19.340000     28.403000     -6.516000
C         -17.613000     27.204000     -5.830000
C         -22.702000     27.372000     -7.185000
C         -23.615000     25.262000     -6.744000
C         -18.972000     22.063000     -6.205000
C         -18.412000     26.727000     -8.019000
C         -18.586000     24.911000     -2.747000
C         -21.425000     21.982000     -4.705000
C         -18.098000     23.014000     -4.162000
C         -22.987000     24.742000     -7.819000
C         -20.062000     22.688000     -8.094000
$end

--------------------------------------------------------------

             Standard Nuclear Orientation (Angstroms)
    I     Atom           X                Y                Z
 ----------------------------------------------------------------
    1      O      11.2011804499     5.3325215441     2.3575802085
    2      C      12.1039163948     6.4660257739     2.1498376397
    3      H      12.9792231705     6.3263132767     2.7961769210
    4      H      11.6008550992     7.3912197739     2.4585889882
    5      H      12.4575603910     6.6411149792     1.1270020253
    6      O      10.0769433637     5.6816092469     0.3615143905
    7      C      10.2528220074     5.1035859653     1.4031889023
    8      C       9.3131751204     3.9775630855     1.8789232841
    9      H       9.0580670755     4.2098554517     2.9207568322
   10      H       9.9088359275     3.0570112641     1.8564389099
   11      C       8.0698516638     3.7242486274     0.9471220351
   12      H       7.6306930711     4.6733126163     0.6144400916
   13      H       8.4465849194     3.3671133976    -0.0194282645
   14      C       6.9075073887     2.9634399856     1.6339924717
   15      H       7.2643118364     2.0773756375     2.1733259095
   16      H       6.5200496564     3.5096565658     2.5019261980
   17      C       5.6431678419     2.6221141917     0.8047306236
   18      C       4.7293023127     3.7784572333     0.6491749593
   19      C       4.7579869900     4.4918634550    -0.5801702942
   20      H       5.4116882189     4.2034135446    -1.3975694333
   21      C       3.9289684267     5.6368058254    -0.7165161409
   22      H       3.9395287408     6.1384232524    -1.6791611620
   23      C       3.0358573769     5.9647393616     0.3546249556
   24      H       2.3939275669     6.8414647549     0.3388546102
   25      C       3.0215991224     5.2026161373     1.5446442383
   26      H       2.2507322682     5.4356582515     2.2738833391
   27      C       3.8982993881     4.1443890717     1.7024356245
   28      H       3.8775067299     3.5769120367     2.6277736601
   29      C       1.2130109102    -0.4915696787     0.7864736959
   30      C       1.5078877634     0.1068374484    -1.5882059776
   31      C       2.8865574533    -4.0493232170    -2.9884775260
   32      C       5.5684118302    -2.5665195028     2.5793395728
   33      C       6.2697581450    -3.1972731983    -3.0073413849
   34      C       1.6399308107     0.3848295557    -0.2020999131
   35      C       6.7328271311    -3.8836523521     0.4782626907
   36      C       1.1478095487    -3.4092270449    -1.4300030749
   37      C       5.4572771415     0.7636764015    -2.3970268044
   38      C       6.6348042295    -1.9296274648     1.8898399116
   39      C       5.6675328581     1.5610366839    -0.2471946915
   40      C       6.6531347691     0.1382631264    -1.9576172349
   41      C       7.5837177506    -1.7083638267    -0.1492673764
   42      C       6.5486103273    -4.2507376064    -0.8928998035
   43      C       3.3456822732     1.4031997360    -1.2906439518
   44      C       4.7443419118    -4.9550347173    -2.1423004855
   45      C       5.0075759039     1.3130069425     1.0714872512
   46      C       5.4247301846     0.1729466171     1.9936861238
   47      C       5.1085679491    -4.0085752058    -3.1130124854
   48      C       2.9317212427    -4.5367401457     1.3662285456
   49      C       2.7687347720    -5.1554714255    -0.7990728223
   50      C       1.6559812086    -4.3336198391    -0.4857734810
   51      C       0.7031080562    -2.1036606400    -0.9980934257
   52      C       4.3807340195    -0.3906553270     2.6037630499
   53      C       4.7854812440     1.4842854054    -1.4151190003
   54      C       1.0304539331    -1.1359862752    -1.9662008581
   55      C       7.2656654315    -2.6174510819     0.8398919054
   56      C       2.6066358735     0.7441647718    -2.2200955831
   57      C       7.0496371831    -1.1642261376    -2.4562830076
   58      C       3.3071368828    -2.5675251542     2.7836545276
   59      C       1.7593046997    -3.2444422936    -2.6397413384
   60      C       6.7717829506     0.5649631426    -0.6240424506
   61      C       1.3323446088    -2.7491792823     1.3185783342
   62      C       7.5305885045    -2.1167851326    -1.4937581053
   63      C       4.6658809709    -0.0268514016    -3.2343582164
   64      C       4.9344295101    -5.2612086203     0.2453877785
   65      C       5.7094840676    -4.4900315445     1.1655895775
   66      C       5.0643147019    -1.2838224477    -3.7063151544
   67      C       4.4489019486    -1.7794782059     2.9142628802
   68      C       6.5413025779    -0.5733842481     1.5435802139
   69      C       3.7130815606    -3.8543573980     2.3564289493
   70      C       3.5416252894     1.1123544134     1.0946466663
   71      C       2.8247769750    -1.2258922967    -3.6727165270
   72      C       7.1704633319    -0.4131303236     0.2837879988
   73      C       6.2478990897    -1.8974708831    -3.3476208631
   74      C       2.1417238989    -2.0035443532     2.2306308094
   75      C       3.9519653016    -3.4198519879    -3.6410724144
   76      C       0.7905185196    -1.8243808000     0.4036098887
   77      C       3.3183013832    -4.9564954565    -2.0657480386
   78      C       3.2798091575     0.0555603293    -3.2784743676
   79      C       3.9071421322    -2.0192507636    -3.8943333350
   80      C       2.7616004432     1.1747579034    -0.0676661331
   81      C       3.2471246518     0.1843757116     2.0743491229
   82      C       3.5313641564    -5.2990116788     0.3454854408
   83      C       1.7201908985    -1.8507755923    -2.9822004401
   84      C       7.0342871079    -3.3593084373    -1.8975585024
   85      C       5.1055130978    -3.8497814263     2.2965417664
   86      C       5.5315622746    -5.1091077495    -1.0275473285
   87      C       2.0839892584    -0.6704272939     1.8880996172
   88      C       1.7200337032    -4.0086565363     0.8719249869
   89      O      -1.5020061001     1.2193595949     5.4020665782
   90      C      -0.9641828783     2.2803895627     4.5183926623
   91      H      -0.9250566190     3.2390263012     5.0500144633
   92      H      -1.4497848011     2.3261894099     3.5356138741
   93      H       0.1011651963     2.0365161786     4.4319851836
   94      O      -0.7660466741    -0.3930661438     3.9402796715
   95      C      -1.3864675920    -0.1146816559     4.9622884589
   96      C      -2.2104926888    -1.0784484730     5.8330640686
   97      H      -2.0960805096    -0.6088740149     6.8177135907
   98      H      -1.7711652623    -2.0829078221     5.7915691481
   99      C      -3.6364591194    -1.0824298852     5.3026860081
  100      H      -4.2401818692    -1.5701470358     6.0784216734
  101      H      -4.0194627615    -0.0755894307     5.0948940223
  102      C      -3.8040934455    -1.8951175853     3.9910170579
  103      H      -2.9092487436    -1.9024823013     3.3553097979
  104      H      -3.9130069345    -2.8812771706     4.4580750031
  105      C      -5.1432482487    -1.6255853237     3.2295350996
  106      C      -6.3861048473    -2.0868836492     4.0130147294
  107      C      -7.3191157260    -1.1740218675     4.3874263581
  108      H      -7.1521618761    -0.1057869523     4.2894591290
  109      C      -8.6382507584    -1.5990972150     4.6865161692
  110      H      -9.3822542235    -0.8750622419     5.0043183116
  111      C      -9.0732126354    -2.8856265907     4.5928607850
  112      H     -10.1153747578    -3.1593010167     4.7291047548
  113      C      -8.0767485327    -3.8518275716     4.2755597349
  114      H      -8.3300316968    -4.8980843085     4.1342923319
  115      C      -6.7495707301    -3.4285271723     4.0556669149
  116      H      -5.9994929431    -4.1743011794     3.8097432604
  117      C      -7.4939251711    -1.3683769564    -1.7405718271
  118      C      -8.2884438390     0.6173179777    -0.6379713941
  119      C      -5.9669521571     3.7115448537    -3.0301472678
  120      C      -2.3317852701    -1.4520381091    -1.4731929686
  121      C      -3.5058857444     3.9701290511    -0.4958693972
  122      C      -7.9895176813    -0.7618174209    -0.6116331247
  123      C      -1.4505820174     1.2299480996    -1.5016148634
  124      C      -7.0712865703     1.6474334399    -3.7259285373
  125      C      -5.7140102402     1.8937507464     2.1548875412
  126      C      -1.9934846003    -0.8128899363    -0.2890623719
  127      C      -5.1249372585    -0.3028664901     2.5065844823
  128      C      -4.3062759377     1.9028732730     2.2719640671
  129      C      -2.0757895271     1.1372676955     0.8517308215
  130      C      -1.8826825500     2.5633388708    -1.5329546292
  131      C      -7.2611881307     0.2132601833     1.3483014996
  132      C      -3.6723229419     3.6315863920    -2.8840192098
  133      C      -5.1241963990    -1.5817425378     1.7116313355
  134      C      -3.9250292599    -1.8755847370     0.8313683438
  135      C      -4.1684597267     4.1979476910    -1.7256219680
  136      C      -4.0568133320    -0.0903770375    -4.3115724908
  137      C      -4.7207201205     2.0955072895    -4.3949660477
  138      C      -5.8775455947     1.2792440388    -4.4295222042
  139      C      -7.8428087155     0.6705977318    -3.0123491241
  140      C      -4.3003555551    -2.3353181883    -0.3534410611
  141      C      -6.2206112015     0.6302813903     2.2097113714
  142      C      -8.2598904129     1.3185081804    -1.8656578368
  143      C      -1.5823861840     0.5013314195    -0.2839320660
  144      C      -7.8811350790     1.2075133215     0.5889903128
  145      C      -3.6022966768     2.8271834046     1.4905538158
  146      C      -4.1616936202    -2.0445578123    -2.8008969384
  147      C      -7.0855386794     2.8872630223    -3.0580337222
  148      C      -3.9283612985     0.6068627165     2.4091178607
  149      C      -6.2171404088    -0.9740185091    -3.6557572191
  150      C      -2.4563186479     2.4454454065     0.7834764098
  151      C      -6.3755194824     2.8900907012     1.3341091197
  152      C      -2.5033402373     1.5765065294    -3.4539842919
  153      C      -1.8702189855     0.5886896436    -2.6534661592
  154      C      -5.5747441628     3.7458242018     0.6063343856
  155      C      -3.5288836933    -2.1626171079    -1.5247764115
  156      C      -2.7606421786    -1.0089224255     0.8458308007
  157      C      -3.3795154680    -1.0911672773    -3.4982044933
  158      C      -6.2061194790    -1.9041000227     0.7676243965
  159      C      -7.4041769271     3.2143301028    -0.6649723373
  160      C      -2.7890824535     0.1917910391     1.5922725780
  161      C      -4.1966614406     3.7988273634     0.7259156367
  162      C      -5.5660816601    -1.9858055362    -2.8916901294
  163      C      -5.5501159912     4.2714591039    -1.7879119264
  164      C      -7.4111256986    -0.6497106729    -2.9859769902
  165      C      -4.7877603820     3.3239207795    -3.7104253982
  166      C      -7.4736441064     2.5626686733     0.5613121698
  167      C      -6.2756645895     4.0026336965    -0.6143033325
  168      C      -7.3292568920    -1.0137488309     0.6055407556
  169      C      -5.7302766838    -2.3464757435    -0.4655574052
  170      C      -3.5918592154     1.2357427873    -4.2965431958
  171      C      -7.7696177791     2.6289027672    -1.8547138296
  172      C      -2.4076283316     3.1623348271    -0.4101947391
  173      C      -2.2446003981    -0.7387764547    -2.6965627453
  174      C      -2.4916379209     2.7766544043    -2.7941349650
  175      C      -6.3303970381    -2.1460839123    -1.6572401122
  176      C      -5.4639964614    -0.0392601041    -4.4250568478
 ----------------------------------------------------------------

    9   -5804.2415387681      8.69E-06 Convergence criterion met
 Total energy in the final basis set = -5804.2415387681

                    Orbital Energies (a.u.)
 --------------------------------------------------------------

 Alpha MOs
 -- Occupied --
-19.199 -19.187 -19.141 -19.140 -10.320 -10.319 -10.249 -10.243
-10.242 -10.241 -10.234 -10.234 -10.229 -10.226 -10.226 -10.224
-10.223 -10.223 -10.222 -10.221 -10.221 -10.220 -10.220 -10.219
-10.219 -10.219 -10.219 -10.218 -10.218 -10.218 -10.217 -10.217
-10.217 -10.217 -10.216 -10.216 -10.216 -10.216 -10.216 -10.216
-10.215 -10.215 -10.215 -10.215 -10.214 -10.214 -10.214 -10.214
-10.214 -10.214 -10.214 -10.213 -10.213 -10.213 -10.213 -10.213
-10.213 -10.213 -10.213 -10.213 -10.212 -10.212 -10.212 -10.212
-10.212 -10.212 -10.212 -10.211 -10.211 -10.211 -10.211 -10.211
-10.211 -10.211 -10.211 -10.210 -10.210 -10.210 -10.210 -10.210
-10.210 -10.210 -10.210 -10.209 -10.209 -10.209 -10.209 -10.209
-10.209 -10.209 -10.209 -10.209 -10.209 -10.209 -10.209 -10.208
-10.208 -10.208 -10.208 -10.208 -10.208 -10.208 -10.208 -10.208
-10.208 -10.208 -10.207 -10.207 -10.207 -10.207 -10.207 -10.206
-10.206 -10.206 -10.206 -10.206 -10.206 -10.206 -10.205 -10.205
-10.204 -10.204 -10.204 -10.204 -10.204 -10.203 -10.203 -10.203
-10.203 -10.203 -10.203 -10.202 -10.202 -10.202 -10.201 -10.201
-10.201 -10.201 -10.200 -10.200 -10.200 -10.200 -10.198 -10.197
-10.196 -10.195 -10.195 -10.194  -1.094  -1.075  -1.020  -0.998
 -0.983  -0.980  -0.966  -0.964  -0.963  -0.960  -0.958  -0.956
 -0.934  -0.933  -0.926  -0.924  -0.923  -0.922  -0.921  -0.921
 -0.918  -0.917  -0.896  -0.895  -0.888  -0.887  -0.886  -0.884
 -0.877  -0.875  -0.858  -0.849  -0.842  -0.840  -0.837  -0.836
 -0.834  -0.830  -0.820  -0.816  -0.810  -0.797  -0.796  -0.796
 -0.795  -0.794  -0.791  -0.790  -0.790  -0.787  -0.782  -0.780
 -0.771  -0.768  -0.765  -0.764  -0.763  -0.762  -0.762  -0.759
 -0.751  -0.747  -0.743  -0.741  -0.732  -0.732  -0.716  -0.714
 -0.713  -0.712  -0.710  -0.709  -0.708  -0.708  -0.706  -0.705
 -0.703  -0.701  -0.701  -0.701  -0.700  -0.698  -0.674  -0.669
 -0.659  -0.654  -0.653  -0.651  -0.645  -0.645  -0.630  -0.630
 -0.627  -0.626  -0.624  -0.622  -0.622  -0.617  -0.617  -0.614
 -0.613  -0.612  -0.611  -0.608  -0.608  -0.607  -0.607  -0.606
 -0.605  -0.602  -0.599  -0.597  -0.565  -0.562  -0.562  -0.561
 -0.560  -0.558  -0.556  -0.556  -0.555  -0.553  -0.551  -0.551
 -0.535  -0.535  -0.531  -0.529  -0.528  -0.525  -0.524  -0.523
 -0.522  -0.518  -0.517  -0.517  -0.516  -0.514  -0.508  -0.508
 -0.505  -0.502  -0.500  -0.495  -0.490  -0.488  -0.487  -0.485
 -0.483  -0.481  -0.480  -0.478  -0.475  -0.474  -0.473  -0.472
 -0.470  -0.470  -0.470  -0.468  -0.467  -0.466  -0.465  -0.464
 -0.464  -0.463  -0.460  -0.460  -0.459  -0.459  -0.455  -0.454
 -0.453  -0.452  -0.451  -0.450  -0.447  -0.446  -0.443  -0.442
 -0.441  -0.439  -0.438  -0.436  -0.436  -0.433  -0.432  -0.432
 -0.430  -0.428  -0.427  -0.425  -0.424  -0.423  -0.422  -0.422
 -0.421  -0.420  -0.420  -0.419  -0.417  -0.416  -0.416  -0.415
 -0.415  -0.414  -0.413  -0.413  -0.412  -0.411  -0.411  -0.410
 -0.408  -0.406  -0.405  -0.403  -0.400  -0.399  -0.396  -0.395
 -0.395  -0.392  -0.390  -0.390  -0.386  -0.385  -0.384  -0.383
 -0.379  -0.377  -0.374  -0.371  -0.370  -0.366  -0.365  -0.365
 -0.363  -0.361  -0.360  -0.360  -0.359  -0.358  -0.358  -0.357
 -0.356  -0.355  -0.354  -0.353  -0.352  -0.350  -0.350  -0.350
 -0.348  -0.347  -0.347  -0.345  -0.344  -0.343  -0.342  -0.342
 -0.340  -0.339  -0.339  -0.337  -0.335  -0.333  -0.333  -0.332
 -0.331  -0.330  -0.327  -0.326  -0.325  -0.323  -0.320  -0.318
 -0.309  -0.309  -0.304  -0.295  -0.285  -0.284  -0.272  -0.271
 -0.269  -0.268  -0.267  -0.267  -0.265  -0.264  -0.262  -0.260
 -0.260  -0.259  -0.258  -0.256  -0.255  -0.253  -0.252  -0.249
 -0.249  -0.244  -0.241  -0.240  -0.223  -0.220  -0.214  -0.206
 -0.205  -0.203  -0.201  -0.198  -0.195  -0.193

          Ground-State Mulliken Net Atomic Charges

     Atom                 Charge (a.u.)
  ----------------------------------------
      1 O                    -0.469161
      2 C                    -0.097956
      3 H                     0.126560
      4 H                     0.127342
      5 H                     0.140784
      6 O                    -0.458212
      7 C                     0.603357
      8 C                    -0.273048
      9 H                     0.127789
     10 H                     0.137554
     11 C                    -0.175780
     12 H                     0.121933
     13 H                     0.114710
     14 C                    -0.184350
     15 H                     0.100283
     16 H                     0.105523
     17 C                     0.006085
     18 C                     0.083667
     19 C                    -0.101506
     20 H                     0.100949
     21 C                    -0.097315
     22 H                     0.095608
     23 C                    -0.087927
     24 H                     0.089358
     25 C                    -0.091512
     26 H                     0.088314
     27 C                    -0.091926
     28 H                     0.090650
     29 C                    -0.023414
     30 C                     0.011370
     31 C                    -0.010898
     32 C                     0.017152
     33 C                     0.015539
     34 C                     0.030831
     35 C                     0.018126
     36 C                     0.000941
     37 C                    -0.022453
     38 C                    -0.025022
     39 C                    -0.074921
     40 C                     0.014179
     41 C                     0.017035
     42 C                     0.014769
     43 C                     0.028200
     44 C                    -0.011808
     45 C                    -0.103777
     46 C                     0.020137
     47 C                     0.003739
     48 C                     0.010077
     49 C                     0.004749
     50 C                    -0.003128
     51 C                    -0.001024
     52 C                     0.020102
     53 C                     0.032505
     54 C                     0.014585
     55 C                    -0.028106
     56 C                    -0.036363
     57 C                    -0.020877
     58 C                    -0.028245
     59 C                     0.001692
     60 C                     0.015005
     61 C                    -0.006926
     62 C                    -0.020415
     63 C                     0.017469
     64 C                    -0.026779
     65 C                    -0.001050
     66 C                     0.013420
     67 C                    -0.006064
     68 C                     0.007894
     69 C                     0.003887
     70 C                     0.041850
     71 C                    -0.020022
     72 C                     0.000433
     73 C                    -0.000838
     74 C                     0.039542
     75 C                    -0.010109
     76 C                    -0.007217
     77 C                     0.018172
     78 C                    -0.026210
     79 C                     0.022561
     80 C                     0.017002
     81 C                    -0.020370
     82 C                     0.000812
     83 C                    -0.020971
     84 C                    -0.005352
     85 C                    -0.026242
     86 C                    -0.003544
     87 C                     0.001686
     88 C                    -0.011681
     89 O                    -0.493304
     90 C                    -0.085933
     91 H                     0.121555
     92 H                     0.137187
     93 H                     0.128281
     94 O                    -0.469124
     95 C                     0.589336
     96 C                    -0.232173
     97 H                     0.131026
     98 H                     0.130097
     99 C                    -0.197006
    100 H                     0.116160
    101 H                     0.118285
    102 C                    -0.208273
    103 H                     0.137778
    104 H                     0.102559
    105 C                     0.016314
    106 C                     0.099100
    107 C                    -0.123590
    108 H                     0.097393
    109 C                    -0.093412
    110 H                     0.084488
    111 C                    -0.069868
    112 H                     0.096497
    113 C                    -0.096644
    114 H                     0.093197
    115 C                    -0.110169
    116 H                     0.087454
    117 C                    -0.009815
    118 C                    -0.006025
    119 C                    -0.001911
    120 C                    -0.008734
    121 C                    -0.000689
    122 C                    -0.001388
    123 C                    -0.007445
    124 C                    -0.003049
    125 C                    -0.017838
    126 C                     0.028030
    127 C                    -0.079008
    128 C                     0.025665
    129 C                     0.011500
    130 C                    -0.025469
    131 C                     0.036814
    132 C                    -0.010743
    133 C                    -0.063479
    134 C                     0.024174
    135 C                     0.029244
    136 C                     0.000158
    137 C                    -0.000781
    138 C                     0.001332
    139 C                    -0.002210
    140 C                     0.017175
    141 C                     0.004921
    142 C                     0.004757
    143 C                    -0.002710
    144 C                    -0.007188
    145 C                     0.002595
    146 C                    -0.014009
    147 C                     0.001310
    148 C                     0.015540
    149 C                     0.018036
    150 C                    -0.019255
    151 C                    -0.009223
    152 C                     0.005021
    153 C                     0.037998
    154 C                     0.016412
    155 C                     0.001631
    156 C                    -0.034454
    157 C                    -0.012594
    158 C                     0.015263
    159 C                     0.028951
    160 C                     0.023974
    161 C                    -0.032866
    162 C                    -0.015067
    163 C                    -0.019611
    164 C                    -0.009093
    165 C                    -0.014902
    166 C                    -0.027369
    167 C                    -0.011815
    168 C                    -0.016264
    169 C                     0.019964
    170 C                    -0.002568
    171 C                     0.006836
    172 C                     0.020374
    173 C                    -0.009236
    174 C                    -0.013415
    175 C                     0.012642
    176 C                    -0.010708
  ----------------------------------------
  Sum of atomic charges =     0.000000

                    Cartesian Multipole Moments
 -----------------------------------------------------------------
    Charge (ESU x 10^10)
                 0.0000
    Dipole Moment (Debye)
         X      -0.6016      Y       1.8370      Z       5.1658
       Tot       5.5156
    Quadrupole Moments (Debye-Ang)
        XX    -774.0490     XY      32.5552     YY    -791.4454
        XZ       0.3020     YZ       6.2186     ZZ    -795.0097

 Total job time:  884.54s(wall), 7520.76s(cpu)
        *  Thank you very much for using Q-Chem.  Have a nice day.  *
