 Q-Chem 4.4, Q-Chem, Inc., Pleasanton, CA (2016)
 Q-Chem 4.4.2 for Intel X86 Linux

User input:
--------------------------------------------------------------
$comment
SP
$end

$rem
MEM_STATIC 5000
MEM_TOTAL 20000
JOBTYPE SP
EXCHANGE B3LYP
BASIS 6-31g(d,p)
$end

$molecule
0 1
O          -9.273000     33.045000    -13.414000
C          -8.391000     33.976000    -14.116000
H          -7.338000     33.697000    -14.244000
H          -8.582000     34.916000    -13.585000
H          -8.705000     34.191000    -15.145000
O          -8.228000     33.576000    -11.549000
C          -9.066000     32.971000    -12.093000
C         -10.130000     32.205000    -11.372000
H         -11.109000     32.552000    -11.724000
H         -10.044000     32.554000    -10.336000
C          -9.946000     30.717000    -11.639000
H          -9.846000     30.621000    -12.727000
H          -8.976000     30.334000    -11.298000
C         -11.155000     29.944000    -10.998000
H         -11.184000     30.303000     -9.962000
H         -12.112000     30.139000    -11.499000
C         -10.977000     28.483000    -11.089000
C         -11.061000     27.930000    -12.446000
C          -9.870000     27.568000    -13.223000
H          -8.951000     27.721000    -12.665000
C          -9.897000     27.261000    -14.594000
H          -8.963000     26.905000    -15.019000
C         -11.076000     27.304000    -15.260000
H         -11.101000     27.174000    -16.338000
C         -12.243000     27.663000    -14.591000
H         -13.105000     27.789000    -15.239000
C         -12.243000     27.932000    -13.194000
H         -13.089000     28.408000    -12.706000
C         -12.579000     23.691000     -8.968000
C         -10.266000     23.299000     -9.501000
C          -8.800000     23.169000     -5.272000
C         -13.014000     27.765000     -6.126000
C          -7.605000     26.410000     -5.377000
C         -11.477000     23.938000     -9.833000
C         -10.789000     27.976000     -4.456000
C         -10.803000     22.206000     -6.254000
C          -8.183000     26.643000     -9.288000
C         -12.027000     28.679000     -6.435000
C         -10.107000     27.816000    -10.018000
C          -8.292000     27.817000     -8.540000
C          -9.808000     28.914000     -6.513000
C          -9.569000     27.316000     -4.200000
C          -9.806000     25.326000    -10.344000
C          -9.007000     24.951000     -3.981000
C         -11.592000     27.581000    -10.013000
C         -12.302000     28.080000     -8.861000
C          -7.898000     25.107000     -4.781000
C         -12.898000     24.556000     -4.702000
C         -10.949000     23.539000     -4.200000
C         -11.579000     22.805000     -5.225000
C         -11.281000     22.250000     -7.584000
C         -13.314000     27.182000     -8.455000
C          -9.246000     26.600000    -10.158000
C         -10.172000     22.483000     -8.390000
C         -10.877000     28.791000     -5.603000
C          -9.248000     24.169000     -9.819000
C          -7.789000     27.753000     -7.211000
C         -13.845000     25.748000     -6.609000
C          -9.405000     22.381000     -6.242000
C          -9.417000     28.548000     -8.916000
C         -13.229000     23.445000     -6.884000
C          -8.622000     28.291000     -6.192000
C          -7.550000     25.484000     -8.791000
C         -11.214000     25.885000     -3.575000
C         -11.803000     27.087000     -4.115000
C          -7.034000     25.434000     -7.501000
C         -13.642000     27.066000     -7.160000
C         -11.668000     28.791000     -7.805000
C         -13.445000     25.741000     -5.259000
C         -12.140000     26.241000    -10.164000
C          -7.961000     23.407000     -7.901000
C         -10.280000     28.952000     -7.821000
C          -7.151000     26.585000     -6.704000
C         -13.830000     24.616000     -7.397000
C          -7.740000     24.013000     -5.611000
C         -12.509000     22.846000     -7.897000
C          -9.558000     23.708000     -4.211000
C          -8.143000     24.262000     -9.001000
C          -7.306000     24.155000     -6.917000
C         -11.215000     25.162000    -10.406000
C         -13.201000     26.043000     -9.277000
C         -11.737000     24.651000     -3.910000
C          -8.999000     22.465000     -7.586000
C          -8.467000     27.484000     -5.051000
C         -12.913000     26.992000     -4.959000
C          -9.851000     26.027000     -3.689000
C         -13.484000     24.744000     -8.727000
C         -12.798000     23.416000     -5.534000
O         -22.491000     28.342000      0.623000
C         -21.202000     27.643000      0.837000
H         -20.496000     28.294000      1.367000
H         -20.796000     27.176000     -0.069000
H         -21.431000     26.898000      1.608000
O         -23.501000     26.349000      0.088000
C         -23.585000     27.570000      0.183000
C         -24.770000     28.450000     -0.250000
H         -24.684000     29.273000      0.470000
H         -25.707000     27.890000     -0.140000
C         -24.543000     28.858000     -1.698000
H         -25.256000     29.669000     -1.893000
H         -23.517000     29.194000     -1.893000
C         -24.832000     27.719000     -2.712000
H         -24.640000     26.713000     -2.317000
H         -25.916000     27.871000     -2.778000
C         -24.270000     27.974000     -4.149000
C         -24.942000     29.165000     -4.857000
C         -24.194000     30.240000     -5.216000
H         -23.166000     30.362000     -4.889000
C         -24.658000     31.111000     -6.234000
H         -24.072000     31.982000     -6.511000
C         -25.814000     30.935000     -6.931000
H         -26.087000     31.563000     -7.774000
C         -26.634000     29.853000     -6.502000
H         -27.554000     29.602000     -7.021000
C         -26.200000     29.038000     -5.436000
H         -26.832000     28.213000     -5.121000
C         -22.196000     25.559000     -8.639000
C         -20.708000     27.411000     -8.257000
C         -17.037000     25.083000     -6.919000
C         -22.523000     22.780000     -4.292000
C         -17.768000     25.697000     -3.508000
C         -22.015000     26.881000     -8.311000
C         -20.033000     22.989000     -2.978000
C         -18.686000     24.613000     -8.658000
C         -20.583000     28.439000     -4.386000
C         -22.356000     23.675000     -3.245000
C         -22.778000     27.769000     -4.216000
C         -20.658000     27.724000     -3.170000
C         -20.936000     25.138000     -2.268000
C         -18.763000     23.579000     -3.046000
C         -21.821000     28.243000     -6.459000
C         -17.232000     23.857000     -4.982000
C         -23.691000     26.804000     -4.925000
C         -23.689000     25.356000     -4.475000
C         -17.099000     25.191000     -4.648000
C         -20.192000     21.954000     -6.894000
C         -18.100000     22.871000     -6.986000
C         -18.816000     23.284000     -8.136000
C         -19.829000     25.338000     -9.134000
C         -23.687000     24.531000     -5.512000
C         -21.768000     28.425000     -5.058000
C         -19.618000     26.640000     -8.723000
C         -21.142000     23.804000     -2.608000
C         -20.604000     28.286000     -7.142000
C         -19.538000     26.971000     -2.797000
C         -22.551000     22.643000     -6.625000
C         -17.764000     25.477000     -8.036000
C         -21.929000     27.257000     -3.082000
C         -21.186000     23.457000     -8.516000
C         -19.678000     25.663000     -2.319000
C         -19.341000     28.459000     -5.135000
C         -18.985000     22.182000     -4.792000
C         -20.211000     22.165000     -4.075000
C         -18.307000     27.673000     -4.670000
C         -23.133000     23.232000     -5.460000
C         -22.919000     24.937000     -3.318000
C         -21.436000     21.918000     -6.137000
C         -23.625000     26.608000     -6.382000
C         -18.298000     27.596000     -6.959000
C         -22.061000     25.859000     -2.675000
C         -18.341000     26.989000     -3.467000
C         -22.422000     23.395000     -7.809000
C         -16.967000     25.956000     -5.795000
C         -21.085000     24.748000     -9.066000
C         -17.193000     23.775000     -6.401000
C         -19.340000     28.403000     -6.516000
C         -17.613000     27.204000     -5.830000
C         -22.702000     27.372000     -7.185000
C         -23.615000     25.262000     -6.744000
C         -18.972000     22.063000     -6.205000
C         -18.412000     26.727000     -8.019000
C         -18.586000     24.911000     -2.747000
C         -21.425000     21.982000     -4.705000
C         -18.098000     23.014000     -4.162000
C         -22.987000     24.742000     -7.819000
C         -20.062000     22.688000     -8.094000
$end

--------------------------------------------------------------

             Standard Nuclear Orientation (Angstroms)
    I     Atom           X                Y                Z
 ----------------------------------------------------------------
    1      O      -8.7842237548     7.3532641091    -1.6737294215
    2      C      -9.8947162354     8.2251689259    -2.0533047646
    3      H     -10.9144513181     7.8274169579    -1.9828226185
    4      H      -9.5798681016     8.5786239083    -3.0422346045
    5      H      -9.9581119345     9.1442226201    -1.4575000210
    6      O      -9.1600430864     6.1973646898    -3.5108106288
    7      C      -8.5280861701     6.3676758044    -2.5434277779
    8      C      -7.2479163293     5.6478100471    -2.2576805639
    9      H      -6.4634227985     6.3913649314    -2.0720733598
   10      H      -6.9945219021     5.1788771846    -3.2160052660
   11      C      -7.4409346443     4.7398080225    -1.0503838922
   12      H      -7.8986800467     5.3682357099    -0.2767510411
   13      H      -8.2189934364     3.9809892111    -1.2010110068
   14      C      -6.0512477803     4.1079651335    -0.6767049076
   15      H      -5.6902515122     3.6775192724    -1.6187325373
   16      H      -5.3306882795     4.8387347799    -0.2872890249
   17      C      -6.1803244374     3.1034930101     0.3951444147
   18      C      -6.5346255026     3.6431959219     1.7132891421
   19      C      -7.8998242315     3.5809243701     2.2477128357
   20      H      -8.5818142572     3.0647456530     1.5785468347
   21      C      -8.3240511079     4.2853861993     3.3871794164
   22      H      -9.3288543336     4.0639682931     3.7351184750
   23      C      -7.4435366404     5.0809002569     4.0408595038
   24      H      -7.7788190448     5.7133138182     4.8577118752
   25      C      -6.1373102381     5.2062347560     3.5756769061
   26      H      -5.5525317240     5.9606001134     4.0931621688
   27      C      -5.6771132129     4.4654793178     2.4516350569
   28      H      -4.7393519129     4.7043840852     1.9577076772
   29      C      -3.7304751975    -1.1987174574     2.7440873250
   30      C      -6.0660877635    -1.7515543390     2.9084263768
   31      C      -6.0060862420    -5.0526956311    -0.1163650187
   32      C      -2.5520476666    -0.1335961092    -1.9824854363
   33      C      -7.3177453642    -3.0565480703    -2.6139791327
   34      C      -5.0705882351    -0.7545882138     2.9186847516
   35      C      -4.0876973689    -1.7060856914    -3.7009447770
   36      C      -4.4106501122    -4.5210290941     1.6373784771
   37      C      -8.1094853482    -0.1384597684    -0.0562061834
   38      C      -3.6273779451     0.4366776344    -2.6332531748
   39      C      -6.6038768130     1.6897335859    -0.0180355409
   40      C      -7.8092940806     0.2111309302    -1.3742852957
   41      C      -5.7502435231     0.0434886275    -3.2025634091
   42      C      -5.1163899706    -2.6696480703    -3.6473250677
   43      C      -6.8794932153     0.0919599138     1.9231321209
   44      C      -5.4587022949    -4.6140212096    -2.2123110024
   45      C      -5.1955178634     1.9301494565     0.4501527527
   46      C      -4.1618796836     1.7067533899    -0.5306078250
   47      C      -6.7790921646    -4.2782713885    -2.0172221770
   48      C      -2.0274468138    -3.3429906839    -0.6545195447
   49      C      -3.6410991427    -4.9181129809    -0.6576676427
   50      C      -3.3613472113    -4.5750873241     0.6803731846
   51      C      -4.4137381681    -3.4760216902     2.5898856895
   52      C      -3.0309749820     1.0900380454     0.0491341349
   53      C      -7.4029794305     0.7009262088     0.7714402203
   54      C      -5.7397960918    -3.0827344459     2.7337659404
   55      C      -4.4317669319    -0.3533362171    -3.5027958548
   56      C      -7.1715194270    -1.2144044456     2.2888790991
   57      C      -7.8290942548    -0.8539768402    -2.3168877520
   58      C      -1.8393262529    -0.9877447508    -0.0448071131
   59      C      -5.7286598690    -4.7906102114     1.2186311762
   60      C      -6.9138552939     1.2777245530    -1.4182104936
   61      C      -2.4025404034    -2.5757057024     1.6640111444
   62      C      -6.7267280449    -0.9281890724    -3.2118599773
   63      C      -8.4813786180    -1.4481828665     0.3143336958
   64      C      -3.2912976185    -3.6289461293    -2.7022345216
   65      C      -2.9773415700    -2.2728224278    -3.0839217049
   66      C      -8.5272591526    -2.4812158264    -0.6149638239
   67      C      -2.2788750747     0.2392006747    -0.6639482571
   68      C      -4.4338104410     1.3260456108    -1.8736373295
   69      C      -1.7579130880    -1.9989154933    -1.0212571251
   70      C      -4.6683435869     1.2487449335     1.6233876645
   71      C      -7.6957503739    -3.3711226981     1.2941503452
   72      C      -5.7512395424     1.0680662883    -2.2616427829
   73      C      -8.2018761696    -2.1779719440    -1.9475808215
   74      C      -2.0667029587    -1.2557842629     1.2890023387
   75      C      -7.1568691797    -4.5311969551    -0.7118436171
   76      C      -3.3937996700    -2.5169193610     2.6217789829
   77      C      -4.9600328725    -5.1746718276    -1.0553539195
   78      C      -7.9374602673    -1.9959955302     1.4514735787
   79      C      -8.0135369973    -3.6840355211    -0.0317011650
   80      C      -5.5685911523     0.4054158404     2.3695648296
   81      C      -3.3616284925     0.8128409378     1.3906273401
   82      C      -2.8549108864    -4.1212772388    -1.4874560650
   83      C      -6.5691379329    -3.9508712317     1.9714014400
   84      C      -6.4480323824    -2.2897605571    -3.4254175094
   85      C      -2.2154087267    -1.4739830128    -2.2267315676
   86      C      -4.6175091839    -3.8281965153    -3.0061936761
   87      C      -2.8481335844    -0.3782906840     2.0131371302
   88      C      -2.3492211413    -3.6106771054     0.6970089463
   89      O       8.6115754687    -1.6162405020    -4.9608647099
   90      C       7.5056629154    -2.5979511095    -4.8653675501
   91      H       6.9908444346    -2.6907781170    -5.8294640590
   92      H       6.8394792246    -2.4323300199    -4.0094879179
   93      H       8.0170540194    -3.5653707730    -4.7983949177
   94      O       9.4737804010    -2.3700803367    -2.9692065670
   95      C       9.5272082464    -1.5609556184    -3.8908272349
   96      C      10.4527005283    -0.3364255162    -3.9913462126
   97      H      10.5767361579    -0.2658212732    -5.0788917075
   98      H      11.3969572853    -0.5420376290    -3.4719505676
   99      C       9.7299332673     0.8468047486    -3.3650310947
  100      H      10.2956767721     1.7358557163    -3.6710338130
  101      H       8.6838431735     0.9286790498    -3.6853264497
  102      C       9.7120749645     0.8073530865    -1.8135277440
  103      H       9.7128676075    -0.2072967216    -1.3947078081
  104      H      10.7012701890     1.2541266818    -1.6573158294
  105      C       8.6854332934     1.7850136586    -1.1532060913
  106      C       9.0210400677     3.2678250352    -1.3980887459
  107      C       8.1457858782     4.0488123855    -2.0821931694
  108      H       7.2846280370     3.6346091721    -2.5974017395
  109      C       8.1960949984     5.4579279376    -1.9334539572
  110      H       7.5104781281     6.0869936488    -2.4928928172
  111      C       9.0548448490     6.1154133079    -1.1067843242
  112      H       8.9963743832     7.1869257797    -0.9394396874
  113      C      10.0217894222     5.3028077345    -0.4496272849
  114      H      10.7225501125     5.7252005071     0.2640118401
  115      C      10.0132771216     3.9089851627    -0.6643903611
  116      H      10.7528144220     3.2992863214    -0.1538750290
  117      C       5.3304839205     2.5188490793     3.1479101918
  118      C       3.9739337385     3.1451788938     1.2617886243
  119      C       1.0869081184    -0.3691286254     1.2899795717
  120      C       7.2405687463    -2.2113790977     2.3096403357
  121      C       2.8995508635    -2.0071388057    -1.2746893986
  122      C       5.2089742529     3.1708059718     1.9444914737
  123      C       5.3354623509    -3.6214772543     0.7758314130
  124      C       2.0701232263     0.9111227004     3.1225915313
  125      C       5.1182900958     1.2548743282    -2.0810017036
  126      C       7.3957755460    -2.3300920375     0.9359805935
  127      C       7.2702908188     1.2778429502    -1.2660229732
  128      C       5.6341771155    -0.0294606801    -2.3635794266
  129      C       6.3229192077    -2.3508404939    -1.0539557820
  130      C       4.0910609208    -3.5142016859     0.1389789707
  131      C       5.5892521545     2.8348274326    -0.3060842612
  132      C       1.9837724374    -2.4548182147     0.9176848899
  133      C       7.9338802693     1.3279310861     0.0847602143
  134      C       8.1527256498     0.0214438692     0.8225988495
  135      C       1.9088362681    -1.7853392500    -0.2885420731
  136      C       4.2081559023    -1.6968310335     4.1605735149
  137      C       2.1676894114    -1.5715778022     3.1375265330
  138      C       2.4317711287    -0.3242282857     3.7540531183
  139      C       2.9489100600     2.0448955637     3.1532965023
  140      C       7.8387755911     0.1358606213     2.1049179079
  141      C       6.0051044437     2.0163758407    -1.3812297701
  142      C       2.8282483868     2.6195911069     1.9027718950
  143      C       6.4644279052    -2.9963184021     0.1711668888
  144      C       4.2123099515     2.9846670140    -0.1300011290
  145      C       4.7434608025    -1.1079915314    -2.3008605910
  146      C       6.4836023426    -0.7494818905     3.9686461884
  147      C       1.3733957338     0.8461052670     1.9003773379
  148      C       6.8804788695    -0.0642006165    -1.8280431769
  149      C       4.5222325450     0.6983105246     4.3669270436
  150      C       5.0986199798    -2.2967720423    -1.6530868220
  151      C       3.6965980106     1.4256979343    -1.8495369973
  152      C       3.7746322923    -3.2652894578     2.3497084037
  153      C       5.1703138506    -3.4171603454     2.1341574319
  154      C       2.9194042954     0.2866932475    -1.8069312168
  155      C       7.3970989269    -0.9540150318     2.8885720314
  156      C       7.8405490512    -1.2495341284     0.1946890624
  157      C       5.6351913786    -1.8835473658     3.9356562836
  158      C       7.3878992369     2.1412103093     1.1829872479
  159      C       2.1397267709     1.7509511467    -0.2278229994
  160      C       7.2083364223    -1.2706125568    -1.0700480216
  161      C       3.3908956149    -0.9786894190    -2.1114367884
  162      C       5.9260522315     0.5245263616     4.1923465396
  163      C       1.3603777812    -0.5276864331    -0.0994371279
  164      C       4.1801546340     1.9337812998     3.7872921012
  165      C       1.4706442273    -1.5800887320     1.9143562360
  166      C       3.2308166959     2.3036910267    -0.8890819507
  167      C       1.8966774143     0.5406543098    -0.8390828271
  168      C       6.2125741242     2.9528079285     0.9821037393
  169      C       7.3195359527     1.4427726536     2.3873008709
  170      C       3.2897169598    -2.4131489525     3.3742144698
  171      C       1.9290831329     1.8818486878     1.1250450990
  172      C       3.9630211402    -2.8349323229    -1.0514633618
  173      C       6.1065816893    -2.7931393930     2.9330224925
  174      C       3.1150165153    -3.3482790396     1.1522474415
  175      C       6.3900167710     1.6229064502     3.3485266020
  176      C       3.6451000080    -0.4249890513     4.4076403725
 ----------------------------------------------------------------

    9   -5804.2604703989      8.17E-06 Convergence criterion met
 Total energy in the final basis set = -5804.2604703989

                    Orbital Energies (a.u.)
 --------------------------------------------------------------

 Alpha MOs
 -- Occupied --
-19.190 -19.184 -19.138 -19.129 -10.318 -10.303 -10.245 -10.242
-10.241 -10.241 -10.238 -10.234 -10.233 -10.232 -10.226 -10.226
-10.225 -10.223 -10.222 -10.222 -10.221 -10.221 -10.221 -10.221
-10.220 -10.220 -10.219 -10.219 -10.219 -10.219 -10.218 -10.218
-10.218 -10.218 -10.218 -10.217 -10.217 -10.217 -10.217 -10.217
-10.217 -10.217 -10.216 -10.216 -10.216 -10.216 -10.216 -10.216
-10.216 -10.216 -10.215 -10.215 -10.215 -10.215 -10.215 -10.215
-10.214 -10.214 -10.214 -10.214 -10.214 -10.214 -10.214 -10.214
-10.214 -10.213 -10.213 -10.213 -10.213 -10.213 -10.213 -10.213
-10.213 -10.213 -10.213 -10.213 -10.212 -10.212 -10.212 -10.212
-10.212 -10.212 -10.212 -10.212 -10.211 -10.211 -10.211 -10.211
-10.211 -10.211 -10.211 -10.211 -10.211 -10.211 -10.211 -10.211
-10.210 -10.210 -10.210 -10.210 -10.210 -10.210 -10.210 -10.210
-10.210 -10.210 -10.209 -10.209 -10.209 -10.209 -10.209 -10.209
-10.209 -10.209 -10.208 -10.208 -10.208 -10.208 -10.208 -10.207
-10.206 -10.206 -10.206 -10.206 -10.206 -10.205 -10.204 -10.204
-10.204 -10.204 -10.203 -10.203 -10.203 -10.202 -10.202 -10.202
-10.201 -10.200 -10.200 -10.200 -10.200 -10.199 -10.199 -10.197
-10.196 -10.195 -10.195 -10.194  -1.111  -1.073  -1.022  -0.996
 -0.984  -0.983  -0.968  -0.964  -0.964  -0.963  -0.961  -0.960
 -0.938  -0.933  -0.927  -0.926  -0.925  -0.923  -0.923  -0.922
 -0.921  -0.921  -0.898  -0.896  -0.890  -0.888  -0.887  -0.885
 -0.877  -0.877  -0.858  -0.854  -0.842  -0.842  -0.840  -0.839
 -0.838  -0.836  -0.824  -0.820  -0.810  -0.809  -0.799  -0.797
 -0.797  -0.796  -0.795  -0.793  -0.791  -0.790  -0.786  -0.782
 -0.774  -0.772  -0.769  -0.768  -0.766  -0.766  -0.765  -0.764
 -0.748  -0.747  -0.743  -0.741  -0.733  -0.731  -0.719  -0.716
 -0.715  -0.714  -0.712  -0.711  -0.710  -0.709  -0.709  -0.708
 -0.707  -0.705  -0.704  -0.704  -0.700  -0.698  -0.674  -0.674
 -0.660  -0.659  -0.659  -0.653  -0.649  -0.645  -0.633  -0.630
 -0.629  -0.627  -0.626  -0.622  -0.622  -0.619  -0.617  -0.617
 -0.617  -0.614  -0.613  -0.612  -0.612  -0.611  -0.609  -0.607
 -0.607  -0.607  -0.603  -0.599  -0.566  -0.565  -0.561  -0.561
 -0.560  -0.559  -0.559  -0.558  -0.555  -0.555  -0.554  -0.553
 -0.537  -0.535  -0.534  -0.531  -0.529  -0.528  -0.525  -0.524
 -0.523  -0.522  -0.518  -0.517  -0.517  -0.515  -0.514  -0.512
 -0.511  -0.506  -0.501  -0.499  -0.495  -0.490  -0.489  -0.486
 -0.484  -0.483  -0.482  -0.480  -0.480  -0.477  -0.473  -0.473
 -0.472  -0.471  -0.470  -0.469  -0.469  -0.467  -0.466  -0.465
 -0.464  -0.463  -0.463  -0.462  -0.461  -0.460  -0.459  -0.459
 -0.457  -0.455  -0.454  -0.450  -0.450  -0.447  -0.446  -0.444
 -0.442  -0.442  -0.441  -0.439  -0.438  -0.436  -0.433  -0.432
 -0.430  -0.429  -0.427  -0.427  -0.426  -0.425  -0.423  -0.423
 -0.421  -0.421  -0.420  -0.420  -0.419  -0.418  -0.418  -0.418
 -0.416  -0.416  -0.415  -0.414  -0.414  -0.413  -0.412  -0.412
 -0.411  -0.410  -0.410  -0.409  -0.404  -0.399  -0.399  -0.397
 -0.394  -0.394  -0.392  -0.391  -0.390  -0.389  -0.387  -0.385
 -0.383  -0.383  -0.377  -0.373  -0.370  -0.369  -0.367  -0.366
 -0.364  -0.363  -0.362  -0.360  -0.360  -0.359  -0.358  -0.357
 -0.356  -0.355  -0.354  -0.354  -0.352  -0.352  -0.350  -0.350
 -0.348  -0.348  -0.347  -0.346  -0.346  -0.344  -0.344  -0.343
 -0.342  -0.341  -0.340  -0.340  -0.339  -0.337  -0.336  -0.335
 -0.334  -0.332  -0.330  -0.329  -0.328  -0.328  -0.326  -0.324
 -0.309  -0.305  -0.303  -0.293  -0.288  -0.285  -0.272  -0.269
 -0.268  -0.267  -0.266  -0.265  -0.265  -0.264  -0.264  -0.262
 -0.261  -0.261  -0.260  -0.259  -0.258  -0.256  -0.255  -0.254
 -0.252  -0.248  -0.242  -0.240  -0.224  -0.223  -0.214  -0.211
 -0.209  -0.207  -0.204  -0.202  -0.197  -0.195

          Ground-State Mulliken Net Atomic Charges

     Atom                 Charge (a.u.)
  ----------------------------------------
      1 O                    -0.464018
      2 C                    -0.086924
      3 H                     0.130260
      4 H                     0.130145
      5 H                     0.116869
      6 O                    -0.447049
      7 C                     0.569201
      8 C                    -0.236255
      9 H                     0.123102
     10 H                     0.130213
     11 C                    -0.205874
     12 H                     0.134282
     13 H                     0.115999
     14 C                    -0.172863
     15 H                     0.114970
     16 H                     0.106056
     17 C                     0.000751
     18 C                     0.110701
     19 C                    -0.114732
     20 H                     0.085184
     21 C                    -0.081837
     22 H                     0.094980
     23 C                    -0.075894
     24 H                     0.090173
     25 C                    -0.089850
     26 H                     0.091350
     27 C                    -0.121938
     28 H                     0.083441
     29 C                     0.012183
     30 C                    -0.010642
     31 C                     0.015694
     32 C                     0.001798
     33 C                    -0.006586
     34 C                    -0.003144
     35 C                     0.015872
     36 C                    -0.006363
     37 C                     0.021348
     38 C                    -0.035679
     39 C                    -0.080105
     40 C                     0.007357
     41 C                     0.015092
     42 C                    -0.014151
     43 C                    -0.004608
     44 C                     0.032185
     45 C                    -0.077649
     46 C                     0.033819
     47 C                    -0.021500
     48 C                    -0.024808
     49 C                     0.001651
     50 C                    -0.005967
     51 C                    -0.008909
     52 C                    -0.002037
     53 C                     0.020596
     54 C                     0.025028
     55 C                    -0.013307
     56 C                     0.010330
     57 C                    -0.024997
     58 C                    -0.002274
     59 C                     0.001140
     60 C                    -0.009572
     61 C                    -0.002255
     62 C                    -0.001726
     63 C                     0.013147
     64 C                    -0.010106
     65 C                    -0.010813
     66 C                    -0.021738
     67 C                     0.022634
     68 C                    -0.004038
     69 C                     0.004486
     70 C                     0.023253
     71 C                    -0.005298
     72 C                     0.011367
     73 C                    -0.005236
     74 C                     0.004106
     75 C                     0.012277
     76 C                     0.007359
     77 C                    -0.021405
     78 C                     0.005706
     79 C                     0.007707
     80 C                    -0.004724
     81 C                     0.013877
     82 C                     0.022418
     83 C                    -0.034703
     84 C                     0.003884
     85 C                     0.003207
     86 C                     0.011349
     87 C                    -0.032959
     88 C                     0.002258
     89 O                    -0.493867
     90 C                    -0.085962
     91 H                     0.123050
     92 H                     0.135509
     93 H                     0.130107
     94 O                    -0.468301
     95 C                     0.588354
     96 C                    -0.232150
     97 H                     0.130954
     98 H                     0.129127
     99 C                    -0.196578
    100 H                     0.115597
    101 H                     0.118217
    102 C                    -0.208587
    103 H                     0.138142
    104 H                     0.102283
    105 C                     0.016227
    106 C                     0.099018
    107 C                    -0.123536
    108 H                     0.097555
    109 C                    -0.093118
    110 H                     0.084266
    111 C                    -0.070011
    112 H                     0.096171
    113 C                    -0.096602
    114 H                     0.092920
    115 C                    -0.110109
    116 H                     0.087279
    117 C                    -0.010486
    118 C                    -0.005786
    119 C                     0.006910
    120 C                    -0.018708
    121 C                    -0.000442
    122 C                    -0.002195
    123 C                    -0.013016
    124 C                    -0.003500
    125 C                    -0.019067
    126 C                     0.015036
    127 C                    -0.080004
    128 C                     0.027341
    129 C                     0.007260
    130 C                    -0.015379
    131 C                     0.035690
    132 C                    -0.013796
    133 C                    -0.062406
    134 C                     0.023058
    135 C                     0.033942
    136 C                    -0.000767
    137 C                    -0.002948
    138 C                     0.002354
    139 C                    -0.003041
    140 C                     0.016003
    141 C                     0.005929
    142 C                     0.003213
    143 C                    -0.005618
    144 C                    -0.007265
    145 C                     0.003765
    146 C                    -0.014884
    147 C                    -0.007956
    148 C                     0.014668
    149 C                     0.018043
    150 C                    -0.017770
    151 C                    -0.009297
    152 C                     0.009191
    153 C                     0.032169
    154 C                     0.017642
    155 C                     0.014823
    156 C                    -0.023473
    157 C                    -0.006383
    158 C                     0.014597
    159 C                     0.027822
    160 C                     0.027879
    161 C                    -0.031957
    162 C                    -0.015352
    163 C                    -0.015864
    164 C                    -0.008178
    165 C                    -0.010236
    166 C                    -0.027465
    167 C                    -0.019341
    168 C                    -0.015032
    169 C                     0.021026
    170 C                    -0.001766
    171 C                     0.006234
    172 C                     0.018645
    173 C                    -0.014156
    174 C                    -0.013106
    175 C                     0.012211
    176 C                    -0.011033
  ----------------------------------------
  Sum of atomic charges =     0.000000

                    Cartesian Multipole Moments
 -----------------------------------------------------------------
    Charge (ESU x 10^10)
                 0.0000
    Dipole Moment (Debye)
         X       1.4294      Y       5.5388      Z      -0.1267
       Tot       5.7217
    Quadrupole Moments (Debye-Ang)
        XX    -780.2957     XY      -0.0981     YY    -775.6787
        XZ     -31.6328     YZ      12.1566     ZZ    -811.8373

 Total job time:  849.37s(wall), 7209.69s(cpu)
        *  Thank you very much for using Q-Chem.  Have a nice day.  *
