 Q-Chem 4.4, Q-Chem, Inc., Pleasanton, CA (2016)
 Q-Chem 4.4.2 for Intel X86 Linux

User input:
--------------------------------------------------------------
$comment
SP
$end

$rem
MEM_STATIC 5000
MEM_TOTAL 20000
JOBTYPE SP
EXCHANGE B3LYP
BASIS 6-31g(d,p)
$end

$molecule
0 1
O         -23.787000      5.582000     -2.108000
C         -24.490000      6.378000     -3.074000
H         -24.100000      6.112000     -4.064000
H         -24.381000      7.424000     -2.761000
H         -25.566000      6.177000     -3.146000
O         -24.785000      3.626000     -2.827000
C         -23.974000      4.227000     -2.112000
C         -23.153000      3.567000     -1.107000
H         -23.140000      4.196000     -0.208000
H         -22.169000      3.537000     -1.592000
C         -23.669000      2.209000     -0.709000
H         -24.655000      2.307000     -0.238000
H         -23.816000      1.548000     -1.572000
C         -22.685000      1.562000      0.216000
H         -21.685000      1.532000     -0.234000
H         -22.480000      2.156000      1.115000
C         -23.115000      0.131000      0.627000
C         -24.399000     -0.021000      1.408000
C         -25.610000     -0.608000      0.905000
H         -25.762000     -0.888000     -0.133000
C         -26.656000     -0.993000      1.835000
H         -27.496000     -1.539000      1.416000
C         -26.540000     -0.639000      3.202000
H         -27.270000     -0.968000      3.935000
C         -25.524000      0.234000      3.579000
H         -25.478000      0.587000      4.605000
C         -24.442000      0.471000      2.719000
H         -23.570000      0.955000      3.149000
C         -21.044000     -4.391000      2.842000
C         -22.657000     -5.285000      1.339000
C         -19.794000     -7.032000     -1.641000
C         -17.858000     -1.379000      0.385000
C         -20.133000     -4.434000     -3.917000
C         -22.271000     -4.258000      2.205000
C         -17.647000     -2.332000     -2.275000
C         -19.706000     -6.975000      0.737000
C         -23.284000     -2.866000     -1.778000
C         -18.568000     -0.725000     -0.676000
C         -22.809000     -1.022000     -0.363000
C         -22.451000     -2.067000     -2.482000
C         -19.811000     -1.190000     -2.585000
C         -18.054000     -3.354000     -3.129000
C         -23.446000     -3.312000      0.554000
C         -18.398000     -5.730000     -2.797000
C         -21.944000     -0.791000      0.925000
C         -20.485000     -0.516000      0.835000
C         -19.666000     -5.620000     -3.346000
C         -17.038000     -4.734000      0.871000
C         -17.746000     -6.356000     -0.531000
C         -18.363000     -6.452000      0.700000
C         -20.620000     -6.460000      1.679000
C         -19.805000     -1.189000      1.889000
C         -23.459000     -2.374000     -0.497000
C         -21.853000     -6.425000      1.091000
C         -18.520000     -1.224000     -2.037000
C         -23.488000     -4.714000      0.321000
C         -21.523000     -2.672000     -3.405000
C         -17.978000     -2.825000      2.096000
C         -20.409000     -7.247000     -0.435000
C         -22.026000     -0.996000     -1.701000
C         -18.823000     -4.995000      2.532000
C         -20.199000     -2.178000     -3.445000
C         -23.236000     -4.269000     -2.063000
C         -16.884000     -4.331000     -1.477000
C         -16.939000     -2.936000     -1.206000
C         -22.388000     -4.838000     -3.001000
C         -18.463000     -1.629000      1.661000
C         -19.927000     -0.365000     -0.456000
C         -17.073000     -3.352000      1.144000
C         -21.986000     -1.932000      1.913000
C         -22.529000     -6.266000     -1.254000
C         -20.662000     -0.642000     -1.626000
C         -21.469000     -4.009000     -3.689000
C         -18.826000     -3.630000      2.813000
C         -20.572000     -6.392000     -2.650000
C         -20.172000     -5.456000      2.561000
C         -18.429000     -6.665000     -1.758000
C         -23.379000     -5.148000     -0.990000
C         -21.941000     -6.014000     -2.494000
C         -22.742000     -3.072000      1.721000
C         -20.703000     -2.006000      2.537000
C         -16.920000     -5.207000     -0.413000
C         -21.769000     -6.894000     -0.248000
C         -19.367000     -3.308000     -3.705000
C         -17.008000     -2.429000      0.115000
C         -17.577000     -4.562000     -2.691000
C         -20.190000     -3.256000      2.933000
C         -17.899000     -5.487000      1.608000
O         -20.096000    -21.552000      5.591000
C         -20.520000    -22.911000      5.735000
H         -19.627000    -23.518000      5.542000
H         -21.306000    -23.181000      5.019000
H         -20.725000    -23.085000      6.798000
O         -22.214000    -20.843000      5.632000
C         -21.008000    -20.623000      5.540000
C         -20.375000    -19.309000      5.521000
H         -19.840000    -19.204000      4.569000
H         -19.594000    -19.356000      6.290000
C         -21.320000    -18.134000      5.863000
H         -22.197000    -18.188000      5.206000
H         -21.726000    -18.173000      6.882000
C         -20.602000    -16.748000      5.662000
H         -19.751000    -16.680000      6.352000
H         -20.148000    -16.698000      4.665000
C         -21.511000    -15.477000      5.724000
C         -22.052000    -15.164000      7.094000
C         -21.297000    -14.285000      7.920000
H         -20.356000    -13.869000      7.573000
C         -21.712000    -14.093000      9.287000
H         -21.216000    -13.436000      9.995000
C         -22.901000    -14.687000      9.760000
H         -23.099000    -14.603000     10.825000
C         -23.641000    -15.494000      8.876000
H         -24.483000    -16.060000      9.262000
C         -23.188000    -15.752000      7.606000
H         -23.742000    -16.487000      7.031000
C         -25.943000    -13.143000      3.520000
C         -24.462000    -11.226000      4.069000
C         -23.351000    -10.167000     -0.213000
C         -23.469000    -16.649000      0.722000
C         -20.297000    -11.834000     -0.038000
C         -25.012000    -12.550000      4.419000
C         -21.579000    -15.147000     -0.877000
C         -25.495000    -10.848000      0.760000
C         -20.573000    -12.216000      3.993000
C         -22.069000    -16.546000      1.063000
C         -21.310000    -14.388000      4.665000
C         -19.928000    -13.198000      3.195000
C         -20.261000    -15.151000      1.158000
C         -21.128000    -13.859000     -1.146000
C         -22.848000    -12.408000      4.984000
C         -22.229000    -11.732000     -1.484000
C         -22.460000    -15.277000      4.581000
C         -22.739000    -16.248000      3.404000
C         -21.311000    -11.057000     -0.631000
C         -25.396000    -14.009000     -0.649000
C         -24.604000    -11.988000     -1.223000
C         -25.625000    -11.813000     -0.278000
C         -25.886000    -11.196000      2.044000
C         -24.096000    -16.188000      3.047000
C         -21.531000    -12.910000      4.818000
C         -24.903000    -10.576000      2.857000
C         -21.155000    -15.778000      0.309000
C         -23.150000    -11.154000      4.488000
C         -19.589000    -12.900000      1.850000
C         -25.505000    -15.625000      1.141000
C         -24.356000    -10.050000      0.757000
C         -20.438000    -14.477000      3.447000
C         -26.516000    -13.422000      1.333000
C         -19.721000    -13.885000      0.803000
C         -20.940000    -10.975000      3.394000
C         -23.251000    -13.982000     -1.735000
C         -22.956000    -15.233000     -1.200000
C         -20.599000    -10.679000      2.084000
C         -24.497000    -16.402000      1.688000
C         -21.692000    -16.364000      2.387000
C         -25.056000    -15.278000     -0.118000
C         -23.865000    -14.619000      4.681000
C         -22.661000     -9.867000      2.442000
C         -20.627000    -15.483000      2.430000
C         -19.936000    -11.670000      1.280000
C         -26.203000    -14.703000      1.876000
C         -22.006000    -10.151000      0.173000
C         -26.362000    -12.475000      2.394000
C         -23.465000    -11.167000     -1.207000
C         -22.243000    -10.460000      3.618000
C         -21.646000     -9.951000      1.504000
C         -23.985000    -13.258000      4.934000
C         -24.732000    -15.238000      3.767000
C         -24.530000    -13.374000     -1.539000
C         -23.978000     -9.898000      2.118000
C         -20.168000    -13.203000     -0.306000
C         -23.853000    -15.926000     -0.401000
C         -22.153000    -13.152000     -1.730000
C         -25.823000    -14.469000      3.195000
C         -26.134000    -13.109000      0.049000
$end

--------------------------------------------------------------

             Standard Nuclear Orientation (Angstroms)
    I     Atom           X                Y                Z
 ----------------------------------------------------------------
    1      O     -14.1972532795    -2.4562758383    -1.0050596885
    2      C     -15.1937048459    -2.6352735528    -2.0229128675
    3      H     -15.2311231889    -1.7103083536    -2.6111264749
    4      H     -16.1165123431    -2.9375690378    -1.5120217216
    5      H     -14.9678699471    -3.4144972848    -2.7612691324
    6      O     -12.4695885440    -2.4508247276    -2.5393497025
    7      C     -12.8886466485    -2.3279473156    -1.3820085918
    8      C     -12.0177423874    -2.1042379042    -0.2369558125
    9      H     -12.3736601405    -2.7292970301     0.5916783903
   10      H     -12.1712729570    -1.0371840907    -0.0315159839
   11      C     -10.5790167651    -2.4654195882    -0.4985669265
   12      H     -10.4945235457    -3.5400042375    -0.7029433620
   13      H     -10.1758598862    -1.9613677001    -1.3855253387
   14      C      -9.7506980253    -2.0688002134     0.6842564486
   15      H      -9.8953417191    -1.0087048144     0.9264876336
   16      H     -10.0824462546    -2.5331459824     1.6209464289
   17      C      -8.2425352083    -2.3536724518     0.4700725897
   18      C      -7.8177970414    -3.7907834955     0.2802559998
   19      C      -7.3339579342    -4.3561702455    -0.9487015020
   20      H      -7.3446016856    -3.8348403648    -1.9010931578
   21      C      -6.6560910415    -5.6396000418    -0.9253469812
   22      H      -6.2065998040    -5.9639604052    -1.8591697600
   23      C      -6.6237873761    -6.3905068122     0.2757177528
   24      H      -6.0696196918    -7.3213327229     0.3456555936
   25      C      -7.4073792905    -5.9681690251     1.3453571805
   26      H      -7.4649147609    -6.5823721205     2.2391386008
   27      C      -7.9256178295    -4.6653468275     1.3693600609
   28      H      -8.3141320195    -4.3089838613     2.3188873962
   29      C      -3.3918402202    -1.0273734197     2.5570414464
   30      C      -2.8699586351    -1.2873794618     0.2505179869
   31      C      -2.1572181256     3.0405648023    -0.6929211542
   32      C      -7.1181281709     2.2955413006     3.1337605028
   33      C      -5.2631170123     3.5256586666    -2.1635594675
   34      C      -3.6353049943    -1.6763934001     1.3535112354
   35      C      -6.9488768814     4.1598079956     1.0067452958
   36      C      -1.5590908199     1.7569624480     1.2203184341
   37      C      -6.0223258499    -0.5215066168    -2.0810906269
   38      C      -8.0041971112     2.1934609487     2.0103734658
   39      C      -7.4244849655    -1.3154513154    -0.3398877007
   40      C      -7.0246424895     0.3797270946    -1.9759947121
   41      C      -8.0244285582     2.3713554491    -0.3077074722
   42      C      -6.1839826591     4.5242313916    -0.0985064480
   43      C      -4.9418590409    -1.8768010982    -0.4503998704
   44      C      -3.7948579456     4.5450046497    -0.5054309803
   45      C      -7.3327188041    -1.3975662367     1.2238789415
   46      C      -7.6931456437    -0.2355608722     2.0795903568
   47      C      -3.9899162929     3.8181885354    -1.6694823440
   48      C      -3.8039287761     3.3597065397     3.3534323381
   49      C      -2.5998175966     3.9147571720     1.5259239077
   50      C      -2.1372090799     2.7457995630     2.0958339608
   51      C      -1.7482096850     0.3892560850     1.5059726998
   52      C      -6.7893024332    -0.1496624526     3.1759178226
   53      C      -6.1319583488    -1.4847297882    -1.0942614434
   54      C      -1.8837781763    -0.2722873339     0.3180166867
   55      C      -7.9037204984     3.1016736488     0.8840164435
   56      C      -3.6585420890    -1.4936435679    -0.9278356335
   57      C      -6.7445778316     1.7662170217    -2.2559008921
   58      C      -5.2515312452     1.5278472356     4.1131984740
   59      C      -1.5873998444     1.9115294175    -0.1642698264
   60      C      -7.8576239443     0.0609435599    -0.9072824243
   61      C      -3.0067961775     1.0472210729     3.5273794168
   62      C      -7.2947582881     2.7474481780    -1.3996889539
   63      C      -4.7568364971    -0.0367944956    -2.5453414830
   64      C      -4.8471529479     4.7263814597     1.6971980581
   65      C      -6.1084891737     4.2456002605     2.1448266584
   66      C      -4.5115434853     1.2868421270    -2.8777966378
   67      C      -6.4958632259     1.1421103618     3.7160700490
   68      C      -8.2222284352     0.9088801768     1.4383633415
   69      C      -5.0532164849     2.8964403247     3.8120636002
   70      C      -5.9624898204    -1.7567727565     1.7465951248
   71      C      -2.6512437937     0.4783645557    -1.8794364452
   72      C      -8.2436151459     1.0377365207     0.0352266229
   73      C      -5.5424536536     2.2417372564    -2.7030238808
   74      C      -4.2391270429     0.6084961098     4.0080831145
   75      C      -3.0121422009     2.8575806716    -1.8192366666
   76      C      -2.4901020340     0.0454868654     2.6540417161
   77      C      -2.6087946478     4.1238987530     0.1033634655
   78      C      -3.6096292703    -0.5780822993    -1.9662541905
   79      C      -3.2646454408     1.5974669082    -2.4435253955
   80      C      -4.8842671231    -2.0212354228     0.9247099059
   81      C      -5.7819945292    -1.0676192913     2.9849125120
   82      C      -3.7105639570     4.2751599546     2.3338554378
   83      C      -1.8077829422     0.6462015790    -0.7638986710
   84      C      -6.3228663147     3.7896789630    -1.3228450694
   85      C      -6.2266674238     3.3415411721     3.2290600585
   86      C      -4.9269113419     4.9043163347     0.2938507102
   87      C      -4.4979849985    -0.6264817398     3.3580106033
   88      C      -2.8352693452     2.4080867398     3.2661531118
   89      O      13.7925000178     1.6704194773     1.9438611533
   90      C      15.1574776066     1.5264231721     1.5395169360
   91      H      15.6429136681     2.4732295491     1.8060812148
   92      H      15.2573373525     1.3567701262     0.4603515755
   93      H      15.6283028804     0.7977563233     2.2100675940
   94      O      13.2272836520    -0.1912872303     0.8461979104
   95      C      12.9315108701     0.7806458100     1.5384150921
   96      C      11.6340099444     1.0304256084     2.1562721955
   97      H      11.2438889171     1.9744572042     1.7560673351
   98      H      11.8532997718     1.2306508845     3.2123748469
   99      C      10.6471335185    -0.1576456299     2.0843301858
  100      H      10.5604466140    -0.4773447698     1.0383990980
  101      H      10.9860913368    -1.0497312717     2.6265559738
  102      C       9.2260595155     0.2482238951     2.6253843480
  103      H       9.3097047628     0.5256470084     3.6841406414
  104      H       8.8802676111     1.1640506988     2.1311028244
  105      C       8.0678976159    -0.7725165021     2.3757525071
  106      C       8.1726286554    -2.0423513787     3.1783114118
  107      C       7.5201683253    -2.0834892233     4.4422517567
  108      H       6.9788118680    -1.2194711096     4.8155504111
  109      C       7.7340223141    -3.2262187830     5.2944334419
  110      H       7.2747413701    -3.3627708889     6.2687760597
  111      C       8.4932157896    -4.3235432509     4.8364047540
  112      H       8.7166208712    -5.1002273477     5.5625844723
  113      C       9.0598058673    -4.2523122325     3.5502450338
  114      H       9.7510513821    -5.0286336068     3.2374819252
  115      C       8.9342395703    -3.1205143176     2.7834728480
  116      H       9.5079861731    -3.0895713353     1.8628082144
  117      C       5.4361734925    -3.5486072343    -1.5377043260
  118      C       3.6752557103    -3.0637754215     0.1456725414
  119      C       1.4209728402     0.0267671288    -2.3156444813
  120      C       7.9065963916     0.7232647779    -2.9123447195
  121      C       2.9194321070     2.7102024055    -0.6754539616
  122      C       5.0697520759    -3.4319764244    -0.1670316446
  123      C       5.9303276082     2.8322755806    -2.7353132822
  124      C       2.4487157640    -2.0990771796    -2.9727262564
  125      C       4.4135817995     0.2915907104     2.2209049880
  126      C       7.8332574952     1.6297608332    -1.7899471482
  127      C       6.7201537985    -0.2354567402     1.8828464158
  128      C       5.1039258807     1.4578249950     1.7960807387
  129      C       6.4318456651     2.7386643229    -0.3650640187
  130      C       4.5976273934     3.0828789030    -2.4257747347
  131      C       4.9833846872    -2.0486929308     1.5940340698
  132      C       2.5167580928     1.9602031619    -2.9358297650
  133      C       7.6066493869    -0.9271357019     0.9578692346
  134      C       8.2270508616    -0.2883560940    -0.3121991189
  135      C       2.0595588378     2.0757196535    -1.5928544185
  136      C       5.0884216192    -0.5814079948    -4.6206450176
  137      C       2.9511625814    -0.0349647788    -4.2026682033
  138      C       3.0944576657    -1.4207905165    -4.0444135238
  139      C       3.1567488526    -3.0658948192    -2.2751635015
  140      C       8.1374097172    -1.1845825976    -1.3898078232
  141      C       5.3546923153    -0.7993053746     2.1554700676
  142      C       2.7380945969    -2.8646110679    -0.9350622122
  143      C       6.8429017904     2.6303237025    -1.6812939271
  144      C       3.6575450095    -2.2654011349     1.2701163281
  145      C       4.4295779747     2.4276517083     1.0103065676
  146      C       7.1394767393    -1.3503135981    -3.6060544266
  147      C       1.6260599280    -1.3485723101    -2.1395913235
  148      C       6.4261857435     1.1677895367     1.4397756892
  149      C       5.1277094315    -2.7156441272    -3.6353604907
  150      C       5.0921269793     3.1134878633    -0.0734441348
  151      C       3.0749460180     0.0836741035     1.7754884086
  152      C       4.6571138339     1.7420767203    -4.1773140207
  153      C       5.9911952370     1.9305589987    -3.8266685578
  154      C       2.4120917325     1.0357498037     1.0177463303
  155      C       7.9869324936    -0.6946632001    -2.7280206572
  156      C       8.0059542071     1.1469102822    -0.4994975401
  157      C       6.4364654384    -0.3510073932    -4.2496794880
  158      C       7.0716925933    -2.2413993062     0.3226358858
  159      C       1.8328693275    -0.9810628978     0.2200496882
  160      C       7.1199786908     1.7953648009     0.3412099725
  161      C       3.1085324959     2.2216014533     0.5972797704
  162      C       6.4919122619    -2.5111753362    -3.2735288297
  163      C       1.4462719774     0.8815617363    -1.2079608024
  164      C       4.5044220450    -3.3840534389    -2.5349115705
  165      C       2.1116818733     0.7001352554    -3.3503079037
  166      C       2.7065019830    -1.1899002481     1.2700506141
  167      C       1.6044610417     0.3774982985     0.0812471989
  168      C       5.8412057083    -2.7570999150     0.7108174256
  169      C       7.4557824840    -2.2930753604    -1.0264566022
  170      C       4.1904923768     0.4845876564    -4.6721944809
  171      C       1.8377265371    -1.8454064866    -0.8255661915
  172      C       4.1530104710     3.2431978536    -1.0714669313
  173      C       6.9211669478     0.9029344546    -3.8756523644
  174      C       3.8079673984     2.4487568973    -3.3562887723
  175      C       6.6131702054    -2.9993824229    -1.9751192828
  176      C       4.4537111988    -1.7489056934    -4.3450732375
 ----------------------------------------------------------------

    9   -5804.2616311282      8.60E-06 Convergence criterion met
 Total energy in the final basis set = -5804.2616311282

                    Orbital Energies (a.u.)
 --------------------------------------------------------------

 Alpha MOs
 -- Occupied --
-19.197 -19.194 -19.134 -19.126 -10.314 -10.309 -10.248 -10.245
-10.242 -10.240 -10.236 -10.236 -10.235 -10.234 -10.233 -10.230
-10.227 -10.227 -10.226 -10.224 -10.224 -10.224 -10.222 -10.221
-10.221 -10.219 -10.219 -10.218 -10.217 -10.217 -10.217 -10.217
-10.216 -10.216 -10.216 -10.216 -10.216 -10.216 -10.216 -10.215
-10.215 -10.215 -10.215 -10.215 -10.215 -10.214 -10.214 -10.214
-10.214 -10.214 -10.214 -10.214 -10.214 -10.213 -10.213 -10.213
-10.213 -10.212 -10.212 -10.212 -10.212 -10.212 -10.212 -10.212
-10.212 -10.211 -10.211 -10.211 -10.211 -10.211 -10.211 -10.211
-10.211 -10.211 -10.211 -10.211 -10.210 -10.210 -10.210 -10.210
-10.210 -10.210 -10.210 -10.210 -10.210 -10.210 -10.210 -10.210
-10.209 -10.209 -10.209 -10.209 -10.209 -10.209 -10.209 -10.209
-10.209 -10.209 -10.209 -10.209 -10.209 -10.209 -10.208 -10.208
-10.208 -10.208 -10.208 -10.208 -10.208 -10.207 -10.207 -10.207
-10.207 -10.207 -10.207 -10.207 -10.206 -10.206 -10.206 -10.206
-10.206 -10.206 -10.206 -10.206 -10.206 -10.206 -10.206 -10.206
-10.205 -10.205 -10.204 -10.204 -10.203 -10.202 -10.202 -10.202
-10.200 -10.200 -10.200 -10.200 -10.199 -10.198 -10.197 -10.197
-10.195 -10.194 -10.192 -10.188  -1.117  -1.091  -1.004  -1.004
 -0.981  -0.981  -0.965  -0.963  -0.961  -0.961  -0.961  -0.957
 -0.932  -0.929  -0.927  -0.927  -0.925  -0.923  -0.922  -0.921
 -0.919  -0.918  -0.898  -0.893  -0.891  -0.891  -0.885  -0.882
 -0.873  -0.872  -0.851  -0.848  -0.841  -0.841  -0.835  -0.835
 -0.832  -0.830  -0.824  -0.817  -0.812  -0.807  -0.798  -0.797
 -0.795  -0.793  -0.791  -0.790  -0.789  -0.788  -0.782  -0.781
 -0.771  -0.771  -0.765  -0.765  -0.764  -0.763  -0.761  -0.761
 -0.750  -0.749  -0.746  -0.743  -0.731  -0.730  -0.719  -0.715
 -0.713  -0.713  -0.711  -0.710  -0.708  -0.708  -0.707  -0.706
 -0.705  -0.704  -0.703  -0.702  -0.701  -0.701  -0.672  -0.671
 -0.657  -0.654  -0.653  -0.652  -0.647  -0.645  -0.633  -0.630
 -0.628  -0.623  -0.622  -0.621  -0.620  -0.619  -0.615  -0.614
 -0.613  -0.612  -0.610  -0.609  -0.608  -0.607  -0.607  -0.605
 -0.604  -0.604  -0.601  -0.600  -0.564  -0.563  -0.563  -0.563
 -0.561  -0.559  -0.557  -0.557  -0.553  -0.551  -0.549  -0.549
 -0.534  -0.534  -0.532  -0.527  -0.525  -0.525  -0.524  -0.524
 -0.521  -0.520  -0.519  -0.516  -0.516  -0.515  -0.509  -0.509
 -0.509  -0.507  -0.504  -0.501  -0.499  -0.498  -0.487  -0.486
 -0.485  -0.483  -0.481  -0.480  -0.476  -0.476  -0.475  -0.474
 -0.472  -0.470  -0.470  -0.468  -0.467  -0.466  -0.465  -0.464
 -0.463  -0.462  -0.461  -0.461  -0.460  -0.459  -0.458  -0.456
 -0.454  -0.454  -0.452  -0.449  -0.448  -0.446  -0.444  -0.443
 -0.440  -0.439  -0.438  -0.438  -0.437  -0.436  -0.430  -0.430
 -0.429  -0.428  -0.426  -0.425  -0.424  -0.424  -0.422  -0.422
 -0.421  -0.420  -0.419  -0.418  -0.418  -0.417  -0.416  -0.416
 -0.415  -0.415  -0.415  -0.414  -0.413  -0.412  -0.412  -0.410
 -0.410  -0.409  -0.405  -0.404  -0.400  -0.398  -0.397  -0.395
 -0.392  -0.390  -0.388  -0.387  -0.385  -0.382  -0.382  -0.380
 -0.375  -0.374  -0.373  -0.370  -0.369  -0.368  -0.367  -0.366
 -0.363  -0.363  -0.362  -0.361  -0.360  -0.358  -0.358  -0.356
 -0.354  -0.354  -0.353  -0.352  -0.351  -0.351  -0.350  -0.349
 -0.349  -0.348  -0.346  -0.345  -0.345  -0.344  -0.342  -0.341
 -0.341  -0.340  -0.338  -0.337  -0.336  -0.336  -0.333  -0.331
 -0.331  -0.330  -0.328  -0.328  -0.324  -0.322  -0.321  -0.320
 -0.311  -0.303  -0.300  -0.298  -0.287  -0.283  -0.271  -0.270
 -0.268  -0.267  -0.266  -0.266  -0.264  -0.263  -0.262  -0.261
 -0.260  -0.259  -0.256  -0.255  -0.254  -0.253  -0.251  -0.251
 -0.248  -0.245  -0.245  -0.241  -0.219  -0.217  -0.207  -0.207
 -0.206  -0.205  -0.203  -0.202  -0.200  -0.198

          Ground-State Mulliken Net Atomic Charges

     Atom                 Charge (a.u.)
  ----------------------------------------
      1 O                    -0.472062
      2 C                    -0.084606
      3 H                     0.127003
      4 H                     0.123585
      5 H                     0.132226
      6 O                    -0.489193
      7 C                     0.602969
      8 C                    -0.258079
      9 H                     0.132613
     10 H                     0.139827
     11 C                    -0.167382
     12 H                     0.117732
     13 H                     0.127152
     14 C                    -0.183898
     15 H                     0.105413
     16 H                     0.101693
     17 C                     0.016887
     18 C                     0.093994
     19 C                    -0.122551
     20 H                     0.100439
     21 C                    -0.096445
     22 H                     0.098086
     23 C                    -0.078050
     24 H                     0.093020
     25 C                    -0.087409
     26 H                     0.090327
     27 C                    -0.109152
     28 H                     0.088573
     29 C                    -0.019249
     30 C                    -0.004658
     31 C                    -0.017211
     32 C                     0.003388
     33 C                    -0.022760
     34 C                     0.011792
     35 C                    -0.007206
     36 C                    -0.008367
     37 C                    -0.000063
     38 C                    -0.037724
     39 C                    -0.096650
     40 C                     0.017503
     41 C                     0.012190
     42 C                     0.006688
     43 C                    -0.000254
     44 C                     0.016556
     45 C                    -0.095060
     46 C                     0.026413
     47 C                     0.008789
     48 C                     0.018011
     49 C                    -0.007199
     50 C                    -0.000059
     51 C                    -0.009594
     52 C                    -0.004076
     53 C                     0.037062
     54 C                     0.001249
     55 C                    -0.027051
     56 C                    -0.026320
     57 C                     0.003341
     58 C                     0.015976
     59 C                     0.008741
     60 C                    -0.005281
     61 C                    -0.000954
     62 C                    -0.011949
     63 C                     0.017862
     64 C                     0.006887
     65 C                     0.005376
     66 C                    -0.007290
     67 C                     0.008602
     68 C                    -0.007488
     69 C                    -0.010360
     70 C                     0.033686
     71 C                    -0.013978
     72 C                     0.040416
     73 C                    -0.007639
     74 C                    -0.014434
     75 C                     0.016530
     76 C                     0.011792
     77 C                    -0.023171
     78 C                    -0.013260
     79 C                     0.006928
     80 C                     0.036779
     81 C                    -0.003615
     82 C                    -0.006471
     83 C                     0.008550
     84 C                     0.006394
     85 C                    -0.009906
     86 C                    -0.010297
     87 C                    -0.012373
     88 C                     0.011968
     89 O                    -0.438368
     90 C                    -0.086984
     91 H                     0.119928
     92 H                     0.141796
     93 H                     0.128451
     94 O                    -0.503774
     95 C                     0.602323
     96 C                    -0.268583
     97 H                     0.138150
     98 H                     0.134999
     99 C                    -0.181160
    100 H                     0.123088
    101 H                     0.116860
    102 C                    -0.185063
    103 H                     0.105036
    104 H                     0.102326
    105 C                     0.001607
    106 C                     0.092534
    107 C                    -0.110928
    108 H                     0.092918
    109 C                    -0.098613
    110 H                     0.089855
    111 C                    -0.082664
    112 H                     0.092287
    113 C                    -0.092691
    114 H                     0.090275
    115 C                    -0.100153
    116 H                     0.097104
    117 C                     0.013089
    118 C                    -0.026182
    119 C                     0.002897
    120 C                    -0.021750
    121 C                     0.007108
    122 C                    -0.027733
    123 C                    -0.030229
    124 C                     0.003331
    125 C                    -0.010175
    126 C                    -0.002698
    127 C                    -0.102187
    128 C                     0.011906
    129 C                    -0.003667
    130 C                    -0.000980
    131 C                     0.014724
    132 C                    -0.010355
    133 C                    -0.069792
    134 C                     0.018828
    135 C                    -0.016016
    136 C                     0.029564
    137 C                     0.013914
    138 C                    -0.020652
    139 C                     0.001342
    140 C                     0.018375
    141 C                     0.015650
    142 C                    -0.001507
    143 C                    -0.001341
    144 C                    -0.008048
    145 C                    -0.033436
    146 C                     0.012624
    147 C                    -0.014012
    148 C                     0.040822
    149 C                    -0.023083
    150 C                    -0.019745
    151 C                    -0.008883
    152 C                    -0.002458
    153 C                     0.012648
    154 C                    -0.017221
    155 C                    -0.015057
    156 C                    -0.028908
    157 C                     0.013537
    158 C                     0.021036
    159 C                     0.035670
    160 C                     0.027747
    161 C                     0.011048
    162 C                    -0.012214
    163 C                     0.018745
    164 C                     0.005220
    165 C                    -0.002342
    166 C                    -0.012407
    167 C                     0.003315
    168 C                     0.043950
    169 C                     0.012003
    170 C                    -0.047978
    171 C                     0.004265
    172 C                     0.013996
    173 C                     0.010122
    174 C                     0.019545
    175 C                     0.001617
    176 C                     0.011646
  ----------------------------------------
  Sum of atomic charges =     0.000000

                    Cartesian Multipole Moments
 -----------------------------------------------------------------
    Charge (ESU x 10^10)
                 0.0000
    Dipole Moment (Debye)
         X      -0.0608      Y      -1.4477      Z       4.1098
       Tot       4.3578
    Quadrupole Moments (Debye-Ang)
        XX    -711.2250     XY      33.4691     YY    -795.6713
        XZ      16.7102     YZ      -7.5455     ZZ    -801.5147

 Total job time:  841.23s(wall), 7180.53s(cpu)
        *  Thank you very much for using Q-Chem.  Have a nice day.  *
