 Q-Chem 4.4, Q-Chem, Inc., Pleasanton, CA (2016)
 Q-Chem 4.4.2 for Intel X86 Linux

User input:
--------------------------------------------------------------
$comment
SP
$end

$rem
MEM_STATIC 5000
MEM_TOTAL 20000
JOBTYPE SP
EXCHANGE B3LYP
BASIS 6-31g(d,p)
$end

$molecule
0 1
O          13.124000     -9.290000     -6.435000
C          11.774000     -9.066000     -5.969000
H          11.737000     -9.091000     -4.873000
H          11.094000     -9.845000     -6.335000
H          11.291000     -8.160000     -6.356000
O          13.913000     -7.450000     -5.424000
C          14.139000     -8.508000     -5.939000
C          15.488000     -9.052000     -6.222000
H          15.449000    -10.096000     -6.556000
H          15.859000     -9.265000     -5.211000
C          16.450000     -8.061000     -6.890000
H          16.108000     -7.869000     -7.914000
H          16.476000     -7.073000     -6.414000
C          17.848000     -8.670000     -6.981000
H          17.784000     -9.681000     -7.402000
H          18.515000     -8.031000     -7.573000
C          18.529000     -8.734000     -5.577000
C          18.623000     -7.397000     -4.949000
C          17.767000     -6.987000     -3.900000
H          16.891000     -7.543000     -3.578000
C          18.041000     -5.807000     -3.184000
H          17.515000     -5.530000     -2.275000
C          19.180000     -5.028000     -3.561000
H          19.421000     -4.108000     -3.037000
C          19.967000     -5.427000     -4.654000
H          20.856000     -4.840000     -4.866000
C          19.690000     -6.611000     -5.355000
H          20.339000     -6.920000     -6.169000
C          22.900000    -10.736000     -2.872000
C          21.200000    -10.785000     -1.179000
C          20.751000    -15.297000     -1.156000
C          21.368000    -13.172000     -7.095000
C          17.837000    -15.280000     -3.162000
C          21.832000    -10.133000     -2.246000
C          19.628000    -15.263000     -6.319000
C          22.785000    -13.979000     -1.204000
C          17.589000    -11.333000     -2.878000
C          19.937000    -13.018000     -7.215000
C          18.352000    -10.060000     -4.743000
C          17.173000    -11.943000     -4.023000
C          17.924000    -13.530000     -6.203000
C          19.093000    -15.840000     -5.197000
C          19.566000     -9.947000     -2.458000
C          20.004000    -16.418000     -2.984000
C          19.642000     -9.764000     -5.334000
C          20.109000    -10.725000     -6.405000
C          18.904000    -15.811000     -2.355000
C          23.281000    -14.807000     -4.599000
C          22.355000    -15.785000     -2.804000
C          23.211000    -14.776000     -2.337000
C          22.888000    -12.573000     -1.261000
C          21.471000    -10.967000     -6.198000
C          18.401000    -10.194000     -3.247000
C          21.750000    -11.977000     -0.690000
C          19.060000    -14.085000     -6.809000
C          19.787000    -10.654000     -1.301000
C          16.924000    -13.376000     -3.991000
C          23.081000    -12.734000     -5.697000
C          21.544000    -14.266000     -0.685000
C          17.669000    -11.322000     -5.171000
C          23.958000    -12.681000     -3.480000
C          17.348000    -14.143000     -5.086000
C          17.848000    -12.077000     -1.673000
C          21.323000    -16.148000     -5.015000
C          21.027000    -15.471000     -6.210000
C          17.644000    -13.436000     -1.616000
C          22.084000    -12.158000     -6.535000
C          19.317000    -11.796000     -6.878000
C          23.005000    -14.123000     -5.767000
C          20.866000     -9.635000     -4.461000
C          19.525000    -12.937000     -0.383000
C          18.110000    -12.103000     -6.234000
C          17.211000    -14.053000     -2.799000
C          23.580000    -12.011000     -4.608000
C          19.352000    -15.138000     -1.229000
C          23.471000    -11.917000     -2.369000
C          21.156000    -16.166000     -2.165000
C          19.012000    -11.744000     -0.926000
C          18.711000    -13.946000     -0.875000
C          20.761000     -9.602000     -3.055000
C          21.937000    -10.301000     -5.015000
C          22.463000    -15.824000     -4.223000
C          20.923000    -13.046000     -0.301000
C          17.972000    -15.318000     -4.554000
C          21.916000    -14.451000     -6.623000
C          20.090000    -16.412000     -4.365000
C          23.017000    -10.797000     -4.246000
C          23.747000    -14.113000     -3.473000
O          30.379000    -11.839000      7.965000
C          31.353000    -10.922000      8.567000
H          32.262000    -10.974000      7.956000
H          31.579000    -11.205000      9.603000
H          30.959000     -9.901000      8.643000
O          29.218000    -12.016000      9.825000
C          29.254000    -12.195000      8.617000
C          28.306000    -12.928000      7.739000
H          27.556000    -13.464000      8.335000
H          28.812000    -13.765000      7.244000
C          27.579000    -12.026000      6.738000
H          26.953000    -11.292000      7.260000
H          28.365000    -11.387000      6.318000
C          26.756000    -12.895000      5.742000
H          27.399000    -13.090000      4.875000
H          26.139000    -13.662000      6.226000
C          25.666000    -12.000000      5.049000
C          26.206000    -11.226000      3.900000
C          26.321000    -11.783000      2.594000
H          25.885000    -12.767000      2.446000
C          26.807000    -11.007000      1.509000
H          26.989000    -11.438000      0.529000
C          27.223000     -9.705000      1.708000
H          27.640000     -9.052000      0.948000
C          27.283000     -9.233000      2.960000
H          27.674000     -8.235000      3.138000
C          26.719000     -9.945000      4.070000
H          26.523000     -9.528000      5.053000
C          21.545000     -8.556000      5.779000
C          20.938000     -9.505000      3.648000
C          17.501000    -12.010000      5.366000
C          22.391000    -11.937000      9.265000
C          19.401000    -14.961000      5.668000
C          21.937000     -8.999000      4.467000
C          20.696000    -14.149000      8.850000
C          18.115000     -9.712000      5.747000
C          22.392000    -13.290000      3.526000
C          22.959000    -13.113000      8.781000
C          24.247000    -12.580000      4.833000
C          22.650000    -14.251000      4.541000
C          22.447000    -14.724000      7.266000
C          19.749000    -14.686000      7.998000
C          22.764000    -10.866000      3.534000
C          17.855000    -13.524000      6.974000
C          24.489000    -11.455000      5.832000
C          24.336000    -11.701000      7.287000
C          18.249000    -14.129000      5.756000
C          19.187000    -10.345000      9.018000
C          17.564000    -11.175000      7.593000
C          18.054000     -9.915000      7.137000
C          19.192000     -8.912000      5.241000
C          23.660000    -10.566000      7.818000
C          23.261000    -12.231000      3.703000
C          19.596000     -9.511000      3.982000
C          22.072000    -14.172000      8.501000
C          21.469000    -10.669000      3.024000
C          21.598000    -14.947000      5.038000
C          21.577000     -9.779000      8.928000
C          17.911000    -10.764000      4.856000
C          23.726000    -13.815000      5.342000
C          20.061000     -8.648000      7.504000
C          21.480000    -15.308000      6.397000
C          21.062000    -13.103000      2.989000
C          18.933000    -12.835000      9.007000
C          20.196000    -12.950000      9.481000
C          19.991000    -13.865000      3.461000
C          22.748000    -10.660000      8.845000
C          23.830000    -13.002000      7.707000
C          20.504000    -10.590000      9.430000
C          23.794000    -10.158000      5.631000
C          19.327000    -11.785000      3.166000
C          23.483000    -13.985000      6.728000
C          20.262000    -14.787000      4.577000
C          21.336000     -8.821000      7.961000
C          18.010000    -13.184000      4.756000
C          20.192000     -8.475000      6.101000
C          17.347000    -12.196000      6.715000
C          20.676000    -11.773000      2.733000
C          18.882000    -13.025000      3.638000
C          23.028000     -9.882000      4.484000
C          23.389000     -9.587000      6.853000
C          18.386000    -11.478000      8.719000
C          18.832000    -10.655000      3.801000
C          20.155000    -15.241000      6.769000
C          21.033000    -11.860000      9.581000
C          18.636000    -13.813000      8.091000
C          22.292000     -8.713000      6.933000
C          18.982000     -9.401000      8.030000
$end

--------------------------------------------------------------

             Standard Nuclear Orientation (Angstroms)
    I     Atom           X                Y                Z
 ----------------------------------------------------------------
    1      O       9.7967320616     5.2046154430     0.6956207186
    2      C       9.8367031350     6.6366703506     0.5020928006
    3      H       8.8215199708     7.0382000535     0.3953827223
    4      H      10.3871589542     6.8981402285    -0.4099537410
    5      H      10.4001511445     7.1945437901     1.2605106051
    6      O       8.6428295445     5.3687821920     2.6118149309
    7      C       9.0083050230     4.6886350015     1.6955767120
    8      C       8.7854710570     3.2290272074     1.5702127972
    9      H       9.0737971820     2.8521248191     0.5813621333
   10      H       7.7014784949     3.1826218612     1.4030671450
   11      C       9.1139197865     2.4212014473     2.8324679114
   12      H      10.1992628884     2.4312086850     2.9884621627
   13      H       8.6949809977     2.8424447709     3.7546611415
   14      C       8.6917712243     0.9649974156     2.6458495590
   15      H       9.0715121795     0.5900668960     1.6873706013
   16      H       9.0384846068     0.3470443345     3.4834639212
   17      C       7.1373585894     0.8181626089     2.6820973152
   18      C       6.5651510060     1.3300201383     3.9475495471
   19      C       5.8941471398     2.5725599381     4.0317258948
   20      H       5.8760278977     3.3087504127     3.2330449334
   21      C       5.1712603578     2.9087043889     5.1912834003
   22      H       4.5120708235     3.7699599141     5.2495421180
   23      C       5.1578179241     1.9817395316     6.2807082277
   24      H       4.6167974850     2.2075819327     7.1946825678
   25      C       5.8944032318     0.7890291199     6.1906917943
   26      H       5.8060602172     0.0877203356     7.0154314507
   27      C       6.6041275363     0.4595705390     5.0254731646
   28      H       7.1304335013    -0.4883650731     4.9646611061
   29      C       3.0122747629    -2.7383922063     1.8072994692
   30      C       2.0138375910    -0.6503518317     1.1733747042
   31      C       1.9829448108    -1.5257224680    -3.2755629089
   32      C       7.4123007181    -3.5076980098    -0.6751970916
   33      C       4.8746979727     0.4005439805    -3.9411320040
   34      C       2.8183151743    -1.3960193968     2.0450470626
   35      C       7.2123610931    -2.2796947664    -3.2156870406
   36      C       1.3703263278    -2.9876751955    -1.4414481860
   37      C       4.8390821952     1.8441529063    -0.2484779740
   38      C       8.0269837904    -2.2238506792    -0.9196919842
   39      C       6.3686696712     0.8846744870     1.3073775193
   40      C       6.0341437708     1.6505046671    -0.8733853190
   41      C       7.7584114691    -0.2208147145    -2.0395905654
   42      C       6.3254247101    -1.5806579158    -3.9920434884
   43      C       3.8101503986     0.6129512571     1.6039169238
   44      C       3.9142349944    -1.8026184712    -4.4373205558
   45      C       6.4856961601    -0.3883759203     1.9904913177
   46      C       7.2921407882    -1.4471519949     1.2712616703
   47      C       3.7287151095    -0.4294305033    -4.2048830865
   48      C       4.3494941040    -4.8308101979    -1.8716083011
   49      C       2.9528690629    -3.6653619849    -3.1858205966
   50      C       2.2551045494    -3.9842750321    -2.0109481985
   51      C       1.4394635864    -2.6989248208    -0.0621232567
   52      C       6.6166498481    -2.6644844739     1.4064305470
   53      C       4.9447959657     1.3152185382     1.0938629041
   54      C       1.3210821773    -1.3147235438     0.1529898920
   55      C       7.9117876153    -1.6035390736    -2.2136770510
   56      C       2.6233066798     0.6101443832     0.9120115049
   57      C       6.0381120776     1.4762036077    -2.3177250967
   58      C       5.5237583119    -4.4374909957     0.1307244822
   59      C       1.3040994053    -1.7805978944    -2.0974888737
   60      C       6.9605902507     0.9900070829    -0.0640640841
   61      C       3.1437151263    -4.4479059872     0.2800997234
   62      C       6.8890710204     0.5029596741    -2.8615588243
   63      C       3.5927144913     1.8132338658    -0.9683762721
   64      C       5.3697310279    -3.6024297056    -3.6758530143
   65      C       6.6171147569    -3.5540447729    -3.0311339041
   66      C       3.5603468329     1.6282910378    -2.3309086516
   67      C       6.6761481352    -3.6679874126     0.4591920312
   68      C       7.9710493459    -1.2052508482     0.0552842833
   69      C       5.5648907612    -4.7890851674    -1.2163785799
   70      C       5.2475371913    -1.1482930966     2.3984548615
   71      C       1.7703658914     0.5089375890    -1.4087009280
   72      C       7.7751488201     0.0085204280    -0.6186714075
   73      C       4.7966629778     1.4348479898    -2.9647612978
   74      C       4.3565099477    -4.3051483027     0.8907689993
   75      C       2.5426604906    -0.2529950062    -3.5094307470
   76      C       2.2995145155    -3.4136339303     0.8023952729
   77      C       2.7561694652    -2.4815443148    -3.9280927786
   78      C       2.5009237584     1.1219678060    -0.3734491925
   79      C       2.4769840172     0.7816844473    -2.5701831601
   80      C       3.9675604119    -0.5631491957     2.3078123795
   81      C       5.3706754959    -2.4866271892     2.0964419237
   82      C       4.2437680078    -4.2593549295    -3.0992278956
   83      C       1.2043930911    -0.7455687147    -1.1278135425
   84      C       6.1309610719    -0.2080846551    -3.8478195748
   85      C       6.7329863288    -4.2008854453    -1.7783526290
   86      C       5.1788041514    -2.3510779255    -4.3162830652
   87      C       4.2570738428    -3.3312904154     1.8723607048
   88      C       3.1579617381    -4.6645074063    -1.1510099368
   89      O      -9.7792900127    -6.0349990673     2.1249042475
   90      C     -10.6478848388    -6.4395012650     3.2357102612
   91      H     -10.3926376943    -7.4774412879     3.4803230247
   92      H     -11.7075498898    -6.3674691480     2.9593366845
   93      H     -10.5450093852    -5.7699081950     4.0985629495
   94      O     -11.1259602152    -4.4087366235     1.5079765128
   95      C     -10.0129370551    -4.9058542765     1.4264014908
   96      C      -8.8879786414    -4.5667841001     0.5173486965
   97      H      -9.2058676435    -3.8438160973    -0.2450657900
   98      H      -8.6303230965    -5.4277970095    -0.1102661457
   99      C      -7.6645982030    -4.0019871319     1.2443140929
  100      H      -7.9096839740    -3.0536325048     1.7379460065
  101      H      -7.5203689666    -4.6675414961     2.1038211118
  102      C      -6.4774127860    -3.8539923352     0.2477227394
  103      H      -5.8951834325    -4.7822438311     0.2979336973
  104      H      -6.7449510795    -3.3542660728    -0.6913890347
  105      C      -5.4169592237    -2.8606836601     0.8461791858
  106      C      -4.4992443703    -3.5173335592     1.8144184940
  107      C      -3.3356318833    -4.2264248703     1.3993215263
  108      H      -3.0816501289    -4.1670939506     0.3446987927
  109      C      -2.4590817154    -4.8122332171     2.3501555729
  110      H      -1.6196161684    -5.4337170314     2.0529343355
  111      C      -2.7422776016    -4.7456044473     3.7004228416
  112      H      -2.1508562580    -5.1933206323     4.4926784898
  113      C      -3.9191245747    -4.2358952112     4.0865778579
  114      H      -4.1850921468    -4.2406732159     5.1400518354
  115      C      -4.7896929695    -3.5534617849     3.1735963200
  116      H      -5.6276240670    -2.9224044395     3.4532963426
  117      C      -4.5449335504     2.0597521088     2.9451217930
  118      C      -2.3719767342     1.6026967674     2.0072678119
  119      C      -2.8809607575     4.5547685153    -1.4663075305
  120      C      -8.2291464194     1.5337373064    -0.2873628494
  121      C      -3.9313351577     2.1167009755    -3.7819381769
  122      C      -3.4676507248     1.1330940140     2.7170352106
  123      C      -7.3329945458     2.2789114162    -2.8524790973
  124      C      -3.3669706508     4.7902026549     0.8813138507
  125      C      -2.9007574764    -0.8189277097    -1.2038614005
  126      C      -8.0157231655     0.5244259361    -1.2230962903
  127      C      -4.7433411812    -1.8295477366    -0.0916984394
  128      C      -3.9766639231    -0.9758631142    -2.1193430206
  129      C      -6.4772441434     0.0048178250    -2.8092172534
  130      C      -6.2255747147     2.6818242788    -3.5752270084
  131      C      -2.9486219153    -0.4587560381     1.2214652502
  132      C      -4.5661480490     4.3575525283    -2.9238484895
  133      C      -5.7223476572    -1.3834564552     0.9875322535
  134      C      -7.0417994954    -0.8180231920     0.6129897706
  135      C      -3.5835802871     3.4151667709    -3.3127632328
  136      C      -6.8275406591     4.7709476331     0.3584386628
  137      C      -4.9592757129     5.4992584371    -0.7960324125
  138      C      -4.6558603920     5.2632503608     0.5779673440
  139      C      -3.2372376799     3.8805250266     1.9820504081
  140      C      -7.2632907202     0.2923999548     1.4761607110
  141      C      -3.3294318866    -1.2346005663     0.0417008526
  142      C      -2.2194976933     2.9168478838     1.6043869544
  143      C      -7.4842766968     0.9209219392    -2.4668830769
  144      C      -2.0140744977     0.5819588999     1.0819391162
  145      C      -4.1028314898    -0.0620265558    -3.1128788727
  146      C      -7.5518644389     2.7616938192     1.5745020548
  147      C      -2.4996903937     4.3678900938    -0.1245082291
  148      C      -5.0847522767    -1.5405063288    -1.4539174117
  149      C      -5.6498900500     3.9531352768     2.3282617494
  150      C      -5.3486727733     0.4064231625    -3.5814515542
  151      C      -1.9291274580     0.2410212920    -1.3609639821
  152      C      -6.8202292281     4.2853092880    -2.0969307475
  153      C      -7.7069333790     3.2842646317    -1.8854234313
  154      C      -2.0276888222     1.1445019696    -2.4213777328
  155      C      -7.9126919828     1.4339741511     1.0633709891
  156      C      -7.3074260476    -0.5917046040    -0.8023757056
  157      C      -7.6796395609     3.6632866416     0.4646111138
  158      C      -5.2453276681    -0.4606868531     2.0489384865
  159      C      -1.4446752043     2.2303443221    -0.5950802470
  160      C      -6.3055274657    -0.8964944828    -1.7762552471
  161      C      -3.2013304232     1.0216433038    -3.3025429504
  162      C      -6.5269500116     2.9190019296     2.4886894400
  163      C      -2.5289100456     3.5556744979    -2.4082886559
  164      C      -4.3742071158     3.4044207686     2.6232946966
  165      C      -4.0985323278     5.1018684858    -1.7766526507
  166      C      -1.5065867013     0.8777147960    -0.1779539691
  167      C      -1.7779687584     2.4372453414    -1.9384031326
  168      C      -3.8945039024    -0.0893122573     2.1750220442
  169      C      -6.2290712452     0.4832324476     2.4019468835
  170      C      -6.3108410244     5.0628639483    -0.9309400064
  171      C      -1.8266233087     3.2129375957     0.3070151494
  172      C      -5.2350325203     1.7391688013    -3.9121673765
  173      C      -8.0512084297     2.8796870177    -0.6140223759
  174      C      -5.8945387196     3.9587672494    -3.0562098411
  175      C      -5.8913681576     1.7416820822     2.9272526438
  176      C      -5.7959514921     4.8848437494     1.2706647670
 ----------------------------------------------------------------

    9   -5804.2804869425      8.04E-06 Convergence criterion met
 Total energy in the final basis set = -5804.2804869425

                    Orbital Energies (a.u.)
 --------------------------------------------------------------

 Alpha MOs
 -- Occupied --
-19.185 -19.184 -19.132 -19.127 -10.312 -10.312 -10.246 -10.242
-10.240 -10.240 -10.239 -10.239 -10.238 -10.236 -10.230 -10.230
-10.229 -10.227 -10.226 -10.225 -10.225 -10.225 -10.224 -10.224
-10.224 -10.223 -10.223 -10.223 -10.223 -10.223 -10.222 -10.221
-10.221 -10.221 -10.221 -10.220 -10.220 -10.220 -10.220 -10.220
-10.219 -10.219 -10.219 -10.219 -10.219 -10.219 -10.218 -10.218
-10.218 -10.218 -10.218 -10.218 -10.218 -10.218 -10.218 -10.218
-10.217 -10.217 -10.217 -10.217 -10.217 -10.217 -10.217 -10.216
-10.216 -10.216 -10.216 -10.216 -10.216 -10.216 -10.216 -10.216
-10.215 -10.215 -10.215 -10.215 -10.215 -10.215 -10.215 -10.215
-10.215 -10.215 -10.214 -10.214 -10.214 -10.214 -10.214 -10.214
-10.214 -10.214 -10.214 -10.214 -10.214 -10.214 -10.213 -10.213
-10.213 -10.213 -10.213 -10.213 -10.212 -10.212 -10.212 -10.212
-10.212 -10.212 -10.211 -10.211 -10.211 -10.211 -10.211 -10.211
-10.211 -10.211 -10.211 -10.210 -10.210 -10.210 -10.210 -10.210
-10.210 -10.210 -10.210 -10.210 -10.209 -10.209 -10.209 -10.209
-10.208 -10.208 -10.208 -10.208 -10.206 -10.206 -10.203 -10.203
-10.202 -10.201 -10.201 -10.201 -10.200 -10.200 -10.200 -10.199
-10.199 -10.197 -10.194 -10.190  -1.092  -1.092  -1.010  -0.995
 -0.983  -0.983  -0.965  -0.965  -0.964  -0.963  -0.962  -0.961
 -0.934  -0.934  -0.928  -0.927  -0.926  -0.924  -0.923  -0.922
 -0.922  -0.921  -0.898  -0.897  -0.891  -0.889  -0.885  -0.885
 -0.875  -0.874  -0.856  -0.852  -0.843  -0.840  -0.840  -0.839
 -0.837  -0.836  -0.825  -0.823  -0.812  -0.809  -0.801  -0.797
 -0.797  -0.796  -0.794  -0.794  -0.793  -0.790  -0.785  -0.783
 -0.772  -0.772  -0.772  -0.769  -0.768  -0.767  -0.766  -0.763
 -0.750  -0.748  -0.743  -0.742  -0.737  -0.735  -0.718  -0.716
 -0.715  -0.715  -0.712  -0.712  -0.711  -0.710  -0.709  -0.709
 -0.708  -0.707  -0.706  -0.705  -0.703  -0.703  -0.676  -0.674
 -0.660  -0.659  -0.657  -0.657  -0.651  -0.649  -0.635  -0.632
 -0.629  -0.628  -0.627  -0.626  -0.622  -0.621  -0.617  -0.617
 -0.616  -0.616  -0.615  -0.612  -0.612  -0.611  -0.610  -0.609
 -0.608  -0.607  -0.604  -0.602  -0.567  -0.566  -0.563  -0.563
 -0.561  -0.561  -0.560  -0.558  -0.556  -0.556  -0.555  -0.554
 -0.538  -0.536  -0.534  -0.531  -0.529  -0.528  -0.527  -0.524
 -0.523  -0.523  -0.522  -0.519  -0.516  -0.516  -0.515  -0.514
 -0.509  -0.506  -0.505  -0.502  -0.496  -0.491  -0.486  -0.485
 -0.485  -0.483  -0.482  -0.480  -0.480  -0.478  -0.476  -0.473
 -0.472  -0.471  -0.470  -0.470  -0.468  -0.467  -0.467  -0.466
 -0.465  -0.464  -0.464  -0.463  -0.463  -0.461  -0.459  -0.459
 -0.458  -0.456  -0.454  -0.453  -0.448  -0.447  -0.444  -0.443
 -0.441  -0.441  -0.440  -0.440  -0.438  -0.436  -0.435  -0.433
 -0.432  -0.430  -0.430  -0.429  -0.426  -0.426  -0.425  -0.424
 -0.423  -0.423  -0.421  -0.420  -0.420  -0.420  -0.419  -0.418
 -0.418  -0.417  -0.417  -0.416  -0.416  -0.415  -0.414  -0.413
 -0.413  -0.412  -0.411  -0.410  -0.406  -0.403  -0.401  -0.397
 -0.397  -0.394  -0.391  -0.391  -0.390  -0.389  -0.388  -0.384
 -0.381  -0.381  -0.375  -0.374  -0.373  -0.369  -0.368  -0.366
 -0.365  -0.364  -0.364  -0.363  -0.361  -0.361  -0.360  -0.359
 -0.358  -0.357  -0.357  -0.356  -0.354  -0.354  -0.353  -0.350
 -0.350  -0.350  -0.347  -0.346  -0.346  -0.346  -0.344  -0.344
 -0.343  -0.342  -0.341  -0.340  -0.339  -0.337  -0.337  -0.336
 -0.333  -0.332  -0.331  -0.330  -0.330  -0.328  -0.327  -0.326
 -0.309  -0.303  -0.296  -0.291  -0.291  -0.289  -0.273  -0.270
 -0.270  -0.269  -0.268  -0.267  -0.266  -0.265  -0.264  -0.263
 -0.261  -0.261  -0.260  -0.259  -0.259  -0.258  -0.255  -0.251
 -0.249  -0.248  -0.242  -0.242  -0.227  -0.225  -0.214  -0.213
 -0.211  -0.209  -0.207  -0.206  -0.199  -0.197

          Ground-State Mulliken Net Atomic Charges

     Atom                 Charge (a.u.)
  ----------------------------------------
      1 O                    -0.472377
      2 C                    -0.082040
      3 H                     0.122869
      4 H                     0.119196
      5 H                     0.125195
      6 O                    -0.461260
      7 C                     0.581655
      8 C                    -0.253312
      9 H                     0.126917
     10 H                     0.138915
     11 C                    -0.183958
     12 H                     0.109789
     13 H                     0.140101
     14 C                    -0.182979
     15 H                     0.107933
     16 H                     0.107225
     17 C                     0.004395
     18 C                     0.086048
     19 C                    -0.104968
     20 H                     0.104821
     21 C                    -0.093751
     22 H                     0.098892
     23 C                    -0.083461
     24 H                     0.090891
     25 C                    -0.090424
     26 H                     0.089031
     27 C                    -0.101324
     28 H                     0.094297
     29 C                     0.037123
     30 C                    -0.013286
     31 C                     0.025755
     32 C                    -0.019890
     33 C                    -0.006076
     34 C                    -0.022673
     35 C                     0.020371
     36 C                    -0.029669
     37 C                    -0.001308
     38 C                    -0.017344
     39 C                    -0.098890
     40 C                     0.006753
     41 C                     0.003260
     42 C                     0.006262
     43 C                     0.027182
     44 C                     0.003702
     45 C                    -0.106262
     46 C                     0.049283
     47 C                    -0.006507
     48 C                     0.007210
     49 C                     0.011873
     50 C                    -0.017009
     51 C                    -0.000106
     52 C                    -0.000241
     53 C                     0.020088
     54 C                     0.027147
     55 C                     0.001273
     56 C                     0.008600
     57 C                    -0.010840
     58 C                     0.022495
     59 C                     0.019339
     60 C                     0.047704
     61 C                    -0.039841
     62 C                    -0.016822
     63 C                    -0.009095
     64 C                    -0.003239
     65 C                    -0.004239
     66 C                     0.004790
     67 C                     0.011514
     68 C                    -0.008401
     69 C                     0.002744
     70 C                     0.045144
     71 C                     0.004262
     72 C                    -0.018464
     73 C                     0.002143
     74 C                     0.014709
     75 C                     0.000974
     76 C                    -0.015287
     77 C                    -0.035696
     78 C                    -0.005478
     79 C                     0.000810
     80 C                    -0.024275
     81 C                     0.006809
     82 C                     0.004528
     83 C                    -0.020222
     84 C                    -0.000882
     85 C                    -0.035027
     86 C                     0.002609
     87 C                    -0.008493
     88 C                     0.010358
     89 O                    -0.463954
     90 C                    -0.085287
     91 H                     0.125625
     92 H                     0.140619
     93 H                     0.124206
     94 O                    -0.480780
     95 C                     0.573457
     96 C                    -0.240327
     97 H                     0.131430
     98 H                     0.134074
     99 C                    -0.200936
    100 H                     0.117425
    101 H                     0.126671
    102 C                    -0.167211
    103 H                     0.128463
    104 H                     0.115753
    105 C                    -0.016429
    106 C                     0.103020
    107 C                    -0.117061
    108 H                     0.088656
    109 C                    -0.100339
    110 H                     0.093786
    111 C                    -0.061098
    112 H                     0.090900
    113 C                    -0.090716
    114 H                     0.085602
    115 C                    -0.118634
    116 H                     0.086297
    117 C                     0.014472
    118 C                     0.021335
    119 C                    -0.010216
    120 C                     0.037066
    121 C                     0.009209
    122 C                    -0.033475
    123 C                    -0.023242
    124 C                    -0.010677
    125 C                     0.005467
    126 C                    -0.027741
    127 C                    -0.095831
    128 C                    -0.004906
    129 C                    -0.008999
    130 C                     0.016871
    131 C                    -0.005743
    132 C                    -0.007509
    133 C                    -0.065691
    134 C                     0.004495
    135 C                    -0.006212
    136 C                    -0.015958
    137 C                    -0.027670
    138 C                     0.012264
    139 C                    -0.051930
    140 C                     0.003279
    141 C                     0.024248
    142 C                    -0.009500
    143 C                     0.005860
    144 C                    -0.004604
    145 C                     0.020130
    146 C                    -0.018203
    147 C                     0.017026
    148 C                     0.019491
    149 C                    -0.006545
    150 C                    -0.044383
    151 C                     0.013166
    152 C                     0.011755
    153 C                    -0.025079
    154 C                    -0.037199
    155 C                    -0.023890
    156 C                    -0.018322
    157 C                     0.002250
    158 C                     0.048486
    159 C                    -0.002694
    160 C                     0.034964
    161 C                    -0.009769
    162 C                     0.003151
    163 C                     0.006128
    164 C                     0.024380
    165 C                     0.021949
    166 C                     0.000968
    167 C                     0.009038
    168 C                     0.007967
    169 C                     0.004988
    170 C                    -0.014757
    171 C                     0.017696
    172 C                     0.015881
    173 C                     0.036083
    174 C                     0.003122
    175 C                    -0.013621
    176 C                     0.028408
  ----------------------------------------
  Sum of atomic charges =     0.000000

                    Cartesian Multipole Moments
 -----------------------------------------------------------------
    Charge (ESU x 10^10)
                 0.0000
    Dipole Moment (Debye)
         X       2.5563      Y      -2.2628      Z       2.3202
       Tot       4.1278
    Quadrupole Moments (Debye-Ang)
        XX    -825.5975     XY      13.9854     YY    -791.2080
        XZ      -8.4146     YZ     -20.3469     ZZ    -793.3835

 Total job time:  840.81s(wall), 7144.76s(cpu)
        *  Thank you very much for using Q-Chem.  Have a nice day.  *
