 Q-Chem 4.4, Q-Chem, Inc., Pleasanton, CA (2016)
 Q-Chem 4.4.2 for Intel X86 Linux

User input:
--------------------------------------------------------------
$comment
SP
$end

$rem
MEM_STATIC 5000
MEM_TOTAL 20000
JOBTYPE SP
EXCHANGE B3LYP
BASIS 6-31g(d,p)
$end

$molecule
0 1
O          16.250000    -15.481000      0.863000
C          16.917000    -14.739000      1.877000
H          17.994000    -14.770000      1.668000
H          16.750000    -15.241000      2.838000
H          16.546000    -13.707000      1.897000
O          14.116000    -15.338000      1.731000
C          14.918000    -15.712000      0.840000
C          14.394000    -16.397000     -0.450000
H          14.022000    -17.393000     -0.178000
H          15.212000    -16.623000     -1.144000
C          13.317000    -15.553000     -1.171000
H          13.000000    -16.171000     -2.020000
H          12.438000    -15.409000     -0.531000
C          13.922000    -14.225000     -1.674000
H          14.810000    -13.988000     -1.076000
H          14.433000    -14.336000     -2.639000
C          12.983000    -13.052000     -1.836000
C          12.130000    -13.213000     -3.051000
C          10.826000    -13.705000     -2.995000
H          10.495000    -14.243000     -2.112000
C          10.067000    -13.932000     -4.146000
H           9.164000    -14.521000     -4.015000
C          10.415000    -13.302000     -5.320000
H           9.849000    -13.407000     -6.241000
C          11.691000    -12.736000     -5.412000
H          12.009000    -12.329000     -6.367000
C          12.566000    -12.744000     -4.319000
H          13.572000    -12.368000     -4.484000
C          12.589000     -7.572000     -1.806000
C          10.444000     -8.409000     -0.910000
C          11.276000     -7.020000      3.361000
C          16.561000     -9.579000      0.707000
C          12.243000    -10.192000      4.506000
C          11.517000     -8.526000     -1.792000
C          15.620000     -9.861000      3.345000
C          11.797000     -5.998000      1.211000
C          10.897000    -11.852000      1.012000
C          16.151000    -10.800000      1.177000
C          12.559000    -12.353000     -0.592000
C          11.980000    -12.387000      1.702000
C          14.604000    -11.880000      2.582000
C          14.588000     -9.714000      4.259000
C          10.982000    -10.521000     -1.001000
C          13.020000     -7.904000      4.519000
C          13.552000    -11.661000     -1.495000
C          14.886000    -11.220000     -0.884000
C          11.948000     -8.811000      4.569000
C          15.223000     -6.430000      1.489000
C          13.477000     -6.111000      2.899000
C          13.106000     -5.756000      1.652000
C          11.519000     -6.377000     -0.107000
C          15.220000     -9.960000     -1.362000
C          11.228000    -11.735000     -0.362000
C          10.428000     -7.214000     -0.071000
C          15.661000    -10.984000      2.494000
C          10.062000     -9.668000     -0.411000
C          12.194000    -11.984000      3.083000
C          15.801000     -7.785000     -0.498000
C          10.854000     -6.609000      2.092000
C          12.987000    -12.601000      0.814000
C          13.912000     -6.278000     -0.536000
C          13.521000    -11.771000      3.516000
C          10.128000    -10.824000      1.655000
C          15.264000     -7.668000      3.596000
C          16.082000     -8.589000      2.913000
C          10.322000    -10.462000      2.973000
C          16.103000     -9.127000     -0.598000
C          15.273000    -11.635000      0.398000
C          16.037000     -7.386000      0.833000
C          13.151000    -10.352000     -2.109000
C           9.664000     -8.680000      1.763000
C          14.307000    -12.241000      1.247000
C          11.429000    -10.978000      3.681000
C          14.716000     -7.198000     -1.188000
C          10.878000     -8.270000      3.848000
C          12.614000     -6.462000     -0.984000
C          12.613000     -6.762000      3.750000
C           9.731000     -9.762000      0.922000
C          10.062000     -9.105000      3.052000
C          11.876000     -9.845000     -1.891000
C          14.146000     -9.403000     -2.073000
C          14.793000     -6.581000      2.806000
C          10.026000     -7.406000      1.275000
C          13.533000    -10.657000      4.369000
C          16.510000     -8.492000      1.548000
C          14.375000     -8.341000      4.404000
C          13.908000     -8.050000     -1.906000
C          14.187000     -5.890000      0.781000
O          30.379000    -11.839000      7.965000
C          31.353000    -10.922000      8.567000
H          32.262000    -10.974000      7.956000
H          31.579000    -11.205000      9.603000
H          30.959000     -9.901000      8.643000
O          29.218000    -12.016000      9.825000
C          29.254000    -12.195000      8.617000
C          28.306000    -12.928000      7.739000
H          27.556000    -13.464000      8.335000
H          28.812000    -13.765000      7.244000
C          27.579000    -12.026000      6.738000
H          26.953000    -11.292000      7.260000
H          28.365000    -11.387000      6.318000
C          26.756000    -12.895000      5.742000
H          27.399000    -13.090000      4.875000
H          26.139000    -13.662000      6.226000
C          25.666000    -12.000000      5.049000
C          26.206000    -11.226000      3.900000
C          26.321000    -11.783000      2.594000
H          25.885000    -12.767000      2.446000
C          26.807000    -11.007000      1.509000
H          26.989000    -11.438000      0.529000
C          27.223000     -9.705000      1.708000
H          27.640000     -9.052000      0.948000
C          27.283000     -9.233000      2.960000
H          27.674000     -8.235000      3.138000
C          26.719000     -9.945000      4.070000
H          26.523000     -9.528000      5.053000
C          21.545000     -8.556000      5.779000
C          20.938000     -9.505000      3.648000
C          17.501000    -12.010000      5.366000
C          22.391000    -11.937000      9.265000
C          19.401000    -14.961000      5.668000
C          21.937000     -8.999000      4.467000
C          20.696000    -14.149000      8.850000
C          18.115000     -9.712000      5.747000
C          22.392000    -13.290000      3.526000
C          22.959000    -13.113000      8.781000
C          24.247000    -12.580000      4.833000
C          22.650000    -14.251000      4.541000
C          22.447000    -14.724000      7.266000
C          19.749000    -14.686000      7.998000
C          22.764000    -10.866000      3.534000
C          17.855000    -13.524000      6.974000
C          24.489000    -11.455000      5.832000
C          24.336000    -11.701000      7.287000
C          18.249000    -14.129000      5.756000
C          19.187000    -10.345000      9.018000
C          17.564000    -11.175000      7.593000
C          18.054000     -9.915000      7.137000
C          19.192000     -8.912000      5.241000
C          23.660000    -10.566000      7.818000
C          23.261000    -12.231000      3.703000
C          19.596000     -9.511000      3.982000
C          22.072000    -14.172000      8.501000
C          21.469000    -10.669000      3.024000
C          21.598000    -14.947000      5.038000
C          21.577000     -9.779000      8.928000
C          17.911000    -10.764000      4.856000
C          23.726000    -13.815000      5.342000
C          20.061000     -8.648000      7.504000
C          21.480000    -15.308000      6.397000
C          21.062000    -13.103000      2.989000
C          18.933000    -12.835000      9.007000
C          20.196000    -12.950000      9.481000
C          19.991000    -13.865000      3.461000
C          22.748000    -10.660000      8.845000
C          23.830000    -13.002000      7.707000
C          20.504000    -10.590000      9.430000
C          23.794000    -10.158000      5.631000
C          19.327000    -11.785000      3.166000
C          23.483000    -13.985000      6.728000
C          20.262000    -14.787000      4.577000
C          21.336000     -8.821000      7.961000
C          18.010000    -13.184000      4.756000
C          20.192000     -8.475000      6.101000
C          17.347000    -12.196000      6.715000
C          20.676000    -11.773000      2.733000
C          18.882000    -13.025000      3.638000
C          23.028000     -9.882000      4.484000
C          23.389000     -9.587000      6.853000
C          18.386000    -11.478000      8.719000
C          18.832000    -10.655000      3.801000
C          20.155000    -15.241000      6.769000
C          21.033000    -11.860000      9.581000
C          18.636000    -13.813000      8.091000
C          22.292000     -8.713000      6.933000
C          18.982000     -9.401000      8.030000
$end

--------------------------------------------------------------

             Standard Nuclear Orientation (Angstroms)
    I     Atom           X                Y                Z
 ----------------------------------------------------------------
    1      O       2.0019705441    -4.5237680236    -1.9859908913
    2      C       1.0217076137    -3.5014274222    -1.8535020907
    3      H       0.1787670145    -3.9108457893    -1.2821889131
    4      H       0.6524325486    -3.2459347139    -2.8543883991
    5      H       1.4529280884    -2.6260645178    -1.3526491305
    6      O       3.4652409415    -3.3715891916    -3.3494983842
    7      C       3.1479806838    -4.3930005634    -2.6914514720
    8      C       4.1415333037    -5.5768417174    -2.5526195110
    9      H       4.2230819146    -6.0676891850    -3.5307823746
   10      H       3.7332935616    -6.3696071933    -1.9148897774
   11      C       5.5199264066    -5.1305394213    -2.0113684468
   12      H       6.1305283011    -6.0417738846    -2.0169433211
   13      H       5.9977550454    -4.4180097137    -2.6947118508
   14      C       5.3830177627    -4.5886107164    -0.5725538993
   15      H       4.3508622248    -4.2544030595    -0.4135658888
   16      H       5.3846111491    -5.3887466747     0.1787429192
   17      C       6.4121802469    -3.5838911954    -0.1085956411
   18      C       7.7163971621    -4.2496984830     0.1837635450
   19      C       8.7706960937    -4.2727807011    -0.7292189160
   20      H       8.5774723883    -4.0531863417    -1.7747507983
   21      C       9.9549681496    -4.9711298618    -0.4797812536
   22      H      10.6128999216    -5.1165932832    -1.3315189928
   23      C      10.2824588146    -5.3050988506     0.8154000382
   24      H      11.2027573535    -5.8162674042     1.0825691030
   25      C       9.2781325480    -5.2419855986     1.7871723715
   26      H       9.5021023718    -5.6011472422     2.7869915710
   27      C       7.9936480324    -4.7834386650     1.4706723891
   28      H       7.2379046877    -4.8433713918     2.2490662902
   29      C       7.3642239375     0.6407978054     3.2725508593
   30      C       8.7123642473     1.0774945103     1.2486378935
   31      C       6.1101470108     4.5532315291    -0.1693549238
   32      C       2.4759308872    -0.2655136142     2.0879865238
   33      C       4.3610769145     2.6476575713    -2.5394265872
   34      C       8.1837536238     0.1897212698     2.1842507847
   35      C       2.0075514643     1.3735639566    -0.1521238381
   36      C       6.7963256398     3.8705502224     2.0670551733
   37      C       7.0104634543    -0.4297366055    -2.0048725267
   38      C       2.4707105544    -0.7940854655     0.8229072590
   39      C       6.2686490346    -2.1913721195    -0.6147600555
   40      C       5.6767268203    -0.6647124685    -2.3229085860
   41      C       3.0273779178    -0.3689178130    -1.4227525358
   42      C       2.4885809961     2.2937735638    -1.0707390286
   43      C       8.0466221071    -0.6919357681     0.1604408098
   44      C       3.9374957585     4.1868643166    -0.7255182104
   45      C       5.9117373551    -2.4659188347     0.8266143421
   46      C       4.5077280399    -2.0771936260     1.3009650088
   47      C       4.7452168190     3.7932426535    -1.8057874706
   48      C       3.6278223177     2.8990861026     3.0761280951
   49      C       4.5146087235     4.4246604046     1.6532402150
   50      C       5.4724833205     4.0111513976     2.5077351287
   51      C       7.6235200428     2.8402857055     2.5278734075
   52      C       4.5874528547    -1.5061275822     2.5639644259
   53      C       7.3897508115    -1.2678482857    -0.9255968844
   54      C       8.4624316929     2.4951019207     1.4938417842
   55      C       2.2495876219    -0.0033859290    -0.3322307811
   56      C       8.6645976029     0.5315909294    -0.0473997712
   57      C       4.8780454953     0.4376814385    -2.8349650429
   58      C       3.9164958359     0.5196027808     3.6868692195
   59      C       7.1293315019     4.1803709996     0.7135969428
   60      C       5.1974923645    -1.6131993490    -1.4749133184
   61      C       5.7528049189     2.0783712153     3.8844139468
   62      C       3.5390250559     0.5472901721    -2.4004570588
   63      C       7.4914296120     0.9216890515    -2.0674364838
   64      C       2.4475985954     3.2588960194     0.9662980571
   65      C       1.9551286762     1.9513994896     1.1445680868
   66      C       6.7355386684     1.9592688599    -2.5752366634
   67      C       3.5483122667    -0.6211938915     3.0048195059
   68      C       3.5124105648    -1.6909593378     0.3922933419
   69      C       3.1219991189     1.5829226903     3.2129665539
   70      C       6.7026329172    -1.7662758953     1.8925702358
   71      C       8.0881928392     2.7079264597    -0.9374251687
   72      C       3.8812820819    -1.3916128797    -0.9476762480
   73      C       5.3744618244     1.7439089856    -2.8819269787
   74      C       5.2578862012     0.7940760307     4.0379109878
   75      C       6.0830696843     4.0105087434    -1.4588477684
   76      C       7.0769836136     1.9743491582     3.4905939420
   77      C       4.7884840725     4.6670998876     0.3263214570
   78      C       8.3074566742     1.3616924104    -1.0859891455
   79      C       7.0788136501     3.0883427564    -1.8522951560
   80      C       7.7680121310    -0.9468205265     1.5409197995
   81      C       5.9258476038    -1.2697365750     2.9133421400
   82      C       3.3581388480     3.7002111054     1.9681301005
   83      C       8.1498609486     3.2766440696     0.3529318844
   84      C       3.2488050443     1.9060550460    -2.2048059347
   85      C       2.2432856891     1.0806491352     2.2466467393
   86      C       2.7612550301     3.4642995206    -0.3586710152
   87      C       6.2075640668    -0.0946855261     3.5879033804
   88      C       4.9297253612     3.1154896379     3.4288007125
   89      O     -13.2858888058    -0.7899518796     1.9726935494
   90      C     -14.3176442621     0.0364263392     2.6087349930
   91      H     -14.8249878496    -0.5963642693     3.3466269431
   92      H     -15.0403968903     0.4085678713     1.8714424333
   93      H     -13.8942997555     0.9435444433     3.0574767604
   94      O     -13.1798882534     0.5009924239     0.1947518494
   95      C     -12.6561285051    -0.3864325253     0.8510701302
   96      C     -11.4946425493    -1.2510567361     0.5190274392
   97      H     -11.1856062331    -1.1067239977    -0.5243692332
   98      H     -11.7951107204    -2.3051031056     0.5007209062
   99      C     -10.2814139069    -1.0174321818     1.4232562978
  100      H      -9.9008926588     0.0046398293     1.3062589311
  101      H     -10.6939768087    -0.9846074246     2.4387519340
  102      C      -9.1881513304    -2.0867008096     1.1300881883
  103      H      -9.3578765468    -2.9210107947     1.8216684077
  104      H      -8.9679687723    -2.2165118062     0.0633629443
  105      C      -7.8059669617    -1.5817663143     1.6814333855
  106      C      -7.6414156744    -1.8381516011     3.1367912310
  107      C      -7.1828064504    -3.0884937927     3.6421940244
  108      H      -6.8440076706    -3.8138953921     2.9078481206
  109      C      -7.0014374024    -3.2910311063     5.0356361312
  110      H      -6.7422280517    -4.2619176793     5.4473092719
  111      C      -7.3109534237    -2.2907994031     5.9365231232
  112      H      -7.2382358891    -2.3688437598     7.0165783249
  113      C      -7.9060718297    -1.1793359204     5.4844490039
  114      H      -8.2183380842    -0.4141870165     6.1898608986
  115      C      -8.0240725147    -0.8947288288     4.0836582837
  116      H      -8.2740962944     0.0708467121     3.6550022626
  117      C      -4.1694100916     2.4371390348     1.7044752006
  118      C      -2.7328465393     0.5567126824     2.1632702458
  119      C      -0.8394490490     0.5571145240    -2.0145956906
  120      C      -6.9519909914     1.8464374772    -2.3213648615
  121      C      -2.9752348671    -1.9251170216    -3.3132682795
  122      C      -3.9364889284     1.2024529961     2.4062979116
  123      C      -5.5278992118     0.3358561270    -4.2261747176
  124      C      -1.2950967597     2.3695766681    -0.4946196580
  125      C      -4.3725806478    -2.7060770567     0.3967198867
  126      C      -7.3502832214     0.5299786872    -2.5408085992
  127      C      -6.5318259575    -1.8110395016     0.8325426346
  128      C      -5.1902858157    -2.8632785603    -0.7552158519
  129      C      -6.3652468882    -1.4902472746    -2.8587401723
  130      C      -4.3573952391    -0.3659094397    -4.4464643890
  131      C      -4.4252226783    -0.9711268095     2.1291749240
  132      C      -2.0862077747     0.3274901252    -3.8574308203
  133      C      -7.0908760959    -0.4089969794     1.0421367870
  134      C      -7.6786029119     0.3397048668    -0.0958319011
  135      C      -1.9182238729    -0.9713011376    -3.3191858349
  136      C      -3.8599681757     3.6543955313    -2.4996107075
  137      C      -1.8604159593     2.5411520802    -2.8403950268
  138      C      -1.9271808736     3.0885010567    -1.5244970276
  139      C      -1.9020999405     2.4006749028     0.8040508308
  140      C      -7.2132012499     1.6801714097     0.0212695094
  141      C      -5.0941829309    -2.0099889245     1.3468369622
  142      C      -1.7226202561     1.0787275853     1.3761874687
  143      C      -6.5639184537    -0.2252885803    -3.4340341064
  144      C      -3.0308204605    -0.8281842951     2.0236102872
  145      C      -4.5889712906    -2.8278583382    -1.9698331783
  146      C      -5.8364905750     3.4525529210    -1.0528298789
  147      C      -0.8123313784     1.0797932383    -0.7081548792
  148      C      -6.4604414381    -2.2995571363    -0.5135635168
  149      C      -3.7078267342     3.7858433099    -0.0715548055
  150      C      -5.1745488359    -2.2329788054    -3.1075252632
  151      C      -2.9359373615    -2.5789155397     0.2866107746
  152      C      -3.9162766926     1.8398757005    -4.2227137615
  153      C      -5.2563096018     1.7439230120    -4.0548600041
  154      C      -2.3136488462    -2.6038878529    -0.9634301796
  155      C      -6.9180178219     2.4605102156    -1.0738318978
  156      C      -7.5853978106    -0.2567735595    -1.4226941005
  157      C      -5.2323194031     3.4097795191    -2.3544448878
  158      C      -6.2417728245     0.6064294206     1.7156112562
  159      C      -1.3578000755    -1.0662587677     0.2921059306
  160      C      -6.9281922625    -1.5148470258    -1.5972536057
  161      C      -3.1863719186    -2.6726834871    -2.1477454246
  162      C      -5.0568150318     3.6330241864     0.0743214728
  163      C      -1.1260483583    -0.8214009599    -2.1789516963
  164      C      -3.1339887111     3.0196692261     0.9768660053
  165      C      -1.3689864073     1.2857486631    -3.0474536079
  166      C      -2.3262838504    -1.6464590156     1.1481671727
  167      C      -1.3356178136    -1.5994919220    -1.0015630187
  168      C      -4.9961352561     0.2896566789     2.2870857337
  169      C      -6.4059361985     1.8848016227     1.1480155378
  170      C      -3.1479415289     2.8113410268    -3.3923414377
  171      C      -1.1003174754     0.2913027642     0.4181194125
  172      C      -4.1889504511    -1.6368287820    -3.8636330421
  173      C      -5.9098065707     2.4234630350    -3.0499540041
  174      C      -3.3321086484     0.6124343884    -4.4121458639
  175      C      -5.3882923954     2.8520605868     1.1979773870
  176      C      -3.1032660834     3.8028168417    -1.3530165953
 ----------------------------------------------------------------

    9   -5804.2345395423      9.70E-06 Convergence criterion met
 Total energy in the final basis set = -5804.2345395423

                    Orbital Energies (a.u.)
 --------------------------------------------------------------

 Alpha MOs
 -- Occupied --
-19.194 -19.185 -19.129 -19.127 -10.320 -10.313 -10.247 -10.241
-10.241 -10.240 -10.238 -10.237 -10.236 -10.232 -10.230 -10.228
-10.227 -10.227 -10.226 -10.225 -10.225 -10.224 -10.223 -10.222
-10.222 -10.222 -10.222 -10.220 -10.220 -10.220 -10.220 -10.220
-10.220 -10.219 -10.219 -10.219 -10.219 -10.219 -10.218 -10.218
-10.218 -10.218 -10.218 -10.218 -10.217 -10.217 -10.217 -10.217
-10.216 -10.216 -10.216 -10.216 -10.216 -10.216 -10.216 -10.216
-10.216 -10.215 -10.215 -10.215 -10.215 -10.215 -10.215 -10.215
-10.215 -10.214 -10.214 -10.214 -10.214 -10.214 -10.214 -10.214
-10.214 -10.214 -10.214 -10.213 -10.213 -10.213 -10.213 -10.213
-10.213 -10.213 -10.212 -10.212 -10.212 -10.212 -10.212 -10.212
-10.212 -10.212 -10.211 -10.211 -10.211 -10.211 -10.211 -10.211
-10.211 -10.211 -10.211 -10.210 -10.210 -10.210 -10.210 -10.210
-10.210 -10.209 -10.209 -10.209 -10.208 -10.208 -10.208 -10.208
-10.207 -10.207 -10.207 -10.207 -10.207 -10.207 -10.207 -10.207
-10.206 -10.206 -10.206 -10.206 -10.205 -10.205 -10.204 -10.204
-10.204 -10.204 -10.203 -10.203 -10.203 -10.202 -10.201 -10.201
-10.201 -10.201 -10.200 -10.199 -10.199 -10.198 -10.198 -10.196
-10.196 -10.196 -10.195 -10.192  -1.093  -1.090  -0.996  -0.993
 -0.985  -0.982  -0.967  -0.966  -0.964  -0.964  -0.962  -0.958
 -0.936  -0.934  -0.930  -0.928  -0.925  -0.924  -0.923  -0.923
 -0.920  -0.918  -0.899  -0.896  -0.893  -0.890  -0.887  -0.886
 -0.877  -0.875  -0.858  -0.856  -0.842  -0.841  -0.839  -0.838
 -0.835  -0.831  -0.827  -0.822  -0.813  -0.804  -0.798  -0.798
 -0.796  -0.795  -0.795  -0.793  -0.790  -0.788  -0.787  -0.782
 -0.774  -0.773  -0.770  -0.769  -0.766  -0.765  -0.763  -0.761
 -0.750  -0.749  -0.744  -0.743  -0.739  -0.733  -0.720  -0.717
 -0.714  -0.713  -0.712  -0.712  -0.711  -0.710  -0.709  -0.709
 -0.708  -0.707  -0.705  -0.704  -0.703  -0.700  -0.677  -0.668
 -0.661  -0.658  -0.656  -0.652  -0.651  -0.647  -0.637  -0.631
 -0.630  -0.628  -0.626  -0.624  -0.623  -0.619  -0.619  -0.618
 -0.617  -0.614  -0.613  -0.612  -0.611  -0.609  -0.609  -0.608
 -0.604  -0.604  -0.604  -0.599  -0.568  -0.567  -0.565  -0.563
 -0.563  -0.562  -0.559  -0.558  -0.556  -0.556  -0.552  -0.551
 -0.538  -0.536  -0.536  -0.532  -0.530  -0.526  -0.525  -0.524
 -0.523  -0.521  -0.520  -0.518  -0.518  -0.515  -0.512  -0.511
 -0.510  -0.504  -0.504  -0.502  -0.498  -0.492  -0.488  -0.485
 -0.483  -0.483  -0.482  -0.480  -0.479  -0.478  -0.476  -0.474
 -0.473  -0.471  -0.471  -0.469  -0.469  -0.468  -0.468  -0.466
 -0.465  -0.464  -0.463  -0.461  -0.460  -0.459  -0.459  -0.458
 -0.457  -0.455  -0.454  -0.452  -0.449  -0.445  -0.444  -0.443
 -0.442  -0.442  -0.439  -0.438  -0.437  -0.435  -0.434  -0.432
 -0.431  -0.430  -0.428  -0.426  -0.425  -0.425  -0.423  -0.423
 -0.422  -0.422  -0.421  -0.420  -0.420  -0.419  -0.417  -0.417
 -0.416  -0.416  -0.415  -0.414  -0.414  -0.413  -0.412  -0.411
 -0.410  -0.410  -0.408  -0.407  -0.405  -0.403  -0.401  -0.397
 -0.396  -0.393  -0.392  -0.390  -0.389  -0.388  -0.385  -0.383
 -0.379  -0.376  -0.374  -0.372  -0.371  -0.370  -0.369  -0.366
 -0.365  -0.365  -0.363  -0.362  -0.361  -0.359  -0.358  -0.358
 -0.357  -0.356  -0.355  -0.354  -0.354  -0.351  -0.351  -0.349
 -0.349  -0.349  -0.347  -0.345  -0.345  -0.344  -0.343  -0.342
 -0.341  -0.341  -0.339  -0.338  -0.338  -0.338  -0.335  -0.334
 -0.333  -0.332  -0.331  -0.329  -0.327  -0.325  -0.324  -0.318
 -0.311  -0.309  -0.293  -0.292  -0.291  -0.286  -0.272  -0.270
 -0.269  -0.268  -0.267  -0.265  -0.265  -0.263  -0.263  -0.262
 -0.262  -0.260  -0.259  -0.256  -0.255  -0.253  -0.253  -0.251
 -0.250  -0.248  -0.244  -0.243  -0.227  -0.219  -0.216  -0.211
 -0.209  -0.207  -0.204  -0.202  -0.200  -0.194

          Ground-State Mulliken Net Atomic Charges

     Atom                 Charge (a.u.)
  ----------------------------------------
      1 O                    -0.462194
      2 C                    -0.084329
      3 H                     0.126264
      4 H                     0.128715
      5 H                     0.132539
      6 O                    -0.489418
      7 C                     0.592428
      8 C                    -0.253377
      9 H                     0.130018
     10 H                     0.116375
     11 C                    -0.176006
     12 H                     0.109951
     13 H                     0.125904
     14 C                    -0.191969
     15 H                     0.112122
     16 H                     0.104325
     17 C                     0.023109
     18 C                     0.085974
     19 C                    -0.113595
     20 H                     0.088190
     21 C                    -0.088487
     22 H                     0.091197
     23 C                    -0.078882
     24 H                     0.090235
     25 C                    -0.089082
     26 H                     0.090656
     27 C                    -0.100306
     28 H                     0.089406
     29 C                    -0.024573
     30 C                    -0.021613
     31 C                    -0.002950
     32 C                    -0.000106
     33 C                     0.004629
     34 C                    -0.001455
     35 C                    -0.030939
     36 C                    -0.006700
     37 C                    -0.021435
     38 C                    -0.009315
     39 C                    -0.092126
     40 C                     0.013226
     41 C                     0.012228
     42 C                     0.023489
     43 C                     0.016546
     44 C                    -0.007085
     45 C                    -0.088537
     46 C                     0.023646
     47 C                    -0.002964
     48 C                     0.013797
     49 C                     0.011207
     50 C                     0.009359
     51 C                     0.025671
     52 C                    -0.001191
     53 C                    -0.007490
     54 C                    -0.012207
     55 C                     0.010280
     56 C                    -0.011538
     57 C                     0.002643
     58 C                     0.002361
     59 C                    -0.008125
     60 C                     0.096178
     61 C                     0.017790
     62 C                    -0.034707
     63 C                     0.000551
     64 C                    -0.011339
     65 C                    -0.000147
     66 C                    -0.013159
     67 C                    -0.019341
     68 C                    -0.035468
     69 C                    -0.007289
     70 C                     0.022111
     71 C                     0.001476
     72 C                     0.004195
     73 C                     0.006354
     74 C                    -0.013951
     75 C                     0.012066
     76 C                    -0.021307
     77 C                    -0.004758
     78 C                     0.040123
     79 C                    -0.015207
     80 C                     0.040831
     81 C                     0.007843
     82 C                    -0.007187
     83 C                    -0.017190
     84 C                    -0.000006
     85 C                     0.000474
     86 C                    -0.004619
     87 C                     0.027213
     88 C                    -0.009943
     89 O                    -0.464340
     90 C                    -0.085690
     91 H                     0.125819
     92 H                     0.140943
     93 H                     0.124491
     94 O                    -0.479774
     95 C                     0.572855
     96 C                    -0.239842
     97 H                     0.131304
     98 H                     0.133932
     99 C                    -0.200621
    100 H                     0.117521
    101 H                     0.126790
    102 C                    -0.167879
    103 H                     0.128520
    104 H                     0.115920
    105 C                    -0.017446
    106 C                     0.103065
    107 C                    -0.116860
    108 H                     0.087770
    109 C                    -0.100708
    110 H                     0.092460
    111 C                    -0.060901
    112 H                     0.091505
    113 C                    -0.090694
    114 H                     0.086540
    115 C                    -0.118324
    116 H                     0.086821
    117 C                     0.014778
    118 C                     0.020392
    119 C                    -0.002840
    120 C                     0.037678
    121 C                     0.008715
    122 C                    -0.032505
    123 C                    -0.023068
    124 C                    -0.001800
    125 C                     0.008734
    126 C                    -0.026922
    127 C                    -0.094615
    128 C                    -0.006050
    129 C                    -0.009622
    130 C                     0.017137
    131 C                    -0.006445
    132 C                    -0.006179
    133 C                    -0.065718
    134 C                     0.005296
    135 C                    -0.008104
    136 C                    -0.013451
    137 C                    -0.024681
    138 C                     0.010440
    139 C                    -0.051204
    140 C                     0.004008
    141 C                     0.024397
    142 C                    -0.007191
    143 C                     0.007315
    144 C                     0.000623
    145 C                     0.020623
    146 C                    -0.018002
    147 C                     0.005022
    148 C                     0.020203
    149 C                    -0.004615
    150 C                    -0.043199
    151 C                     0.004940
    152 C                     0.011937
    153 C                    -0.023810
    154 C                    -0.043689
    155 C                    -0.023188
    156 C                    -0.018842
    157 C                     0.002342
    158 C                     0.049576
    159 C                    -0.008061
    160 C                     0.034245
    161 C                    -0.010611
    162 C                     0.003076
    163 C                     0.009637
    164 C                     0.024610
    165 C                     0.023180
    166 C                    -0.006579
    167 C                    -0.001589
    168 C                     0.008369
    169 C                     0.004917
    170 C                    -0.014931
    171 C                     0.030375
    172 C                     0.016284
    173 C                     0.034074
    174 C                     0.005320
    175 C                    -0.012098
    176 C                     0.028104
  ----------------------------------------
  Sum of atomic charges =     0.000000

                    Cartesian Multipole Moments
 -----------------------------------------------------------------
    Charge (ESU x 10^10)
                 0.0000
    Dipole Moment (Debye)
         X      -1.1990      Y      -4.9569      Z       3.7060
       Tot       6.3042
    Quadrupole Moments (Debye-Ang)
        XX    -785.7057     XY     -10.9598     YY    -785.2329
        XZ     -31.4948     YZ      -2.7734     ZZ    -800.2545

 Total job time:  874.08s(wall), 7438.79s(cpu)
        *  Thank you very much for using Q-Chem.  Have a nice day.  *
