 Q-Chem 4.4, Q-Chem, Inc., Pleasanton, CA (2016)
 Q-Chem 4.4.2 for Intel X86 Linux

User input:
--------------------------------------------------------------
$comment
SP
$end

$rem
MEM_STATIC 5000
MEM_TOTAL 20000
JOBTYPE SP
EXCHANGE B3LYP
BASIS 6-31g(d,p)
$end

$molecule
0 1
O          17.228000    -12.091000    -11.460000
C          18.279000    -11.935000    -12.476000
H          18.295000    -12.843000    -13.091000
H          19.331000    -11.860000    -12.172000
H          17.968000    -11.147000    -13.172000
O          18.660000    -11.581000     -9.792000
C          17.517000    -11.772000    -10.187000
C          16.224000    -11.644000     -9.368000
H          15.655000    -10.908000     -9.949000
H          16.523000    -11.179000     -8.420000
C          15.503000    -12.952000     -9.005000
H          16.191000    -13.585000     -8.430000
H          14.773000    -12.682000     -8.232000
C          14.774000    -13.744000    -10.098000
H          13.775000    -13.320000    -10.256000
H          15.322000    -13.563000    -11.031000
C          14.626000    -15.213000     -9.801000
C          13.327000    -15.538000     -8.976000
C          12.109000    -15.666000     -9.656000
H          12.015000    -15.546000    -10.731000
C          10.943000    -15.891000     -8.913000
H           9.948000    -16.013000     -9.329000
C          11.035000    -15.906000     -7.506000
H          10.104000    -16.039000     -6.962000
C          12.292000    -15.902000     -6.859000
H          12.394000    -16.006000     -5.783000
C          13.404000    -15.724000     -7.632000
H          14.364000    -15.485000     -7.184000
C          17.112000    -19.962000     -8.281000
C          15.265000    -20.671000     -9.768000
C          17.839000    -21.948000    -13.357000
C          19.867000    -16.405000    -10.873000
C          17.069000    -18.973000    -15.172000
C          15.825000    -19.781000     -8.813000
C          19.751000    -17.034000    -13.566000
C          18.254000    -22.172000    -10.992000
C          14.329000    -17.916000    -12.444000
C          18.899000    -15.766000    -11.760000
C          14.996000    -16.207000    -10.891000
C          14.993000    -16.874000    -13.210000
C          17.563000    -15.896000    -13.500000
C          19.241000    -17.989000    -14.511000
C          14.388000    -18.625000    -10.138000
C          19.038000    -20.331000    -14.476000
C          15.854000    -16.118000     -9.687000
C          17.269000    -15.773000     -9.942000
C          17.682000    -20.225000    -14.861000
C          20.724000    -19.767000    -10.857000
C          19.968000    -21.281000    -12.398000
C          19.504000    -21.597000    -11.162000
C          17.459000    -21.833000     -9.888000
C          18.142000    -16.503000     -9.173000
C          14.267000    -17.563000    -11.062000
C          16.131000    -21.710000    -10.294000
C          18.907000    -16.014000    -13.111000
C          14.339000    -19.953000    -10.609000
C          15.692000    -17.305000    -14.364000
C          19.966000    -18.070000     -9.297000
C          17.386000    -22.253000    -12.094000
C          15.502000    -15.944000    -12.306000
C          19.200000    -20.373000     -9.047000
C          17.030000    -16.787000    -14.492000
C          14.301000    -19.221000    -12.935000
C          20.663000    -19.097000    -13.161000
C          20.591000    -17.793000    -12.698000
C          15.033000    -19.625000    -14.054000
C          19.455000    -16.848000     -9.563000
C          17.627000    -15.484000    -11.252000
C          20.733000    -18.430000    -10.400000
C          16.032000    -17.325000     -8.778000
C          15.165000    -21.256000    -12.526000
C          16.813000    -15.582000    -12.404000
C          15.747000    -18.623000    -14.745000
C          19.223000    -19.056000     -8.521000
C          16.965000    -21.230000    -14.177000
C          17.953000    -20.959000     -8.869000
C          19.153000    -21.412000    -13.533000
C          14.276000    -20.251000    -11.968000
C          15.650000    -20.848000    -13.795000
C          15.286000    -18.497000     -9.086000
C          17.401000    -17.429000     -8.427000
C          20.724000    -20.131000    -12.220000
C          16.086000    -21.918000    -11.671000
C          17.896000    -17.825000    -14.995000
C          20.602000    -17.459000    -11.341000
C          19.798000    -19.249000    -14.281000
C          17.920000    -18.774000     -8.107000
C          19.979000    -20.746000    -10.172000
O          13.124000     -9.290000     -6.435000
C          11.774000     -9.066000     -5.969000
H          11.737000     -9.091000     -4.873000
H          11.094000     -9.845000     -6.335000
H          11.291000     -8.160000     -6.356000
O          13.913000     -7.450000     -5.424000
C          14.139000     -8.508000     -5.939000
C          15.488000     -9.052000     -6.222000
H          15.449000    -10.096000     -6.556000
H          15.859000     -9.265000     -5.211000
C          16.450000     -8.061000     -6.890000
H          16.108000     -7.869000     -7.914000
H          16.476000     -7.073000     -6.414000
C          17.848000     -8.670000     -6.981000
H          17.784000     -9.681000     -7.402000
H          18.515000     -8.031000     -7.573000
C          18.529000     -8.734000     -5.577000
C          18.623000     -7.397000     -4.949000
C          17.767000     -6.987000     -3.900000
H          16.891000     -7.543000     -3.578000
C          18.041000     -5.807000     -3.184000
H          17.515000     -5.530000     -2.275000
C          19.180000     -5.028000     -3.561000
H          19.421000     -4.108000     -3.037000
C          19.967000     -5.427000     -4.654000
H          20.856000     -4.840000     -4.866000
C          19.690000     -6.611000     -5.355000
H          20.339000     -6.920000     -6.169000
C          22.900000    -10.736000     -2.872000
C          21.200000    -10.785000     -1.179000
C          20.751000    -15.297000     -1.156000
C          21.368000    -13.172000     -7.095000
C          17.837000    -15.280000     -3.162000
C          21.832000    -10.133000     -2.246000
C          19.628000    -15.263000     -6.319000
C          22.785000    -13.979000     -1.204000
C          17.589000    -11.333000     -2.878000
C          19.937000    -13.018000     -7.215000
C          18.352000    -10.060000     -4.743000
C          17.173000    -11.943000     -4.023000
C          17.924000    -13.530000     -6.203000
C          19.093000    -15.840000     -5.197000
C          19.566000     -9.947000     -2.458000
C          20.004000    -16.418000     -2.984000
C          19.642000     -9.764000     -5.334000
C          20.109000    -10.725000     -6.405000
C          18.904000    -15.811000     -2.355000
C          23.281000    -14.807000     -4.599000
C          22.355000    -15.785000     -2.804000
C          23.211000    -14.776000     -2.337000
C          22.888000    -12.573000     -1.261000
C          21.471000    -10.967000     -6.198000
C          18.401000    -10.194000     -3.247000
C          21.750000    -11.977000     -0.690000
C          19.060000    -14.085000     -6.809000
C          19.787000    -10.654000     -1.301000
C          16.924000    -13.376000     -3.991000
C          23.081000    -12.734000     -5.697000
C          21.544000    -14.266000     -0.685000
C          17.669000    -11.322000     -5.171000
C          23.958000    -12.681000     -3.480000
C          17.348000    -14.143000     -5.086000
C          17.848000    -12.077000     -1.673000
C          21.323000    -16.148000     -5.015000
C          21.027000    -15.471000     -6.210000
C          17.644000    -13.436000     -1.616000
C          22.084000    -12.158000     -6.535000
C          19.317000    -11.796000     -6.878000
C          23.005000    -14.123000     -5.767000
C          20.866000     -9.635000     -4.461000
C          19.525000    -12.937000     -0.383000
C          18.110000    -12.103000     -6.234000
C          17.211000    -14.053000     -2.799000
C          23.580000    -12.011000     -4.608000
C          19.352000    -15.138000     -1.229000
C          23.471000    -11.917000     -2.369000
C          21.156000    -16.166000     -2.165000
C          19.012000    -11.744000     -0.926000
C          18.711000    -13.946000     -0.875000
C          20.761000     -9.602000     -3.055000
C          21.937000    -10.301000     -5.015000
C          22.463000    -15.824000     -4.223000
C          20.923000    -13.046000     -0.301000
C          17.972000    -15.318000     -4.554000
C          21.916000    -14.451000     -6.623000
C          20.090000    -16.412000     -4.365000
C          23.017000    -10.797000     -4.246000
C          23.747000    -14.113000     -3.473000
$end

--------------------------------------------------------------

             Standard Nuclear Orientation (Angstroms)
    I     Atom           X                Y                Z
 ----------------------------------------------------------------
    1      O       1.0538935404     3.5186356828     3.0625632252
    2      C       1.4296906613     3.1323576002     4.4303200628
    3      H       2.4744005622     2.7987705547     4.4146386663
    4      H       0.9369134076     2.2804038607     4.9162114127
    5      H       1.4480620835     4.0374714056     5.0487960042
    6      O      -0.7719234626     2.1930600385     3.1093551352
    7      C      -0.1167249251     3.0769350965     2.5722939112
    8      C      -0.4952829490     3.8709045627     1.3132068175
    9      H      -0.4658026165     4.9056924219     1.6756471523
   10      H      -1.5400662502     3.6078022345     1.1045563481
   11      C       0.2978996506     3.5585991920     0.0342225646
   12      H       0.1766104342     2.4940279722    -0.2037586192
   13      H      -0.2676980500     4.0207974530    -0.7841911502
   14      C       1.7602898812     4.0079164850    -0.0792797859
   15      H       1.7997923513     5.0572277591    -0.3957073522
   16      H       2.1705260706     3.9911577604     0.9380595941
   17      C       2.5844529559     3.1902137363    -1.0385458810
   18      C       2.5112909084     3.7291075373    -2.5143140830
   19      C       3.3393330048     4.7961584252    -2.8858738886
   20      H       4.0302116917     5.2768443368    -2.1999521041
   21      C       3.2265255475     5.3170547953    -4.1813164575
   22      H       3.8172335781     6.1345597976    -4.5822087048
   23      C       2.2323556022     4.7922806398    -5.0325368787
   24      H       2.1449922443     5.2503634829    -6.0138185674
   25      C       1.5032965815     3.6355638386    -4.6731579896
   26      H       0.7990876864     3.1575937754    -5.3474208841
   27      C       1.6808355105     3.1384172541    -3.4133634817
   28      H       0.9957368961     2.4038781248    -3.0004262513
   29      C       4.2116763657    -1.8800733505    -2.6780366042
   30      C       6.1366526548    -0.4102799607    -3.1873819467
   31      C       8.9561513670    -1.9509402243     0.1010704194
   32      C       3.0044993496    -1.1242114693     2.3151722306
   33      C       8.3689689667     0.9017234373     2.1639026624
   34      C       4.7409116685    -0.6318329292    -3.0440418565
   35      C       5.3418605694    -0.5395718509     3.6776277509
   36      C       7.3636642635    -3.1436558857    -1.2616621943
   37      C       6.3376954832     2.7163596606    -0.7768211282
   38      C       3.4009480275     0.2552096477     2.5837608148
   39      C       3.9429252305     2.6898317379    -0.5724912330
   40      C       6.0198903700     3.0484481194     0.6023573104
   41      C       4.9976268985     1.7469868988     2.8174555218
   42      C       6.7639542743    -0.3961077316     3.5285722540
   43      C       5.1940630615     1.5365361072    -2.5442823772
   44      C       8.3775060791    -1.5856228577     2.3001983949
   45      C       2.8532146503     1.7074645195    -0.7754358057
   46      C       2.4887328509     0.9110786638     0.4158649904
   47      C       8.8699637540    -0.3743437536     1.7630900534
   48      C       5.0947025657    -3.6922382425     1.2788141807
   49      C       7.3677494236    -3.4910517108     1.1021932269
   50      C       6.8191164434    -3.7109713687    -0.1198890932
   51      C       6.5336917826    -2.6979111286    -2.3000355820
   52      C       2.2574521295    -0.4105960462     0.1224792565
   53      C       5.1441058730     2.5257248595    -1.5366758609
   54      C       7.0231753763    -1.4915409169    -2.7986594121
   55      C       4.5131501504     0.5367160108     3.3390949167
   56      C       6.4380114952     0.9676248154    -2.8859814206
   57      C       6.9683558312     2.6390632658     1.5713234144
   58      C       3.0134721846    -2.6466503551     0.5982268828
   59      C       8.3787479318    -2.1815145631    -1.1264652205
   60      C       4.6437119168     2.9045287571     0.7655047349
   61      C       4.5726513572    -3.4550418246    -1.0954462083
   62      C       6.4140550676     1.9592257655     2.7139185468
   63      C       7.5754110909     2.1509467241    -1.0822033244
   64      C       6.2639125249    -2.5337200341     3.0257602680
   65      C       5.0682398239    -1.8841205114     3.2872105543
   66      C       8.4738303697     1.7207799872    -0.1029176777
   67      C       2.4792026267    -1.4793179971     1.0190026017
   68      C       3.1305912373     1.2195407873     1.6077768707
   69      C       3.8631330636    -3.0834159627     1.6090731593
   70      C       2.9999342469     0.5972941979    -1.8053917353
   71      C       8.4860605584     0.2078774735    -1.7531738415
   72      C       4.1804668964     2.1469048340     1.8002892739
   73      C       8.1198898964     1.9683783911     1.2404743618
   74      C       3.3033716350    -2.8901136426    -0.8100007040
   75      C       9.2314963126    -0.6191517166     0.4209524784
   76      C       5.1184351255    -2.8987990653    -2.2455779708
   77      C       8.4284075115    -2.5870976310     1.2679715193
   78      C       7.6052968531     1.2770917153    -2.1922025428
   79      C       8.9905979445     0.4746763608    -0.4545937016
   80      C       4.1754420671     0.5942379452    -2.6073493551
   81      C       2.5270715698    -0.6119221582    -1.2376112383
   82      C       6.2959851431    -3.4668501932     1.9833604151
   83      C       8.1378853321    -1.1388159831    -2.0407512149
   84      C       7.2838062893     0.8712358748     3.0883779039
   85      C       3.8891761874    -2.1330184224     2.5794077774
   86      C       7.3392546592    -1.6085373265     3.1415413191
   87      C       3.1055276203    -1.8724363987    -1.7448374668
   88      C       5.4439378733    -3.9013274649    -0.0691499869
   89      O      -3.4742594694     6.6315297307    -1.3809447321
   90      C      -3.6587778949     7.6353691123    -2.4047081064
   91      H      -4.4004770475     7.3014592647    -3.1406405631
   92      H      -2.7245177830     7.8242296946    -2.9475586602
   93      H      -3.8994391369     8.6400695646    -2.0351770960
   94      O      -5.6055578960     6.7589441967    -0.6942318586
   95      C      -4.5744508902     6.1489587599    -0.7142595772
   96      C      -4.2999681247     4.9057557012     0.0439827102
   97      H      -3.3473181326     4.4473628217    -0.2481593109
   98      H      -4.9430934743     4.1823035163    -0.4738374524
   99      C      -4.7165115150     4.9516375644     1.5198334678
  100      H      -4.0563140963     5.6452645146     2.0540853020
  101      H      -5.7275645594     5.3429773909     1.6872278575
  102      C      -4.5427867167     3.5733560688     2.1552276867
  103      H      -3.5462856073     3.1803105421     1.9186716619
  104      H      -4.7087166692     3.6186807091     3.2387806055
  105      C      -5.6297562701     2.5747752306     1.6449272856
  106      C      -6.9994658854     3.0648490069     1.9178966311
  107      C      -7.8259969867     3.6147204312     0.9100649212
  108      H      -7.4821521701     3.8608580493    -0.0906263474
  109      C      -9.1896183845     3.8509822521     1.1647196588
  110      H      -9.8995440980     4.1192332639     0.3877171646
  111      C      -9.7040105014     3.5496257188     2.4650565343
  112      H     -10.7491803106     3.7239251628     2.7023259461
  113      C      -8.8391590807     3.0723247244     3.4637731012
  114      H      -9.2838880904     2.7990577888     4.4163355872
  115      C      -7.4826563993     2.8313038532     3.1958264368
  116      H      -6.8441971083     2.4213822926     3.9727511744
  117      C      -7.1114539983    -2.7388379985     1.6724280879
  118      C      -7.8923940555    -2.0140918307    -0.4778104150
  119      C      -4.7401002453    -4.2477289367    -2.8514538198
  120      C      -2.1656374326    -1.6224482242     2.3107237640
  121      C      -2.7137823829    -1.3906710838    -3.3484219728
  122      C      -7.7272372390    -1.7840995118     0.8943571255
  123      C      -0.9066544225    -1.7381409039    -0.2198164914
  124      C      -6.0463488045    -5.0258716003    -0.9633879584
  125      C      -5.5445867027     0.9529333921    -1.8601229559
  126      C      -1.8749116983    -0.4110412939     1.5800741923
  127      C      -5.2722857543     1.6900425336     0.3900871025
  128      C      -4.2378269043     1.2848182686    -1.6641325018
  129      C      -1.7961762625     0.5038483603    -0.5401226504
  130      C      -1.1824507091    -2.0165100967    -1.5330129735
  131      C      -7.2121174843     0.1082287306    -0.2752759201
  132      C      -2.5356803385    -3.7387176870    -2.6573548192
  133      C      -5.3411362450     1.0672304267     1.6971302118
  134      C      -4.0395346789     0.5059993412     2.2258116201
  135      C      -3.1493171028    -2.7583766143    -3.4551463350
  136      C      -3.2156881260    -4.7960366066     1.1323603563
  137      C      -3.6042869961    -5.2194312689    -1.0369051595
  138      C      -4.8040540390    -5.4430189074    -0.3444648293
  139      C      -6.9857450886    -4.2860208641    -0.2144890937
  140      C      -4.3162145446    -0.7307270626     2.8177685899
  141      C      -6.2383732040     1.1019510546    -0.5994564549
  142      C      -7.5430447793    -3.2647036486    -1.0035576586
  143      C      -1.2418572446    -0.4815199635     0.2890556735
  144      C      -7.5885357633    -0.8287924444    -1.2067476571
  145      C      -3.2307765930     0.6483108427    -2.4991306859
  146      C      -3.8147445132    -3.1165140515     2.6696529219
  147      C      -5.9439204958    -4.4122705335    -2.1900962254
  148      C      -3.9652932398     1.6260597795    -0.3379196105
  149      C      -5.5927939759    -4.4552014063     1.8132165412
  150      C      -2.0350477865     0.2376914458    -1.8919121651
  151      C      -5.9376797933    -0.0491994608    -2.8160777494
  152      C      -1.5857172697    -3.9414149226    -0.4226051691
  153      C      -1.1459675344    -2.9525008646     0.4732961403
  154      C      -5.0082780513    -0.6856807344    -3.6052862075
  155      C      -3.4033879046    -1.7664803479     2.8599782737
  156      C      -2.8073111197     0.6476597242     1.5478798860
  157      C      -2.8039462663    -3.8268813437     2.0264871467
  158      C      -6.3061893828    -0.0650423846     1.9492744605
  159      C      -6.6200425827    -2.2201513071    -3.0094119282
  160      C      -2.7861256809     1.1844237537     0.2527854671
  161      C      -3.6664679047    -0.3328229158    -3.3986370109
  162      C      -5.1772999033    -3.4293144789     2.6126467681
  163      C      -4.4926262341    -3.0726691626    -3.5902380515
  164      C      -6.7839576273    -4.0035667346     1.1556899038
  165      C      -3.5309850100    -4.7292510734    -2.3580535973
  166      C      -6.9403497909    -0.9799087801    -2.4259149132
  167      C      -5.4119301892    -2.0204970971    -3.6600605592
  168      C      -7.2894323708    -0.4127245382     0.9999060670
  169      C      -5.6985566449    -1.0807449179     2.6540040681
  170      C      -2.6085190478    -4.8733139364    -0.0801423962
  171      C      -6.9076226069    -3.3688616811    -2.2539179135
  172      C      -1.7434631720    -1.0730370924    -2.3919062769
  173      C      -1.7447518968    -2.9156452370     1.7544631669
  174      C      -1.5923318604    -3.3623643003    -1.7176501969
  175      C      -6.1341559492    -2.4263439005     2.5957492464
  176      C      -4.5772079247    -5.1120384867     1.0180159235
 ----------------------------------------------------------------

    9   -5804.3056225899      9.02E-06 Convergence criterion met
 Total energy in the final basis set = -5804.3056225899

                    Orbital Energies (a.u.)
 --------------------------------------------------------------

 Alpha MOs
 -- Occupied --
-19.204 -19.188 -19.140 -19.134 -10.322 -10.314 -10.250 -10.245
-10.238 -10.238 -10.238 -10.237 -10.237 -10.235 -10.230 -10.228
-10.227 -10.227 -10.226 -10.225 -10.225 -10.225 -10.225 -10.224
-10.224 -10.223 -10.223 -10.222 -10.222 -10.222 -10.221 -10.221
-10.220 -10.220 -10.220 -10.220 -10.219 -10.219 -10.219 -10.219
-10.218 -10.218 -10.218 -10.218 -10.218 -10.218 -10.218 -10.217
-10.217 -10.217 -10.217 -10.217 -10.217 -10.217 -10.217 -10.217
-10.217 -10.216 -10.216 -10.216 -10.216 -10.216 -10.216 -10.216
-10.216 -10.216 -10.215 -10.215 -10.215 -10.215 -10.215 -10.215
-10.215 -10.215 -10.215 -10.215 -10.215 -10.214 -10.214 -10.214
-10.214 -10.214 -10.214 -10.214 -10.214 -10.214 -10.213 -10.213
-10.213 -10.213 -10.213 -10.213 -10.213 -10.212 -10.212 -10.212
-10.212 -10.212 -10.212 -10.212 -10.212 -10.212 -10.211 -10.211
-10.211 -10.211 -10.211 -10.211 -10.210 -10.210 -10.210 -10.210
-10.209 -10.209 -10.209 -10.209 -10.209 -10.209 -10.209 -10.208
-10.208 -10.208 -10.208 -10.207 -10.207 -10.206 -10.206 -10.206
-10.205 -10.205 -10.205 -10.204 -10.204 -10.203 -10.203 -10.201
-10.201 -10.201 -10.200 -10.200 -10.200 -10.200 -10.199 -10.198
-10.198 -10.198 -10.197 -10.190  -1.102  -1.095  -1.012  -1.011
 -0.982  -0.980  -0.966  -0.962  -0.960  -0.960  -0.959  -0.956
 -0.934  -0.932  -0.928  -0.924  -0.922  -0.921  -0.921  -0.920
 -0.919  -0.917  -0.896  -0.895  -0.887  -0.887  -0.884  -0.882
 -0.873  -0.871  -0.858  -0.850  -0.840  -0.840  -0.839  -0.837
 -0.834  -0.833  -0.822  -0.821  -0.809  -0.808  -0.799  -0.798
 -0.795  -0.794  -0.793  -0.792  -0.789  -0.787  -0.781  -0.780
 -0.769  -0.769  -0.767  -0.766  -0.766  -0.765  -0.763  -0.763
 -0.757  -0.749  -0.746  -0.744  -0.735  -0.733  -0.716  -0.715
 -0.714  -0.713  -0.712  -0.710  -0.710  -0.709  -0.708  -0.707
 -0.707  -0.706  -0.706  -0.704  -0.702  -0.701  -0.672  -0.671
 -0.657  -0.657  -0.655  -0.654  -0.649  -0.649  -0.632  -0.629
 -0.628  -0.626  -0.626  -0.624  -0.623  -0.619  -0.619  -0.616
 -0.615  -0.613  -0.613  -0.613  -0.609  -0.609  -0.607  -0.607
 -0.605  -0.605  -0.601  -0.600  -0.571  -0.568  -0.566  -0.561
 -0.560  -0.558  -0.558  -0.555  -0.554  -0.554  -0.553  -0.552
 -0.538  -0.536  -0.533  -0.529  -0.529  -0.527  -0.526  -0.524
 -0.521  -0.520  -0.520  -0.519  -0.515  -0.514  -0.512  -0.512
 -0.508  -0.507  -0.503  -0.500  -0.492  -0.490  -0.487  -0.484
 -0.483  -0.483  -0.483  -0.482  -0.478  -0.477  -0.477  -0.474
 -0.471  -0.471  -0.470  -0.468  -0.468  -0.466  -0.466  -0.465
 -0.463  -0.462  -0.461  -0.461  -0.460  -0.460  -0.457  -0.457
 -0.457  -0.455  -0.454  -0.450  -0.449  -0.446  -0.444  -0.441
 -0.440  -0.439  -0.438  -0.437  -0.437  -0.436  -0.435  -0.433
 -0.432  -0.430  -0.430  -0.429  -0.428  -0.427  -0.425  -0.424
 -0.424  -0.423  -0.422  -0.421  -0.419  -0.418  -0.417  -0.417
 -0.415  -0.415  -0.414  -0.414  -0.413  -0.412  -0.411  -0.411
 -0.411  -0.410  -0.409  -0.408  -0.403  -0.403  -0.400  -0.395
 -0.395  -0.394  -0.392  -0.391  -0.389  -0.388  -0.386  -0.381
 -0.380  -0.380  -0.376  -0.373  -0.372  -0.370  -0.369  -0.365
 -0.365  -0.363  -0.363  -0.362  -0.361  -0.360  -0.359  -0.358
 -0.357  -0.355  -0.355  -0.355  -0.353  -0.352  -0.352  -0.350
 -0.350  -0.348  -0.347  -0.347  -0.346  -0.345  -0.345  -0.343
 -0.342  -0.342  -0.340  -0.339  -0.337  -0.336  -0.335  -0.333
 -0.333  -0.330  -0.329  -0.328  -0.326  -0.326  -0.325  -0.324
 -0.306  -0.304  -0.301  -0.298  -0.289  -0.288  -0.275  -0.274
 -0.272  -0.269  -0.267  -0.266  -0.265  -0.264  -0.263  -0.262
 -0.261  -0.260  -0.259  -0.257  -0.257  -0.257  -0.256  -0.253
 -0.250  -0.249  -0.248  -0.239  -0.225  -0.224  -0.212  -0.210
 -0.209  -0.209  -0.205  -0.202  -0.199  -0.194

          Ground-State Mulliken Net Atomic Charges

     Atom                 Charge (a.u.)
  ----------------------------------------
      1 O                    -0.449439
      2 C                    -0.110825
      3 H                     0.127296
      4 H                     0.156363
      5 H                     0.127172
      6 O                    -0.477299
      7 C                     0.591643
      8 C                    -0.260525
      9 H                     0.126652
     10 H                     0.129795
     11 C                    -0.199669
     12 H                     0.116890
     13 H                     0.116562
     14 C                    -0.195323
     15 H                     0.112558
     16 H                     0.127561
     17 C                     0.013105
     18 C                     0.087881
     19 C                    -0.108594
     20 H                     0.092692
     21 C                    -0.088499
     22 H                     0.093728
     23 C                    -0.090410
     24 H                     0.085848
     25 C                    -0.092668
     26 H                     0.095722
     27 C                    -0.099417
     28 H                     0.093419
     29 C                    -0.025458
     30 C                    -0.023963
     31 C                    -0.016232
     32 C                    -0.041117
     33 C                    -0.011608
     34 C                     0.008984
     35 C                    -0.021442
     36 C                    -0.015936
     37 C                     0.004289
     38 C                    -0.020592
     39 C                    -0.093952
     40 C                    -0.006964
     41 C                    -0.015575
     42 C                    -0.001024
     43 C                    -0.003965
     44 C                     0.014259
     45 C                    -0.084120
     46 C                     0.033214
     47 C                     0.006290
     48 C                    -0.012150
     49 C                     0.023334
     50 C                     0.021538
     51 C                    -0.003204
     52 C                     0.037598
     53 C                     0.038240
     54 C                    -0.006478
     55 C                    -0.002784
     56 C                     0.013371
     57 C                     0.001279
     58 C                     0.021714
     59 C                     0.007996
     60 C                     0.007065
     61 C                     0.006901
     62 C                    -0.030720
     63 C                     0.010466
     64 C                    -0.013729
     65 C                     0.020516
     66 C                    -0.003008
     67 C                    -0.011527
     68 C                     0.034279
     69 C                    -0.004713
     70 C                     0.004171
     71 C                    -0.026668
     72 C                     0.031999
     73 C                     0.000508
     74 C                    -0.007585
     75 C                     0.001857
     76 C                     0.001064
     77 C                    -0.023420
     78 C                    -0.026362
     79 C                     0.019140
     80 C                     0.037437
     81 C                    -0.009210
     82 C                    -0.016093
     83 C                     0.021649
     84 C                    -0.007916
     85 C                     0.029412
     86 C                     0.014636
     87 C                    -0.014412
     88 C                     0.005161
     89 O                    -0.474457
     90 C                    -0.082538
     91 H                     0.123700
     92 H                     0.118910
     93 H                     0.125550
     94 O                    -0.459675
     95 C                     0.582718
     96 C                    -0.259527
     97 H                     0.124593
     98 H                     0.142110
     99 C                    -0.184078
    100 H                     0.106221
    101 H                     0.140694
    102 C                    -0.188891
    103 H                     0.117759
    104 H                     0.109504
    105 C                     0.003481
    106 C                     0.086624
    107 C                    -0.105562
    108 H                     0.103281
    109 C                    -0.093568
    110 H                     0.097625
    111 C                    -0.083518
    112 H                     0.090253
    113 C                    -0.090632
    114 H                     0.089296
    115 C                    -0.102143
    116 H                     0.096370
    117 C                     0.034917
    118 C                    -0.014252
    119 C                     0.026088
    120 C                    -0.020591
    121 C                    -0.007172
    122 C                    -0.022125
    123 C                     0.024144
    124 C                    -0.027248
    125 C                    -0.002271
    126 C                     0.002784
    127 C                    -0.097867
    128 C                     0.006579
    129 C                    -0.007661
    130 C                     0.008415
    131 C                     0.028257
    132 C                     0.002664
    133 C                    -0.106387
    134 C                     0.041204
    135 C                    -0.006893
    136 C                     0.007848
    137 C                     0.013045
    138 C                    -0.017040
    139 C                     0.001198
    140 C                     0.000297
    141 C                     0.018386
    142 C                     0.021227
    143 C                    -0.002951
    144 C                     0.007654
    145 C                    -0.013136
    146 C                     0.022850
    147 C                     0.023055
    148 C                     0.042868
    149 C                    -0.037419
    150 C                    -0.026867
    151 C                    -0.010482
    152 C                    -0.002983
    153 C                    -0.004014
    154 C                     0.002953
    155 C                     0.012084
    156 C                     0.055393
    157 C                     0.001786
    158 C                     0.042787
    159 C                    -0.002637
    160 C                    -0.041500
    161 C                     0.000904
    162 C                     0.014196
    163 C                    -0.001097
    164 C                    -0.013692
    165 C                    -0.036202
    166 C                    -0.006399
    167 C                     0.002853
    168 C                    -0.024622
    169 C                     0.005406
    170 C                     0.004791
    171 C                    -0.023744
    172 C                    -0.004196
    173 C                    -0.034642
    174 C                     0.003148
    175 C                    -0.006898
    176 C                     0.010456
  ----------------------------------------
  Sum of atomic charges =     0.000000

                    Cartesian Multipole Moments
 -----------------------------------------------------------------
    Charge (ESU x 10^10)
                 0.0000
    Dipole Moment (Debye)
         X       0.2428      Y       4.4331      Z       0.4504
       Tot       4.4625
    Quadrupole Moments (Debye-Ang)
        XX    -822.4015     XY       4.4633     YY    -796.9860
        XZ      -4.0211     YZ      -5.9358     ZZ    -790.8782

 Total job time:  866.91s(wall), 7434.77s(cpu)
        *  Thank you very much for using Q-Chem.  Have a nice day.  *
