 Q-Chem 4.4, Q-Chem, Inc., Pleasanton, CA (2016)
 Q-Chem 4.4.2 for Intel X86 Linux

User input:
--------------------------------------------------------------
$comment
SP
$end

$rem
MEM_STATIC 5000
MEM_TOTAL 20000
JOBTYPE SP
EXCHANGE B3LYP
BASIS 6-31g(d,p)
$end

$molecule
0 1
O          29.081000     -6.282000     -0.581000
C          29.722000     -6.848000      0.583000
H          28.903000     -7.027000      1.290000
H          30.430000     -6.189000      1.101000
H          30.153000     -7.826000      0.334000
O          28.799000     -4.258000      0.353000
C          28.589000     -5.065000     -0.534000
C          27.740000     -4.781000     -1.768000
H          27.332000     -3.780000     -1.582000
H          26.857000     -5.432000     -1.758000
C          28.493000     -4.840000     -3.130000
H          29.305000     -4.104000     -3.089000
H          28.821000     -5.884000     -3.199000
C          27.446000     -4.606000     -4.267000
H          26.642000     -5.328000     -4.078000
H          27.069000     -3.576000     -4.233000
C          28.017000     -4.748000     -5.651000
C          29.275000     -3.918000     -5.852000
C          30.551000     -4.539000     -5.611000
H          30.574000     -5.617000     -5.481000
C          31.766000     -3.807000     -5.598000
H          32.779000     -4.195000     -5.563000
C          31.690000     -2.443000     -5.866000
H          32.632000     -1.908000     -5.952000
C          30.420000     -1.856000     -6.028000
H          30.341000     -0.779000     -6.151000
C          29.215000     -2.516000     -6.035000
H          28.254000     -2.013000     -6.076000
C          26.961000     -4.544000    -10.973000
C          28.879000     -6.035000    -10.835000
C          26.702000     -9.793000    -11.892000
C          23.224000     -6.211000     -7.986000
C          26.345000    -10.989000     -8.575000
C          28.168000     -4.923000    -10.363000
C          23.355000     -9.038000     -7.889000
C          26.453000     -7.576000    -12.840000
C          28.913000     -8.071000     -7.347000
C          23.797000     -6.867000     -6.908000
C          27.950000     -6.156000     -6.404000
C          27.832000     -8.544000     -6.591000
C          25.095000     -8.600000     -6.278000
C          24.055000    -10.178000     -8.385000
C          29.042000     -6.035000     -8.579000
C          24.991000    -10.582000    -10.550000
C          27.037000     -4.976000     -6.809000
C          25.534000     -5.178000     -6.881000
C          26.228000    -10.889000     -9.983000
C          23.351000     -7.004000    -11.339000
C          24.440000     -8.808000    -12.126000
C          25.071000     -7.638000    -12.617000
C          27.145000     -6.412000    -12.582000
C          24.995000     -4.561000     -8.031000
C          28.947000     -6.678000     -7.342000
C          28.342000     -6.796000    -11.915000
C          23.919000     -8.239000     -6.889000
C          29.396000     -6.712000     -9.745000
C          27.161000     -9.655000     -6.965000
C          23.610000     -5.040000     -9.968000
C          27.255000     -8.704000    -12.479000
C          27.225000     -7.434000     -6.014000
C          25.044000     -5.328000    -11.908000
C          25.764000     -9.718000     -6.792000
C          29.259000     -8.761000     -8.519000
C          23.093000     -9.179000    -10.135000
C          22.736000     -8.417000     -9.017000
C          28.664000    -10.011000     -8.836000
C          23.848000     -5.099000     -8.565000
C          24.981000     -6.378000     -6.356000
C          22.986000     -6.267000    -10.204000
C          27.227000     -4.420000     -8.168000
C          28.976000     -8.798000    -10.764000
C          25.796000     -7.443000     -5.919000
C          27.567000    -10.512000     -8.025000
C          24.709000     -4.617000    -10.774000
C          27.314000    -10.423000    -10.820000
C          26.431000     -5.291000    -12.003000
C          25.332000     -9.878000    -11.728000
C          29.478000     -8.075000     -9.688000
C          28.502000     -9.954000    -10.198000
C          28.271000     -4.976000     -8.943000
C          26.032000     -4.069000     -8.803000
C          23.403000     -8.391000    -11.309000
C          28.413000     -8.156000    -11.910000
C          25.287000    -10.574000     -7.770000
C          22.656000     -6.979000     -9.039000
C          23.849000    -10.226000     -9.761000
C          25.902000     -4.088000    -10.193000
C          24.373000     -6.512000    -12.166000
O          13.124000     -9.290000     -6.435000
C          11.774000     -9.066000     -5.969000
H          11.737000     -9.091000     -4.873000
H          11.094000     -9.845000     -6.335000
H          11.291000     -8.160000     -6.356000
O          13.913000     -7.450000     -5.424000
C          14.139000     -8.508000     -5.939000
C          15.488000     -9.052000     -6.222000
H          15.449000    -10.096000     -6.556000
H          15.859000     -9.265000     -5.211000
C          16.450000     -8.061000     -6.890000
H          16.108000     -7.869000     -7.914000
H          16.476000     -7.073000     -6.414000
C          17.848000     -8.670000     -6.981000
H          17.784000     -9.681000     -7.402000
H          18.515000     -8.031000     -7.573000
C          18.529000     -8.734000     -5.577000
C          18.623000     -7.397000     -4.949000
C          17.767000     -6.987000     -3.900000
H          16.891000     -7.543000     -3.578000
C          18.041000     -5.807000     -3.184000
H          17.515000     -5.530000     -2.275000
C          19.180000     -5.028000     -3.561000
H          19.421000     -4.108000     -3.037000
C          19.967000     -5.427000     -4.654000
H          20.856000     -4.840000     -4.866000
C          19.690000     -6.611000     -5.355000
H          20.339000     -6.920000     -6.169000
C          22.900000    -10.736000     -2.872000
C          21.200000    -10.785000     -1.179000
C          20.751000    -15.297000     -1.156000
C          21.368000    -13.172000     -7.095000
C          17.837000    -15.280000     -3.162000
C          21.832000    -10.133000     -2.246000
C          19.628000    -15.263000     -6.319000
C          22.785000    -13.979000     -1.204000
C          17.589000    -11.333000     -2.878000
C          19.937000    -13.018000     -7.215000
C          18.352000    -10.060000     -4.743000
C          17.173000    -11.943000     -4.023000
C          17.924000    -13.530000     -6.203000
C          19.093000    -15.840000     -5.197000
C          19.566000     -9.947000     -2.458000
C          20.004000    -16.418000     -2.984000
C          19.642000     -9.764000     -5.334000
C          20.109000    -10.725000     -6.405000
C          18.904000    -15.811000     -2.355000
C          23.281000    -14.807000     -4.599000
C          22.355000    -15.785000     -2.804000
C          23.211000    -14.776000     -2.337000
C          22.888000    -12.573000     -1.261000
C          21.471000    -10.967000     -6.198000
C          18.401000    -10.194000     -3.247000
C          21.750000    -11.977000     -0.690000
C          19.060000    -14.085000     -6.809000
C          19.787000    -10.654000     -1.301000
C          16.924000    -13.376000     -3.991000
C          23.081000    -12.734000     -5.697000
C          21.544000    -14.266000     -0.685000
C          17.669000    -11.322000     -5.171000
C          23.958000    -12.681000     -3.480000
C          17.348000    -14.143000     -5.086000
C          17.848000    -12.077000     -1.673000
C          21.323000    -16.148000     -5.015000
C          21.027000    -15.471000     -6.210000
C          17.644000    -13.436000     -1.616000
C          22.084000    -12.158000     -6.535000
C          19.317000    -11.796000     -6.878000
C          23.005000    -14.123000     -5.767000
C          20.866000     -9.635000     -4.461000
C          19.525000    -12.937000     -0.383000
C          18.110000    -12.103000     -6.234000
C          17.211000    -14.053000     -2.799000
C          23.580000    -12.011000     -4.608000
C          19.352000    -15.138000     -1.229000
C          23.471000    -11.917000     -2.369000
C          21.156000    -16.166000     -2.165000
C          19.012000    -11.744000     -0.926000
C          18.711000    -13.946000     -0.875000
C          20.761000     -9.602000     -3.055000
C          21.937000    -10.301000     -5.015000
C          22.463000    -15.824000     -4.223000
C          20.923000    -13.046000     -0.301000
C          17.972000    -15.318000     -4.554000
C          21.916000    -14.451000     -6.623000
C          20.090000    -16.412000     -4.365000
C          23.017000    -10.797000     -4.246000
C          23.747000    -14.113000     -3.473000
$end

--------------------------------------------------------------

             Standard Nuclear Orientation (Angstroms)
    I     Atom           X                Y                Z
 ----------------------------------------------------------------
    1      O       4.1244480478    -7.3349420790     1.8181036856
    2      C       3.8800400756    -8.7121066605     1.4578045616
    3      H       2.9071424966    -8.9466958421     1.9062342849
    4      H       4.5872947692    -9.4422066099     1.8708588707
    5      H       3.7634596835    -8.7989435166     0.3700939509
    6      O       4.6757508118    -7.8149708321     3.9427433395
    7      C       4.3981373492    -7.0199106617     3.0635800493
    8      C       4.3568850612    -5.5082039411     3.2565931053
    9      H       4.5261851132    -5.3755449324     4.3321395151
   10      H       3.3305878303    -5.1514042550     3.1049422637
   11      C       5.3871424590    -4.6952125385     2.4180534976
   12      H       6.3875751662    -5.0537176988     2.6888476048
   13      H       5.0915690508    -4.8949149681     1.3812139247
   14      C       5.1337615856    -3.1766134147     2.6889572335
   15      H       4.0638077684    -3.0205561997     2.5038465244
   16      H       5.3972970786    -2.9240744735     3.7238283013
   17      C       5.9890667392    -2.2642337450     1.8536863597
   18      C       7.4656809391    -2.6196284619     1.9255897656
   19      C       8.0056289812    -3.5077712579     0.9298204722
   20      H       7.3887907219    -3.7358067685     0.0655153364
   21      C       9.3189148908    -4.0377664256     1.0110808065
   22      H       9.8613204475    -4.5968524093     0.2553314599
   23      C      10.1013655257    -3.6365159903     2.0903699671
   24      H      11.1366052639    -3.9670478356     2.0938890021
   25      C       9.5188589667    -2.8232267724     3.0818132367
   26      H      10.0902516162    -2.5742138353     3.9722075298
   27      C       8.2501886720    -2.2963580440     3.0581694997
   28      H       7.8119393096    -1.7461928910     3.8848900092
   29      C       7.2264119260     2.8934655595     0.6928458138
   30      C       7.8154352710     1.6996612230    -1.3439977505
   31      C       4.5036326417     3.3120380630    -3.8760613891
   32      C       2.4104862787     1.9488298095     1.9501248044
   33      C       2.3821531406     0.4867601227    -3.5977031908
   34      C       7.7124974984     1.7413696335     0.0533258425
   35      C       0.9345723113     1.5285542359    -0.4296956517
   36      C       5.8658271329     4.4704497495    -2.2395093634
   37      C       5.4703537585    -1.5448225378    -1.8792676125
   38      C       2.0967148667     0.6707216878     1.5156870871
   39      C       5.4437920277    -1.7129146927     0.4563013764
   40      C       4.1213567512    -1.7232731920    -1.5443221866
   41      C       1.9068570513    -0.6733724712    -0.2849677665
   42      C       1.0226170880     1.5103431212    -1.8536101409
   43      C       7.1226756521    -0.3403170464    -0.6550291222
   44      C       2.2938755243     2.8993107047    -3.3305014842
   45      C       5.5423105294    -0.8043961045     1.7032504852
   46      C       4.3211752714    -0.0323719400     2.1699456436
   47      C       2.8574335981     1.7769800565    -3.9376943807
   48      C       3.2875158222     4.7252663841     0.1035587679
   49      C       3.4134403814     4.7073532208    -2.1422213024
   50      C       4.7057871105     4.9408684905    -1.6098186816
   51      C       6.9301147494     4.0227685503    -1.4863842654
   52      C       4.6654714632     1.2880717310     2.5327109179
   53      C       6.2530709732    -1.4314171683    -0.7320435786
   54      C       7.3852917406     2.8254957367    -2.1064695146
   55      C       1.4347822749     0.4628240173     0.3256228861
   56      C       7.4435150532     0.4362571428    -1.7673220726
   57      C       3.1437895378    -1.1798409593    -2.3016079660
   58      C       4.0573672338     3.5972446542     2.0882284585
   59      C       5.7275700036     3.6590188459    -3.4092844935
   60      C       4.0580317019    -1.8234608544    -0.1588871032
   61      C       5.6872014499     4.5603052774     0.5653841906
   62      C       1.9899429703    -0.6587837662    -1.6830253117
   63      C       5.7802294933    -0.7604061468    -3.0009038969
   64      C       1.4720064728     3.5942644690    -1.1893315873
   65      C       1.2125624163     2.8690583282    -0.0210928126
   66      C       4.7638267743    -0.3167713752    -3.8881060735
   67      C       3.6977758821     2.2566406421     2.4076168464
   68      C       3.0592012331    -0.3361587843     1.5897999034
   69      C       3.0022514048     3.9867542969     1.2602104481
   70      C       6.4805317597     0.3382911278     1.6249956950
   71      C       6.3580650579     1.3246414685    -3.6643535951
   72      C       2.9376052261    -1.2138827525     0.4924239211
   73      C       3.3675764815    -0.5379671536    -3.5509287500
   74      C       5.4108334439     3.8056077790     1.6868806958
   75      C       4.2357012971     2.0227369679    -4.3079681854
   76      C       6.7911036936     3.9737941501    -0.0441792056
   77      C       3.3614855441     3.8257038684    -3.2906824965
   78      C       6.7424755449     0.2155956994    -2.9195347852
   79      C       5.1649977791     0.9511448564    -4.2286750895
   80      C       7.2478860757     0.4520380744     0.4426564941
   81      C       5.9973163658     1.5035992802     2.2274994651
   82      C       2.5604723358     4.5403097265    -1.0645901112
   83      C       6.6963744017     2.6556567544    -3.2688866602
   84      C       1.5165482436     0.3401387014    -2.5165721529
   85      C       1.9433086150     3.0655552137     1.2045200819
   86      C       1.3383665995     2.8016482305    -2.2670703695
   87      C       6.3914276446     2.7730103323     1.8001437810
   88      C       4.6279075990     4.9958747826    -0.2136130773
   89      O      -7.4692791976     5.2021568333     4.3379982115
   90      C      -8.5372196913     5.4734007473     5.2738196908
   91      H      -8.9752972074     4.5362857709     5.6386670712
   92      H      -9.3436413437     6.0462381548     4.7997538482
   93      H      -8.2691359757     6.1313324070     6.1099722203
   94      O      -6.2357581094     4.1180663070     5.8655503238
   95      C      -6.4547937275     4.3541473250     4.7114471435
   96      C      -5.6281200550     3.8934860164     3.5711718268
   97      H      -6.1054990545     4.1021065728     2.6059776731
   98      H      -5.8291717499     2.8142692509     3.5717955923
   99      C      -4.1188219851     4.1030763191     3.7496101673
  100      H      -3.9025659715     5.1775049510     3.7143901235
  101      H      -3.7331501007     3.7719365256     4.7217210842
  102      C      -3.3599366780     3.4455001246     2.5984139898
  103      H      -3.8067830739     3.7450459394     1.6423498689
  104      H      -2.2930663176     3.6981750250     2.6386262859
  105      C      -3.3874466128     1.8887040278     2.7196662754
  106      C      -2.8152022546     1.4260994452     4.0039257486
  107      C      -3.6189650558     0.9689463222     5.0745393024
  108      H      -4.7010798342     1.0603139424     5.1041292392
  109      C      -3.0278904067     0.3274275542     6.1787206415
  110      H      -3.6037854346    -0.1808932656     6.9466014011
  111      C      -1.6054246640     0.1778095604     6.2010066631
  112      H      -1.1114919566    -0.3058733482     7.0383466923
  113      C      -0.8319576844     0.7077306122     5.1549896889
  114      H       0.2370878927     0.5174331592     5.1826018863
  115      C      -1.4329070690     1.3372807267     4.0538482400
  116      H      -0.8157485831     1.7002920974     3.2373825959
  117      C      -2.1494604694    -2.7752233731     0.0464955911
  118      C      -4.0747689309    -3.4270644771     1.3220113705
  119      C      -6.8805948078    -3.6641168162    -2.2320597229
  120      C      -3.1078745653     1.4036527401    -2.7343830202
  121      C      -8.3503725883    -0.5056534499    -1.6159562901
  122      C      -2.8554716380    -2.7432901178     1.2282897767
  123      C      -5.8440605010     1.3714891224    -3.4515364393
  124      C      -4.6063915030    -4.4818080946    -2.0424171608
  125      C      -6.4907093689    -0.2518720721     1.8766382645
  126      C      -4.0632501681     2.2167879868    -2.0188793317
  127      C      -4.5453576728     1.1218420824     1.9737938105
  128      C      -6.7235397031     0.8863311709     1.1649751328
  129      C      -6.2312330322     2.2640529203    -1.2213372783
  130      C      -6.9690103857     0.6000940819    -3.3193417018
  131      C      -4.3918838348    -1.4421554768     2.3056858075
  132      C      -7.3951413861    -1.8209653450    -3.4544624687
  133      C      -3.1943378269     1.0384582586     1.4553446673
  134      C      -2.9770715315     1.6502880012     0.0889220668
  135      C      -8.1242695638    -1.7757352445    -2.2542890069
  136      C      -3.4540547524    -1.8511911184    -4.0941479759
  137      C      -5.3367140458    -3.0565825026    -3.8976521851
  138      C      -4.3083824351    -3.7803995640    -3.2751339445
  139      C      -3.7419607468    -4.3467220065    -0.9355272762
  140      C      -2.1533073228     0.7865143056    -0.6402998002
  141      C      -5.1224395244    -0.2151666141     2.3449504916
  142      C      -4.4848502454    -4.2337092096     0.2525991062
  143      C      -5.4548621137     2.1863833445    -2.3862289616
  144      C      -5.0283312182    -2.6231367106     2.0097853962
  145      C      -7.7040958523     0.8411786980     0.0912037919
  146      C      -2.0789672233    -0.6000389710    -2.6496115134
  147      C      -5.8893910024    -4.3587375951    -1.5622328873
  148      C      -5.5947234867     1.7034795172     1.0777769116
  149      C      -2.1885475098    -2.9472782192    -2.2428104901
  150      C      -7.4050042762     1.5134183767    -1.1028347517
  151      C      -7.1359248472    -1.4965695976     1.5494272368
  152      C      -5.5154395139    -0.6692623880    -4.4926932573
  153      C      -4.9383316187     0.5782302712    -4.2016974798
  154      C      -8.0511685240    -1.5781445825     0.5259915847
  155      C      -2.2163828237     0.6673769614    -2.0149440358
  156      C      -3.9885842786     2.3423075118    -0.6153399294
  157      C      -2.8677690473    -0.6361918124    -3.7969918577
  158      C      -2.5138072956    -0.3015284353     1.3202156329
  159      C      -6.8022399038    -3.5140135986     0.5322728427
  160      C      -5.3019717742     2.3383109953    -0.1245942579
  161      C      -8.2869277883    -0.3993416272    -0.1968556757
  162      C      -1.7015290938    -1.7189295107    -1.8990947458
  163      C      -7.8260378180    -2.9068713973    -1.5105835346
  164      C      -2.5427258846    -3.6031612802    -1.0182448164
  165      C      -6.6825498305    -3.0672439540    -3.4737472734
  166      C      -6.3440863527    -2.6782792162     1.5680867090
  167      C      -7.7897515088    -2.7888350672    -0.1170944860
  168      C      -3.0838775214    -1.4695300376     1.8677027969
  169      C      -1.8658892520    -0.4035705882     0.1088929642
  170      C      -4.7629398129    -1.8793143364    -4.4558356627
  171      C      -5.8335728730    -4.2737785123    -0.1440779978
  172      C      -7.7653928070     0.6351483768    -2.1760481107
  173      C      -3.5607105704     0.6043704466    -3.8811246510
  174      C      -6.8272454519    -0.6617211442    -3.9526994512
  175      C      -1.5971391792    -1.6435542781    -0.5187939380
  176      C      -3.1307652648    -2.9890329804    -3.3408433867
 ----------------------------------------------------------------

    9   -5804.2755693062      7.59E-06 Convergence criterion met
 Total energy in the final basis set = -5804.2755693062

                    Orbital Energies (a.u.)
 --------------------------------------------------------------

 Alpha MOs
 -- Occupied --
-19.198 -19.184 -19.131 -19.128 -10.311 -10.311 -10.250 -10.245
-10.241 -10.241 -10.239 -10.239 -10.238 -10.237 -10.229 -10.229
-10.228 -10.228 -10.226 -10.225 -10.224 -10.224 -10.223 -10.223
-10.223 -10.222 -10.222 -10.222 -10.222 -10.222 -10.222 -10.221
-10.221 -10.221 -10.220 -10.220 -10.220 -10.220 -10.220 -10.220
-10.219 -10.219 -10.219 -10.219 -10.219 -10.219 -10.219 -10.219
-10.219 -10.219 -10.218 -10.218 -10.218 -10.218 -10.218 -10.217
-10.217 -10.217 -10.217 -10.217 -10.217 -10.217 -10.217 -10.217
-10.217 -10.217 -10.217 -10.216 -10.216 -10.216 -10.216 -10.216
-10.216 -10.216 -10.215 -10.215 -10.215 -10.215 -10.215 -10.215
-10.215 -10.215 -10.214 -10.214 -10.214 -10.214 -10.214 -10.214
-10.214 -10.214 -10.214 -10.214 -10.213 -10.213 -10.213 -10.213
-10.213 -10.213 -10.213 -10.213 -10.213 -10.212 -10.212 -10.212
-10.212 -10.212 -10.212 -10.211 -10.211 -10.211 -10.211 -10.210
-10.210 -10.210 -10.210 -10.210 -10.210 -10.209 -10.209 -10.209
-10.209 -10.209 -10.208 -10.208 -10.208 -10.208 -10.207 -10.207
-10.207 -10.207 -10.207 -10.207 -10.205 -10.204 -10.204 -10.204
-10.203 -10.202 -10.201 -10.200 -10.200 -10.200 -10.200 -10.198
-10.198 -10.198 -10.198 -10.197  -1.109  -1.091  -1.009  -1.009
 -0.987  -0.982  -0.968  -0.966  -0.965  -0.964  -0.962  -0.961
 -0.933  -0.932  -0.931  -0.930  -0.929  -0.927  -0.926  -0.923
 -0.922  -0.921  -0.898  -0.897  -0.896  -0.891  -0.889  -0.884
 -0.878  -0.873  -0.855  -0.851  -0.845  -0.842  -0.841  -0.840
 -0.839  -0.836  -0.822  -0.821  -0.808  -0.805  -0.802  -0.801
 -0.800  -0.798  -0.796  -0.795  -0.793  -0.789  -0.786  -0.782
 -0.773  -0.772  -0.771  -0.770  -0.768  -0.767  -0.765  -0.765
 -0.756  -0.748  -0.745  -0.742  -0.734  -0.733  -0.720  -0.716
 -0.716  -0.715  -0.714  -0.714  -0.713  -0.712  -0.711  -0.710
 -0.709  -0.708  -0.708  -0.705  -0.704  -0.702  -0.675  -0.673
 -0.661  -0.660  -0.659  -0.656  -0.650  -0.647  -0.633  -0.631
 -0.630  -0.628  -0.627  -0.626  -0.623  -0.621  -0.620  -0.617
 -0.616  -0.615  -0.615  -0.614  -0.612  -0.612  -0.611  -0.610
 -0.608  -0.607  -0.606  -0.603  -0.572  -0.566  -0.564  -0.563
 -0.562  -0.561  -0.560  -0.559  -0.557  -0.556  -0.556  -0.554
 -0.537  -0.536  -0.534  -0.532  -0.530  -0.529  -0.528  -0.526
 -0.526  -0.522  -0.521  -0.521  -0.520  -0.517  -0.515  -0.514
 -0.510  -0.505  -0.504  -0.501  -0.494  -0.491  -0.489  -0.488
 -0.485  -0.484  -0.483  -0.482  -0.481  -0.479  -0.479  -0.475
 -0.474  -0.473  -0.472  -0.471  -0.470  -0.469  -0.469  -0.468
 -0.467  -0.465  -0.465  -0.464  -0.464  -0.462  -0.461  -0.458
 -0.457  -0.457  -0.453  -0.452  -0.449  -0.446  -0.445  -0.445
 -0.442  -0.441  -0.440  -0.440  -0.438  -0.437  -0.437  -0.434
 -0.431  -0.431  -0.430  -0.429  -0.429  -0.426  -0.425  -0.424
 -0.424  -0.424  -0.423  -0.423  -0.422  -0.421  -0.420  -0.420
 -0.419  -0.417  -0.417  -0.416  -0.416  -0.415  -0.415  -0.414
 -0.413  -0.411  -0.410  -0.406  -0.405  -0.402  -0.400  -0.396
 -0.396  -0.395  -0.393  -0.392  -0.390  -0.390  -0.389  -0.382
 -0.381  -0.380  -0.377  -0.374  -0.372  -0.372  -0.370  -0.369
 -0.365  -0.365  -0.364  -0.363  -0.362  -0.361  -0.360  -0.359
 -0.359  -0.357  -0.356  -0.356  -0.353  -0.352  -0.352  -0.352
 -0.351  -0.351  -0.349  -0.348  -0.348  -0.345  -0.345  -0.344
 -0.344  -0.343  -0.343  -0.341  -0.339  -0.339  -0.337  -0.335
 -0.334  -0.333  -0.331  -0.330  -0.329  -0.329  -0.326  -0.325
 -0.309  -0.302  -0.299  -0.295  -0.290  -0.285  -0.273  -0.273
 -0.271  -0.269  -0.269  -0.268  -0.267  -0.266  -0.265  -0.264
 -0.263  -0.263  -0.261  -0.260  -0.259  -0.258  -0.257  -0.253
 -0.249  -0.248  -0.245  -0.241  -0.226  -0.221  -0.214  -0.212
 -0.211  -0.210  -0.209  -0.205  -0.202  -0.195

          Ground-State Mulliken Net Atomic Charges

     Atom                 Charge (a.u.)
  ----------------------------------------
      1 O                    -0.434134
      2 C                    -0.095896
      3 H                     0.127369
      4 H                     0.143152
      5 H                     0.126922
      6 O                    -0.482244
      7 C                     0.576803
      8 C                    -0.258026
      9 H                     0.124755
     10 H                     0.118861
     11 C                    -0.186355
     12 H                     0.129104
     13 H                     0.121424
     14 C                    -0.170090
     15 H                     0.110363
     16 H                     0.109280
     17 C                     0.007169
     18 C                     0.067705
     19 C                    -0.103319
     20 H                     0.093232
     21 C                    -0.090914
     22 H                     0.098393
     23 C                    -0.075361
     24 H                     0.094889
     25 C                    -0.096023
     26 H                     0.083811
     27 C                    -0.087891
     28 H                     0.098149
     29 C                     0.017370
     30 C                    -0.000487
     31 C                     0.057197
     32 C                    -0.000750
     33 C                    -0.019324
     34 C                    -0.031637
     35 C                    -0.005272
     36 C                     0.012673
     37 C                    -0.024689
     38 C                    -0.017784
     39 C                    -0.077565
     40 C                     0.037637
     41 C                    -0.000731
     42 C                    -0.012131
     43 C                     0.043482
     44 C                    -0.004321
     45 C                    -0.087771
     46 C                    -0.001995
     47 C                     0.000869
     48 C                     0.014102
     49 C                    -0.029201
     50 C                     0.001976
     51 C                    -0.028376
     52 C                     0.028438
     53 C                     0.008355
     54 C                     0.008907
     55 C                     0.031833
     56 C                    -0.016766
     57 C                     0.016330
     58 C                    -0.026659
     59 C                    -0.031457
     60 C                     0.008182
     61 C                     0.003225
     62 C                     0.015106
     63 C                     0.005051
     64 C                     0.012227
     65 C                    -0.027494
     66 C                    -0.021828
     67 C                     0.004399
     68 C                    -0.014868
     69 C                    -0.003384
     70 C                     0.020997
     71 C                     0.000590
     72 C                    -0.021424
     73 C                    -0.022909
     74 C                     0.001275
     75 C                    -0.008066
     76 C                     0.001786
     77 C                    -0.016376
     78 C                     0.004476
     79 C                     0.006528
     80 C                     0.017590
     81 C                     0.008273
     82 C                     0.006333
     83 C                     0.020139
     84 C                    -0.000043
     85 C                    -0.006794
     86 C                     0.010150
     87 C                    -0.016500
     88 C                     0.004557
     89 O                    -0.472401
     90 C                    -0.081826
     91 H                     0.122534
     92 H                     0.118967
     93 H                     0.125095
     94 O                    -0.461455
     95 C                     0.581675
     96 C                    -0.253034
     97 H                     0.126692
     98 H                     0.138617
     99 C                    -0.184331
    100 H                     0.109986
    101 H                     0.140209
    102 C                    -0.183755
    103 H                     0.107462
    104 H                     0.110133
    105 C                     0.005516
    106 C                     0.085459
    107 C                    -0.105009
    108 H                     0.103908
    109 C                    -0.093667
    110 H                     0.097670
    111 C                    -0.083817
    112 H                     0.089788
    113 C                    -0.091681
    114 H                     0.089680
    115 C                    -0.105461
    116 H                     0.098436
    117 C                     0.031058
    118 C                    -0.014050
    119 C                     0.026580
    120 C                    -0.029215
    121 C                    -0.006917
    122 C                    -0.023164
    123 C                     0.020503
    124 C                    -0.027018
    125 C                    -0.001538
    126 C                    -0.016151
    127 C                    -0.098802
    128 C                     0.006625
    129 C                     0.003406
    130 C                     0.006329
    131 C                     0.029240
    132 C                     0.003085
    133 C                    -0.106384
    134 C                     0.042729
    135 C                    -0.005985
    136 C                     0.007302
    137 C                     0.013233
    138 C                    -0.016865
    139 C                     0.001038
    140 C                     0.008132
    141 C                     0.018583
    142 C                     0.021160
    143 C                     0.000981
    144 C                     0.008186
    145 C                    -0.010805
    146 C                     0.026043
    147 C                     0.022008
    148 C                     0.046938
    149 C                    -0.040997
    150 C                    -0.016453
    151 C                    -0.009218
    152 C                    -0.003352
    153 C                    -0.004509
    154 C                     0.003940
    155 C                     0.023139
    156 C                    -0.007991
    157 C                    -0.000679
    158 C                     0.039594
    159 C                    -0.001828
    160 C                    -0.019370
    161 C                     0.002789
    162 C                     0.018697
    163 C                     0.000233
    164 C                    -0.013378
    165 C                    -0.036420
    166 C                    -0.006858
    167 C                     0.003931
    168 C                    -0.023526
    169 C                     0.012774
    170 C                     0.004175
    171 C                    -0.023040
    172 C                    -0.002294
    173 C                    -0.034684
    174 C                     0.002801
    175 C                    -0.003610
    176 C                     0.009896
  ----------------------------------------
  Sum of atomic charges =     0.000000

                    Cartesian Multipole Moments
 -----------------------------------------------------------------
    Charge (ESU x 10^10)
                 0.0000
    Dipole Moment (Debye)
         X       1.8698      Y      -0.3772      Z      -0.2828
       Tot       1.9284
    Quadrupole Moments (Debye-Ang)
        XX    -782.5758     XY     -16.6938     YY    -805.7505
        XZ      -4.5083     YZ      14.1160     ZZ    -821.3790

 Total job time:  858.97s(wall), 7337.31s(cpu)
        *  Thank you very much for using Q-Chem.  Have a nice day.  *
