 Q-Chem 4.4, Q-Chem, Inc., Pleasanton, CA (2016)
 Q-Chem 4.4.2 for Intel X86 Linux

User input:
--------------------------------------------------------------
$comment
SP
$end

$rem
MEM_STATIC 5000
MEM_TOTAL 20000
JOBTYPE SP
EXCHANGE B3LYP
BASIS 6-31g(d,p)
$end

$molecule
0 1
O          16.250000    -15.481000      0.863000
C          16.917000    -14.739000      1.877000
H          17.994000    -14.770000      1.668000
H          16.750000    -15.241000      2.838000
H          16.546000    -13.707000      1.897000
O          14.116000    -15.338000      1.731000
C          14.918000    -15.712000      0.840000
C          14.394000    -16.397000     -0.450000
H          14.022000    -17.393000     -0.178000
H          15.212000    -16.623000     -1.144000
C          13.317000    -15.553000     -1.171000
H          13.000000    -16.171000     -2.020000
H          12.438000    -15.409000     -0.531000
C          13.922000    -14.225000     -1.674000
H          14.810000    -13.988000     -1.076000
H          14.433000    -14.336000     -2.639000
C          12.983000    -13.052000     -1.836000
C          12.130000    -13.213000     -3.051000
C          10.826000    -13.705000     -2.995000
H          10.495000    -14.243000     -2.112000
C          10.067000    -13.932000     -4.146000
H           9.164000    -14.521000     -4.015000
C          10.415000    -13.302000     -5.320000
H           9.849000    -13.407000     -6.241000
C          11.691000    -12.736000     -5.412000
H          12.009000    -12.329000     -6.367000
C          12.566000    -12.744000     -4.319000
H          13.572000    -12.368000     -4.484000
C          12.589000     -7.572000     -1.806000
C          10.444000     -8.409000     -0.910000
C          11.276000     -7.020000      3.361000
C          16.561000     -9.579000      0.707000
C          12.243000    -10.192000      4.506000
C          11.517000     -8.526000     -1.792000
C          15.620000     -9.861000      3.345000
C          11.797000     -5.998000      1.211000
C          10.897000    -11.852000      1.012000
C          16.151000    -10.800000      1.177000
C          12.559000    -12.353000     -0.592000
C          11.980000    -12.387000      1.702000
C          14.604000    -11.880000      2.582000
C          14.588000     -9.714000      4.259000
C          10.982000    -10.521000     -1.001000
C          13.020000     -7.904000      4.519000
C          13.552000    -11.661000     -1.495000
C          14.886000    -11.220000     -0.884000
C          11.948000     -8.811000      4.569000
C          15.223000     -6.430000      1.489000
C          13.477000     -6.111000      2.899000
C          13.106000     -5.756000      1.652000
C          11.519000     -6.377000     -0.107000
C          15.220000     -9.960000     -1.362000
C          11.228000    -11.735000     -0.362000
C          10.428000     -7.214000     -0.071000
C          15.661000    -10.984000      2.494000
C          10.062000     -9.668000     -0.411000
C          12.194000    -11.984000      3.083000
C          15.801000     -7.785000     -0.498000
C          10.854000     -6.609000      2.092000
C          12.987000    -12.601000      0.814000
C          13.912000     -6.278000     -0.536000
C          13.521000    -11.771000      3.516000
C          10.128000    -10.824000      1.655000
C          15.264000     -7.668000      3.596000
C          16.082000     -8.589000      2.913000
C          10.322000    -10.462000      2.973000
C          16.103000     -9.127000     -0.598000
C          15.273000    -11.635000      0.398000
C          16.037000     -7.386000      0.833000
C          13.151000    -10.352000     -2.109000
C           9.664000     -8.680000      1.763000
C          14.307000    -12.241000      1.247000
C          11.429000    -10.978000      3.681000
C          14.716000     -7.198000     -1.188000
C          10.878000     -8.270000      3.848000
C          12.614000     -6.462000     -0.984000
C          12.613000     -6.762000      3.750000
C           9.731000     -9.762000      0.922000
C          10.062000     -9.105000      3.052000
C          11.876000     -9.845000     -1.891000
C          14.146000     -9.403000     -2.073000
C          14.793000     -6.581000      2.806000
C          10.026000     -7.406000      1.275000
C          13.533000    -10.657000      4.369000
C          16.510000     -8.492000      1.548000
C          14.375000     -8.341000      4.404000
C          13.908000     -8.050000     -1.906000
C          14.187000     -5.890000      0.781000
O          13.124000     -9.290000     -6.435000
C          11.774000     -9.066000     -5.969000
H          11.737000     -9.091000     -4.873000
H          11.094000     -9.845000     -6.335000
H          11.291000     -8.160000     -6.356000
O          13.913000     -7.450000     -5.424000
C          14.139000     -8.508000     -5.939000
C          15.488000     -9.052000     -6.222000
H          15.449000    -10.096000     -6.556000
H          15.859000     -9.265000     -5.211000
C          16.450000     -8.061000     -6.890000
H          16.108000     -7.869000     -7.914000
H          16.476000     -7.073000     -6.414000
C          17.848000     -8.670000     -6.981000
H          17.784000     -9.681000     -7.402000
H          18.515000     -8.031000     -7.573000
C          18.529000     -8.734000     -5.577000
C          18.623000     -7.397000     -4.949000
C          17.767000     -6.987000     -3.900000
H          16.891000     -7.543000     -3.578000
C          18.041000     -5.807000     -3.184000
H          17.515000     -5.530000     -2.275000
C          19.180000     -5.028000     -3.561000
H          19.421000     -4.108000     -3.037000
C          19.967000     -5.427000     -4.654000
H          20.856000     -4.840000     -4.866000
C          19.690000     -6.611000     -5.355000
H          20.339000     -6.920000     -6.169000
C          22.900000    -10.736000     -2.872000
C          21.200000    -10.785000     -1.179000
C          20.751000    -15.297000     -1.156000
C          21.368000    -13.172000     -7.095000
C          17.837000    -15.280000     -3.162000
C          21.832000    -10.133000     -2.246000
C          19.628000    -15.263000     -6.319000
C          22.785000    -13.979000     -1.204000
C          17.589000    -11.333000     -2.878000
C          19.937000    -13.018000     -7.215000
C          18.352000    -10.060000     -4.743000
C          17.173000    -11.943000     -4.023000
C          17.924000    -13.530000     -6.203000
C          19.093000    -15.840000     -5.197000
C          19.566000     -9.947000     -2.458000
C          20.004000    -16.418000     -2.984000
C          19.642000     -9.764000     -5.334000
C          20.109000    -10.725000     -6.405000
C          18.904000    -15.811000     -2.355000
C          23.281000    -14.807000     -4.599000
C          22.355000    -15.785000     -2.804000
C          23.211000    -14.776000     -2.337000
C          22.888000    -12.573000     -1.261000
C          21.471000    -10.967000     -6.198000
C          18.401000    -10.194000     -3.247000
C          21.750000    -11.977000     -0.690000
C          19.060000    -14.085000     -6.809000
C          19.787000    -10.654000     -1.301000
C          16.924000    -13.376000     -3.991000
C          23.081000    -12.734000     -5.697000
C          21.544000    -14.266000     -0.685000
C          17.669000    -11.322000     -5.171000
C          23.958000    -12.681000     -3.480000
C          17.348000    -14.143000     -5.086000
C          17.848000    -12.077000     -1.673000
C          21.323000    -16.148000     -5.015000
C          21.027000    -15.471000     -6.210000
C          17.644000    -13.436000     -1.616000
C          22.084000    -12.158000     -6.535000
C          19.317000    -11.796000     -6.878000
C          23.005000    -14.123000     -5.767000
C          20.866000     -9.635000     -4.461000
C          19.525000    -12.937000     -0.383000
C          18.110000    -12.103000     -6.234000
C          17.211000    -14.053000     -2.799000
C          23.580000    -12.011000     -4.608000
C          19.352000    -15.138000     -1.229000
C          23.471000    -11.917000     -2.369000
C          21.156000    -16.166000     -2.165000
C          19.012000    -11.744000     -0.926000
C          18.711000    -13.946000     -0.875000
C          20.761000     -9.602000     -3.055000
C          21.937000    -10.301000     -5.015000
C          22.463000    -15.824000     -4.223000
C          20.923000    -13.046000     -0.301000
C          17.972000    -15.318000     -4.554000
C          21.916000    -14.451000     -6.623000
C          20.090000    -16.412000     -4.365000
C          23.017000    -10.797000     -4.246000
C          23.747000    -14.113000     -3.473000
$end

--------------------------------------------------------------

             Standard Nuclear Orientation (Angstroms)
    I     Atom           X                Y                Z
 ----------------------------------------------------------------
    1      O      -0.1298241418     5.1241175228     0.2986062409
    2      C       0.1138577050     4.9150747987     1.6844522991
    3      H      -0.8531883795     4.7610039026     2.1800882840
    4      H       0.5579168436     5.8288774685     2.0982036281
    5      H       0.7748812378     4.0514098138     1.8265638146
    6      O       2.0442700564     5.5768757384    -0.3308009529
    7      C       0.8303429360     5.4141891365    -0.6080643947
    8      C       0.3538394620     5.4297992334    -2.0847504697
    9      H       0.4398252750     6.4582192434    -2.4580368519
   10      H      -0.7217106292     5.2316261545    -2.1606150343
   11      C       1.1322571966     4.4259514244    -2.9670550695
   12      H       0.7386668237     4.5800990503    -3.9792502719
   13      H       2.2002173633     4.6742523342    -2.9950682871
   14      C       0.8605188412     2.9789661042    -2.5033636317
   15      H       0.5440283835     2.9938732453    -1.4536357778
   16      H      -0.0698292423     2.5727378794    -2.9206142435
   17      C       1.9269158909     1.9469217300    -2.7889783056
   18      C       1.9299155513     1.5657511661    -4.2327424841
   19      C       2.8174261358     2.1196685097    -5.1553022593
   20      H       3.3390467635     3.0395657038    -4.9095481689
   21      C       2.7556860417     1.8199384456    -6.5186661320
   22      H       3.3308247399     2.4647347282    -7.1766511104
   23      C       2.1052980988     0.6782333212    -6.9307158044
   24      H       2.0498340392     0.3683988821    -7.9702100845
   25      C       1.2473479292     0.0444535513    -6.0255966356
   26      H       0.6541282146    -0.7947932005    -6.3756727128
   27      C       1.1066291505     0.5127453162    -4.7136366331
   28      H       0.3590722492     0.0298382397    -4.0902615977
   29      C       4.1537990151    -2.7936231367    -1.1292307590
   30      C       6.0108692506    -1.4709431369    -2.0811854631
   31      C       7.9967103949    -0.6878264769     1.9569018621
   32      C       1.5925379683    -0.1271354119     2.3991948197
   33      C       6.7123245245     2.5610443247     2.2776657167
   34      C       4.6766111283    -1.8739106742    -2.0989175541
   35      C       3.5727261613     1.4604430954     3.6167736481
   36      C       6.8517850704    -2.6549722649     1.0863224860
   37      C       5.4315871957     2.4273065024    -1.6104158269
   38      C       1.7306900020     1.1959678834     2.0673022383
   39      C       3.1336618949     1.9677212961    -1.9176319566
   40      C       4.7399107851     3.1459904660    -0.6407297418
   41      C       3.2887849574     2.9314022060     1.7603139293
   42      C       4.9012021652     1.8495755487     3.6926448615
   43      C       4.8074733410     0.2889551525    -2.5425587347
   44      C       6.8987968781     0.5116968505     3.5442536494
   45      C       2.1325297273     0.8542958077    -1.7218257653
   46      C       1.5411484177     0.6640529642    -0.3213137849
   47      C       7.4561256882     1.4077213142     2.6164294431
   48      C       4.1370182450    -2.3997102793     3.2232048886
   49      C       6.3399944240    -1.8684303950     3.2781106194
   50      C       6.1251089760    -2.7515202045     2.2817915777
   51      C       6.2729654210    -2.9383846600    -0.1557299395
   52      C       1.4724935537    -0.6912790615    -0.0280534744
   53      C       4.5155062351     1.6383876098    -2.3517178265
   54      C       6.8624920409    -2.1088019537    -1.0811470874
   55      C       2.7202587336     2.0277917444     2.6480498510
   56      C       6.1284041594    -0.1027808314    -2.3883066948
   57      C       5.4094753353     3.4435847672     0.6156487621
   58      C       2.2051773493    -2.2172849819     1.6892590733
   59      C       7.8303906018    -1.6266000103     0.9329839067
   60      C       3.4210976384     2.8297486122    -0.7361864014
   61      C       4.2003990961    -3.4102397026     1.0283784371
   62      C       4.6544783767     3.3671568751     1.8064154772
   63      C       6.7207801215     1.8970440554    -1.2663266853
   64      C       4.7414449823    -0.3066711170     4.3311892679
   65      C       3.4304241726     0.1072398046     4.0249929492
   66      C       7.3600411850     2.2015718265    -0.0812477304
   67      C       1.4506515120    -1.1163626111     1.3416548526
   68      C       1.7402996130     1.6151965455     0.6892220577
   69      C       2.8306800814    -1.9419334568     2.9218927860
   70      C       2.5925026410    -0.5544567549    -1.9566004146
   71      C       7.8854363180     0.1118724528    -0.7367662135
   72      C       2.7226106771     2.6255021757     0.5007001569
   73      C       6.6651089445     2.9105482682     0.9224407603
   74      C       2.9164676291    -2.9812192310     0.7361774394
   75      C       8.1239301947     0.6678909904     1.6345382918
   76      C       4.9349613988    -3.3685242103    -0.1455219169
   77      C       7.2271583969    -0.8254903629     3.1377034444
   78      C       7.0317154631     0.6463019426    -1.6684527608
   79      C       8.0759744038     1.0742981383     0.2820478214
   80      C       3.8855534774    -0.7968438780    -2.4032166002
   81      C       2.1540661288    -1.4399613685    -0.9997425338
   82      C       5.0906481202    -1.6011785782     3.8517963168
   83      C       7.7944643446    -1.2625920320    -0.4288125156
   84      C       5.4629808203     2.8046714603     2.8057567387
   85      C       2.4353572289    -0.6671251445     3.3423373236
   86      C       5.6189638147     0.7366242882     4.1372578463
   87      C       2.8957669272    -2.5229836922    -0.5614679944
   88      C       4.7842032641    -3.1349427380     2.2709734132
   89      O       0.7931436752    -3.5640876109    -4.7038314612
   90      C       2.1727659267    -3.4342981129    -5.1156920315
   91      H       2.7479026288    -2.8816097797    -4.3627223240
   92      H       2.2544129496    -2.8797475883    -6.0585623722
   93      H       2.6725942796    -4.3757015466    -5.3761247341
   94      O       1.3197640008    -4.7423179191    -2.8695233155
   95      C       0.5137590290    -4.0836359920    -3.4629532644
   96      C      -0.8834546261    -3.8457913539    -3.0304605706
   97      H      -1.3837380259    -3.0923286785    -3.6509632029
   98      H      -0.7387397554    -3.2003921207    -2.1543050844
   99      C      -1.6374949397    -5.1047169333    -2.5829356093
  100      H      -1.8189732251    -5.7402113765    -3.4579307204
  101      H      -1.0745132908    -5.7398953244    -1.8879564193
  102      C      -2.9987944093    -4.7212685068    -2.0055301552
  103      H      -3.5119125381    -4.0366703459    -2.6921837389
  104      H      -3.6034868322    -5.6142226140    -1.8039016947
  105      C      -2.8483581855    -4.0397440103    -0.6084022787
  106      C      -2.1411259657    -4.9114622467     0.3563354595
  107      C      -0.7921184906    -4.7000424362     0.7260887501
  108      H      -0.1302096407    -3.9940421032     0.2324935675
  109      C      -0.2369587383    -5.4057291373     1.8095719891
  110      H       0.7344701074    -5.1702934728     2.2345214516
  111      C      -1.0570571320    -6.3525664373     2.5003894410
  112      H      -0.6631623017    -6.9213040256     3.3373132239
  113      C      -2.3700227450    -6.5896380774     2.0609155092
  114      H      -2.9757856814    -7.2706718585     2.6517439561
  115      C      -2.9166104192    -5.8730074295     0.9849654970
  116      H      -3.9482031314    -6.0439156310     0.6919043042
  117      C      -5.6258332853    -1.3149056717     3.3020399083
  118      C      -3.4436119322    -0.3294101208     3.4612833855
  119      C      -4.6422170568     3.6544963399     1.6579228926
  120      C      -7.3976911999    -1.1085129744    -1.4867773345
  121      C      -3.3501057087     2.8906996299    -1.5456351059
  122      C      -4.2565100301    -1.4599750724     3.3062460592
  123      C      -6.3560893727     1.2209302744    -2.7077674181
  124      C      -5.8157124331     2.3287608453     3.3137966801
  125      C      -1.6416648091    -0.3999443463    -0.1406935007
  126      C      -6.2748998833    -1.1939186023    -2.3911680345
  127      C      -2.7464410780    -2.4669786258    -0.5740082628
  128      C      -2.1040764333    -0.3880129995    -1.4221825302
  129      C      -4.3506617044    -0.1089506307    -3.0683747468
  130      C      -5.5659533118     2.3052722204    -2.4286159371
  131      C      -2.5097494039    -1.5552899388     1.8385817955
  132      C      -5.3660558922     3.8081880443    -0.4888584657
  133      C      -3.9615867218    -3.1065139476    -0.1098825939
  134      C      -5.2056170254    -2.8184218148    -0.9210807983
  135      C      -3.9685559999     3.6634616721    -0.5006197647
  136      C      -8.2124859563     1.3787690339     0.9032744884
  137      C      -6.9120938889     3.1666916755     1.2883694098
  138      C      -7.0018586991     2.4468572082     2.4894883125
  139      C      -5.4382744410     1.0660671480     3.8176212418
  140      C      -6.2604138957    -2.6091128238    -0.0266254843
  141      C      -2.0746199615    -1.6328115539     0.4801239317
  142      C      -4.0439283861     0.9058356034     3.7374593366
  143      C      -5.7469192159    -0.0012300559    -3.0004171184
  144      C      -2.3440245255    -0.3970430724     2.5585390590
  145      C      -2.3882281904     0.8971109421    -2.0420439935
  146      C      -7.8911904711    -0.9452312768     0.7064883942
  147      C      -4.6725749244     2.9220865838     2.8310833032
  148      C      -2.8613094209    -1.5203853633    -1.7286005975
  149      C      -7.4435775749     0.0112438049     2.8446710602
  150      C      -3.5431621451     1.0074745432    -2.8301032781
  151      C      -1.4944933426     0.8108966429     0.6240591771
  152      C      -7.3417754805     2.4953349024    -1.0461472025
  153      C      -7.4779034977     1.3505712161    -1.8492382718
  154      C      -1.7758683216     2.0400988005     0.0748450321
  155      C      -7.3281008586    -1.7774462177    -0.3026584636
  156      C      -5.1909335309    -2.0521276173    -2.1087725082
  157      C      -8.3483185813     0.2394099647     0.1340759383
  158      C      -4.4417295934    -2.8899015272     1.3041498958
  159      C      -2.4643780713     2.0580729889     2.2732722547
  160      C      -4.0183318713    -1.3836494221    -2.4882145335
  161      C      -2.2465106380     2.0411012304    -1.2465791258
  162      C      -7.4834728027    -1.0890011812     2.0371827684
  163      C      -3.5191805308     3.5849821323     0.8083537452
  164      C      -6.2318349458    -0.0840862325     3.6047881463
  165      C      -5.7740044692     3.8967704066     0.8848591631
  166      C      -1.9202593407     0.7931715601     1.9813370176
  167      C      -2.4204321539     2.7627248244     1.0798420946
  168      C      -3.6359128412    -2.2334020748     2.2573643685
  169      C      -5.7988386897    -2.6553601553     1.3316861564
  170      C      -7.7289388548     2.5089426609     0.3256251367
  171      C      -3.5647299976     2.0883449450     3.1458077824
  172      C      -4.1742642825     2.2430708878    -2.4722810242
  173      C      -8.0352033226     0.1946479058    -1.2537987653
  174      C      -6.1306917228     3.1311038311    -1.4223904763
  175      C      -6.4346453039    -1.9324363983     2.3694280275
  176      C      -7.7700424912     1.2806107676     2.2304055049
 ----------------------------------------------------------------

   10   -5804.2843610483      3.12E-06 Convergence criterion met
 Total energy in the final basis set = -5804.2843610483

                    Orbital Energies (a.u.)
 --------------------------------------------------------------

 Alpha MOs
 -- Occupied --
-19.198 -19.185 -19.132 -19.131 -10.322 -10.312 -10.244 -10.242
-10.242 -10.240 -10.238 -10.238 -10.237 -10.233 -10.231 -10.231
-10.230 -10.229 -10.227 -10.227 -10.227 -10.226 -10.226 -10.225
-10.225 -10.224 -10.224 -10.223 -10.223 -10.223 -10.222 -10.222
-10.222 -10.222 -10.221 -10.221 -10.221 -10.221 -10.221 -10.221
-10.221 -10.221 -10.220 -10.220 -10.220 -10.220 -10.220 -10.220
-10.220 -10.219 -10.219 -10.219 -10.219 -10.218 -10.218 -10.218
-10.218 -10.218 -10.217 -10.217 -10.217 -10.217 -10.217 -10.216
-10.216 -10.216 -10.216 -10.216 -10.216 -10.216 -10.216 -10.215
-10.215 -10.215 -10.215 -10.214 -10.214 -10.214 -10.214 -10.214
-10.214 -10.214 -10.214 -10.214 -10.214 -10.213 -10.213 -10.213
-10.213 -10.213 -10.213 -10.212 -10.212 -10.212 -10.212 -10.212
-10.212 -10.212 -10.212 -10.211 -10.211 -10.211 -10.211 -10.211
-10.210 -10.210 -10.210 -10.210 -10.210 -10.210 -10.209 -10.209
-10.209 -10.209 -10.209 -10.209 -10.209 -10.209 -10.208 -10.208
-10.208 -10.207 -10.207 -10.207 -10.207 -10.207 -10.206 -10.205
-10.205 -10.204 -10.203 -10.203 -10.202 -10.201 -10.201 -10.201
-10.201 -10.200 -10.200 -10.200 -10.200 -10.199 -10.198 -10.198
-10.197 -10.197 -10.196 -10.196  -1.093  -1.092  -1.010  -0.995
 -0.986  -0.983  -0.968  -0.966  -0.966  -0.965  -0.963  -0.960
 -0.937  -0.936  -0.930  -0.927  -0.927  -0.926  -0.925  -0.925
 -0.922  -0.920  -0.900  -0.898  -0.893  -0.891  -0.888  -0.888
 -0.877  -0.876  -0.857  -0.853  -0.846  -0.843  -0.841  -0.840
 -0.837  -0.833  -0.825  -0.824  -0.811  -0.804  -0.804  -0.800
 -0.798  -0.796  -0.795  -0.793  -0.792  -0.790  -0.786  -0.783
 -0.775  -0.772  -0.770  -0.769  -0.768  -0.767  -0.765  -0.762
 -0.751  -0.750  -0.745  -0.744  -0.738  -0.735  -0.719  -0.718
 -0.715  -0.715  -0.715  -0.714  -0.712  -0.712  -0.711  -0.710
 -0.709  -0.707  -0.706  -0.705  -0.703  -0.702  -0.677  -0.669
 -0.663  -0.660  -0.657  -0.654  -0.653  -0.648  -0.635  -0.632
 -0.630  -0.629  -0.627  -0.625  -0.625  -0.620  -0.619  -0.619
 -0.618  -0.617  -0.614  -0.613  -0.611  -0.611  -0.609  -0.609
 -0.607  -0.606  -0.605  -0.600  -0.569  -0.566  -0.566  -0.564
 -0.562  -0.561  -0.560  -0.559  -0.558  -0.557  -0.553  -0.553
 -0.540  -0.537  -0.534  -0.533  -0.532  -0.530  -0.526  -0.525
 -0.525  -0.524  -0.522  -0.520  -0.519  -0.518  -0.514  -0.512
 -0.508  -0.506  -0.505  -0.503  -0.495  -0.492  -0.489  -0.487
 -0.485  -0.485  -0.483  -0.482  -0.481  -0.477  -0.475  -0.475
 -0.474  -0.473  -0.472  -0.470  -0.470  -0.469  -0.468  -0.468
 -0.466  -0.466  -0.464  -0.463  -0.461  -0.460  -0.459  -0.459
 -0.458  -0.456  -0.455  -0.453  -0.449  -0.446  -0.446  -0.444
 -0.444  -0.441  -0.441  -0.440  -0.439  -0.437  -0.436  -0.434
 -0.432  -0.431  -0.429  -0.428  -0.427  -0.427  -0.426  -0.425
 -0.424  -0.424  -0.423  -0.422  -0.422  -0.421  -0.420  -0.419
 -0.419  -0.417  -0.417  -0.416  -0.415  -0.415  -0.414  -0.412
 -0.412  -0.411  -0.409  -0.406  -0.405  -0.403  -0.400  -0.400
 -0.399  -0.394  -0.393  -0.393  -0.390  -0.387  -0.385  -0.382
 -0.380  -0.376  -0.375  -0.374  -0.373  -0.371  -0.369  -0.366
 -0.366  -0.365  -0.363  -0.363  -0.362  -0.361  -0.360  -0.359
 -0.358  -0.358  -0.356  -0.355  -0.355  -0.354  -0.353  -0.351
 -0.350  -0.349  -0.347  -0.347  -0.347  -0.346  -0.345  -0.344
 -0.343  -0.343  -0.342  -0.340  -0.339  -0.339  -0.337  -0.336
 -0.334  -0.334  -0.331  -0.330  -0.328  -0.326  -0.324  -0.320
 -0.309  -0.305  -0.296  -0.295  -0.294  -0.288  -0.276  -0.273
 -0.272  -0.270  -0.269  -0.268  -0.266  -0.266  -0.264  -0.264
 -0.263  -0.261  -0.261  -0.258  -0.257  -0.255  -0.254  -0.252
 -0.250  -0.249  -0.245  -0.244  -0.230  -0.220  -0.217  -0.214
 -0.209  -0.209  -0.205  -0.203  -0.200  -0.196

          Ground-State Mulliken Net Atomic Charges

     Atom                 Charge (a.u.)
  ----------------------------------------
      1 O                    -0.455951
      2 C                    -0.084491
      3 H                     0.126158
      4 H                     0.127178
      5 H                     0.132348
      6 O                    -0.489444
      7 C                     0.593741
      8 C                    -0.255729
      9 H                     0.129946
     10 H                     0.119143
     11 C                    -0.176751
     12 H                     0.110303
     13 H                     0.124173
     14 C                    -0.198216
     15 H                     0.114019
     16 H                     0.108565
     17 C                     0.026402
     18 C                     0.085306
     19 C                    -0.115037
     20 H                     0.088641
     21 C                    -0.087323
     22 H                     0.091267
     23 C                    -0.083938
     24 H                     0.090058
     25 C                    -0.093767
     26 H                     0.100086
     27 C                    -0.105177
     28 H                     0.090946
     29 C                    -0.009148
     30 C                    -0.024815
     31 C                    -0.002982
     32 C                     0.006207
     33 C                     0.004844
     34 C                    -0.005958
     35 C                    -0.015877
     36 C                    -0.006484
     37 C                    -0.022622
     38 C                    -0.010602
     39 C                    -0.092427
     40 C                     0.012876
     41 C                     0.016765
     42 C                     0.017966
     43 C                     0.014287
     44 C                    -0.007254
     45 C                    -0.095620
     46 C                     0.028152
     47 C                    -0.003405
     48 C                     0.012322
     49 C                     0.012019
     50 C                     0.009478
     51 C                     0.025188
     52 C                     0.000493
     53 C                    -0.005884
     54 C                    -0.010940
     55 C                    -0.005955
     56 C                    -0.011848
     57 C                     0.003987
     58 C                    -0.003683
     59 C                    -0.007821
     60 C                     0.098072
     61 C                     0.014951
     62 C                    -0.033818
     63 C                     0.001990
     64 C                    -0.010257
     65 C                    -0.004648
     66 C                    -0.012759
     67 C                    -0.009789
     68 C                    -0.025903
     69 C                    -0.008024
     70 C                     0.021212
     71 C                     0.000843
     72 C                    -0.002315
     73 C                     0.006268
     74 C                    -0.014779
     75 C                     0.011894
     76 C                    -0.017185
     77 C                    -0.005758
     78 C                     0.041554
     79 C                    -0.015232
     80 C                     0.035520
     81 C                    -0.008275
     82 C                    -0.008245
     83 C                    -0.017429
     84 C                     0.002586
     85 C                    -0.002332
     86 C                    -0.004087
     87 C                     0.047339
     88 C                    -0.010410
     89 O                    -0.477769
     90 C                    -0.086239
     91 H                     0.128198
     92 H                     0.115779
     93 H                     0.121792
     94 O                    -0.462174
     95 C                     0.587778
     96 C                    -0.256364
     97 H                     0.122976
     98 H                     0.139185
     99 C                    -0.183886
    100 H                     0.109951
    101 H                     0.141625
    102 C                    -0.183344
    103 H                     0.106640
    104 H                     0.108076
    105 C                     0.007224
    106 C                     0.084704
    107 C                    -0.107777
    108 H                     0.105664
    109 C                    -0.095060
    110 H                     0.100124
    111 C                    -0.084071
    112 H                     0.091348
    113 C                    -0.090466
    114 H                     0.089210
    115 C                    -0.102607
    116 H                     0.093514
    117 C                     0.036775
    118 C                    -0.012745
    119 C                     0.025794
    120 C                    -0.020322
    121 C                    -0.009598
    122 C                    -0.021193
    123 C                     0.021268
    124 C                    -0.026550
    125 C                     0.001853
    126 C                    -0.016550
    127 C                    -0.100898
    128 C                    -0.001582
    129 C                     0.004097
    130 C                     0.006388
    131 C                     0.027619
    132 C                     0.001977
    133 C                    -0.107123
    134 C                     0.049670
    135 C                    -0.004920
    136 C                     0.008529
    137 C                     0.013654
    138 C                    -0.016087
    139 C                     0.001929
    140 C                     0.001105
    141 C                     0.028661
    142 C                     0.021578
    143 C                     0.000755
    144 C                     0.010548
    145 C                    -0.014960
    146 C                     0.023084
    147 C                     0.021753
    148 C                     0.048054
    149 C                    -0.036280
    150 C                    -0.017876
    151 C                    -0.002905
    152 C                    -0.003599
    153 C                    -0.003133
    154 C                     0.015614
    155 C                     0.011545
    156 C                    -0.007881
    157 C                     0.002786
    158 C                     0.044563
    159 C                    -0.005934
    160 C                    -0.019585
    161 C                    -0.003710
    162 C                     0.015714
    163 C                     0.002546
    164 C                    -0.012643
    165 C                    -0.035350
    166 C                    -0.005217
    167 C                    -0.004922
    168 C                    -0.023401
    169 C                     0.006373
    170 C                     0.005065
    171 C                    -0.023480
    172 C                    -0.002700
    173 C                    -0.034558
    174 C                     0.003516
    175 C                    -0.006920
    176 C                     0.011077
  ----------------------------------------
  Sum of atomic charges =     0.000000

                    Cartesian Multipole Moments
 -----------------------------------------------------------------
    Charge (ESU x 10^10)
                 0.0000
    Dipole Moment (Debye)
         X      -3.1374      Y      -0.7509      Z      -2.4149
       Tot       4.0297
    Quadrupole Moments (Debye-Ang)
        XX    -822.8643     XY       4.8356     YY    -804.8696
        XZ      -4.5721     YZ      -8.4115     ZZ    -785.4121

 Total job time:  991.43s(wall), 8550.62s(cpu)
        *  Thank you very much for using Q-Chem.  Have a nice day.  *
