 Q-Chem 4.4, Q-Chem, Inc., Pleasanton, CA (2016)
 Q-Chem 4.4.2 for Intel X86 Linux

User input:
--------------------------------------------------------------
$comment
SP
$end

$rem
MEM_STATIC 5000
MEM_TOTAL 20000
JOBTYPE SP
EXCHANGE B3LYP
BASIS 6-31g(d,p)
$end

$molecule
0 1
O          -9.273000     33.045000    -13.414000
C          -8.391000     33.976000    -14.116000
H          -7.338000     33.697000    -14.244000
H          -8.582000     34.916000    -13.585000
H          -8.705000     34.191000    -15.145000
O          -8.228000     33.576000    -11.549000
C          -9.066000     32.971000    -12.093000
C         -10.130000     32.205000    -11.372000
H         -11.109000     32.552000    -11.724000
H         -10.044000     32.554000    -10.336000
C          -9.946000     30.717000    -11.639000
H          -9.846000     30.621000    -12.727000
H          -8.976000     30.334000    -11.298000
C         -11.155000     29.944000    -10.998000
H         -11.184000     30.303000     -9.962000
H         -12.112000     30.139000    -11.499000
C         -10.977000     28.483000    -11.089000
C         -11.061000     27.930000    -12.446000
C          -9.870000     27.568000    -13.223000
H          -8.951000     27.721000    -12.665000
C          -9.897000     27.261000    -14.594000
H          -8.963000     26.905000    -15.019000
C         -11.076000     27.304000    -15.260000
H         -11.101000     27.174000    -16.338000
C         -12.243000     27.663000    -14.591000
H         -13.105000     27.789000    -15.239000
C         -12.243000     27.932000    -13.194000
H         -13.089000     28.408000    -12.706000
C         -12.579000     23.691000     -8.968000
C         -10.266000     23.299000     -9.501000
C          -8.800000     23.169000     -5.272000
C         -13.014000     27.765000     -6.126000
C          -7.605000     26.410000     -5.377000
C         -11.477000     23.938000     -9.833000
C         -10.789000     27.976000     -4.456000
C         -10.803000     22.206000     -6.254000
C          -8.183000     26.643000     -9.288000
C         -12.027000     28.679000     -6.435000
C         -10.107000     27.816000    -10.018000
C          -8.292000     27.817000     -8.540000
C          -9.808000     28.914000     -6.513000
C          -9.569000     27.316000     -4.200000
C          -9.806000     25.326000    -10.344000
C          -9.007000     24.951000     -3.981000
C         -11.592000     27.581000    -10.013000
C         -12.302000     28.080000     -8.861000
C          -7.898000     25.107000     -4.781000
C         -12.898000     24.556000     -4.702000
C         -10.949000     23.539000     -4.200000
C         -11.579000     22.805000     -5.225000
C         -11.281000     22.250000     -7.584000
C         -13.314000     27.182000     -8.455000
C          -9.246000     26.600000    -10.158000
C         -10.172000     22.483000     -8.390000
C         -10.877000     28.791000     -5.603000
C          -9.248000     24.169000     -9.819000
C          -7.789000     27.753000     -7.211000
C         -13.845000     25.748000     -6.609000
C          -9.405000     22.381000     -6.242000
C          -9.417000     28.548000     -8.916000
C         -13.229000     23.445000     -6.884000
C          -8.622000     28.291000     -6.192000
C          -7.550000     25.484000     -8.791000
C         -11.214000     25.885000     -3.575000
C         -11.803000     27.087000     -4.115000
C          -7.034000     25.434000     -7.501000
C         -13.642000     27.066000     -7.160000
C         -11.668000     28.791000     -7.805000
C         -13.445000     25.741000     -5.259000
C         -12.140000     26.241000    -10.164000
C          -7.961000     23.407000     -7.901000
C         -10.280000     28.952000     -7.821000
C          -7.151000     26.585000     -6.704000
C         -13.830000     24.616000     -7.397000
C          -7.740000     24.013000     -5.611000
C         -12.509000     22.846000     -7.897000
C          -9.558000     23.708000     -4.211000
C          -8.143000     24.262000     -9.001000
C          -7.306000     24.155000     -6.917000
C         -11.215000     25.162000    -10.406000
C         -13.201000     26.043000     -9.277000
C         -11.737000     24.651000     -3.910000
C          -8.999000     22.465000     -7.586000
C          -8.467000     27.484000     -5.051000
C         -12.913000     26.992000     -4.959000
C          -9.851000     26.027000     -3.689000
C         -13.484000     24.744000     -8.727000
C         -12.798000     23.416000     -5.534000
O         -10.786000     11.730000     -7.193000
C         -11.604000     10.981000     -8.084000
H         -12.543000     11.517000     -8.268000
H         -11.905000     10.035000     -7.617000
H         -11.142000     10.843000     -9.070000
O         -11.948000     11.076000     -5.372000
C         -11.142000     11.843000     -5.891000
C         -10.207000     12.782000     -5.101000
H          -9.161000     12.803000     -5.432000
H         -10.216000     12.401000     -4.072000
C         -10.610000     14.272000     -4.946000
H         -11.589000     14.121000     -4.474000
H         -10.047000     14.875000     -4.223000
C         -10.726000     14.966000     -6.336000
H          -9.680000     14.974000     -6.665000
H         -11.186000     14.275000     -7.054000
C         -11.484000     16.258000     -6.298000
C         -10.871000     17.311000     -5.454000
C          -9.813000     18.009000     -5.988000
H          -9.518000     17.912000     -7.029000
C          -9.318000     19.156000     -5.402000
H          -8.636000     19.839000     -5.898000
C          -9.791000     19.525000     -4.150000
H          -9.437000     20.428000     -3.662000
C         -10.883000     18.773000     -3.564000
H         -11.234000     18.996000     -2.561000
C         -11.385000     17.647000     -4.202000
H         -12.174000     17.122000     -3.672000
C         -16.484000     18.520000     -6.236000
C         -15.127000     20.105000     -7.556000
C         -16.967000     19.131000    -11.593000
C         -15.987000     13.794000     -8.183000
C         -14.358000     17.013000    -12.668000
C         -15.235000     19.269000     -6.442000
C         -15.569000     13.961000    -10.998000
C         -18.014000     19.466000     -9.394000
C         -12.155000     18.224000     -9.437000
C         -14.720000     13.636000     -8.764000
C         -11.994000     16.741000     -7.574000
C         -12.058000     16.947000     -9.962000
C         -13.305000     14.479000    -10.324000
C         -15.479000     14.888000    -12.067000
C         -13.184000     18.995000     -7.403000
C         -16.775000     17.015000    -12.433000
C         -12.986000     16.234000     -6.543000
C         -13.811000     15.049000     -6.968000
C         -15.580000     17.691000    -12.659000
C         -18.625000     15.965000     -9.047000
C         -18.443000     17.413000    -10.766000
C         -18.714000     18.222000     -9.603000
C         -17.414000     19.625000     -8.154000
C         -15.132000     15.182000     -6.399000
C         -12.232000     18.156000     -8.023000
C         -16.265000     20.357000     -8.368000
C         -14.483000     13.812000    -10.144000
C         -13.845000     20.024000     -8.093000
C         -12.618000     16.645000    -11.210000
C         -17.423000     15.245000     -7.112000
C         -17.089000     19.828000    -10.372000
C         -12.018000     16.009000     -8.887000
C         -18.303000     17.580000     -7.264000
C         -13.214000     15.390000    -11.396000
C         -12.802000     19.264000    -10.164000
C         -17.528000     15.154000    -11.092000
C         -16.870000     14.175000    -10.385000
C         -13.429000     18.924000    -11.395000
C         -16.199000     14.526000     -7.027000
C         -13.631000     14.246000     -8.153000
C         -17.991000     14.962000     -8.310000
C         -14.007000     17.182000     -5.958000
C         -14.739000     20.479000    -10.320000
C         -12.726000     14.773000     -9.099000
C         -13.338000     17.623000    -11.935000
C         -17.569000     16.536000     -6.560000
C         -15.652000     18.995000    -12.114000
C         -17.630000     18.780000     -7.069000
C         -17.643000     17.906000    -11.807000
C         -13.606000     20.277000     -9.444000
C         -14.589000     19.683000    -11.515000
C         -14.033000     18.535000     -6.381000
C         -15.254000     16.507000     -5.849000
C         -18.453000     16.029000    -10.446000
C         -16.010000     20.479000     -9.732000
C         -14.307000     15.608000    -12.304000
C         -17.061000     14.135000     -8.962000
C         -16.701000     15.628000    -12.120000
C         -16.484000     17.166000     -5.926000
C         -18.823000     17.312000     -8.550000
$end

--------------------------------------------------------------

             Standard Nuclear Orientation (Angstroms)
    I     Atom           X                Y                Z
 ----------------------------------------------------------------
    1      O     -12.0653423873    -4.1111807914    -1.6437205908
    2      C     -13.2765844678    -4.3580573298    -2.4243828720
    3      H     -13.3733266601    -3.8685562688    -3.4011446954
    4      H     -14.0662706871    -4.1435895885    -1.6946971431
    5      H     -13.4336635973    -5.4149297647    -2.6733985410
    6      O     -12.8057628838    -2.0691508258    -1.2775210442
    7      C     -11.9882175623    -2.8860203959    -1.1085572825
    8      C     -10.8702953671    -2.7423281851    -0.1245372044
    9      H     -10.8901028683    -3.6034899568     0.5542573639
   10      H     -11.1672268794    -1.8776273870     0.4809520249
   11      C      -9.5474148396    -2.6647007359    -0.8750370972
   12      H      -9.5536512353    -3.5088554095    -1.5752684836
   13      H      -9.4913717595    -1.8125936832    -1.5639803052
   14      C      -8.3791086544    -2.6638861950     0.1762245231
   15      H      -8.6470286734    -1.8615421285     0.8744228203
   16      H      -8.2719179430    -3.6172651555     0.7095665421
   17      C      -7.0694100754    -2.4458755442    -0.4653726933
   18      C      -6.5998612962    -3.5502009279    -1.3105374055
   19      C      -6.7022877189    -3.5191737649    -2.7740264363
   20      H      -7.1208588620    -2.5858353242    -3.1387339263
   21      C      -6.4840200871    -4.6386162678    -3.5948959287
   22      H      -6.4858047744    -4.4501943630    -4.6645739179
   23      C      -6.1692444835    -5.8270032663    -3.0255992915
   24      H      -6.1011549562    -6.7244355722    -3.6335368479
   25      C      -6.0782813711    -5.9352540873    -1.6405583275
   26      H      -5.9464469469    -6.9518095279    -1.2827053958
   27      C      -6.2502712281    -4.8031816759    -0.7962825761
   28      H      -6.3871201408    -4.9086285198     0.2763726985
   29      C      -1.9030187015    -0.8657135476     0.4510318228
   30      C      -2.3378984925    -0.0313877533    -1.7631276196
   31      C      -2.4599331396     4.3022140963    -0.6426368546
   32      C      -5.4254046141     0.7244508581     3.6018792716
   33      C      -5.9142437408     4.4050134612    -0.6252713328
   34      C      -2.5537400212    -1.0387777902    -0.8020637570
   35      C      -6.2703125693     3.2728831108     2.8431503340
   36      C      -0.9418140435     2.5499714125     0.0844546028
   37      C      -6.1673141525     0.7943407989    -2.2325336922
   38      C      -6.6329246756     0.8644021785     2.9481553781
   39      C      -6.6704192389    -0.9971937521    -0.7669641016
   40      C      -7.1919385153     1.2018650775    -1.3759533530
   41      C      -7.5998500410     1.9438442862     1.2495883132
   42      C      -6.0421324531     4.2243292389     1.8271680016
   43      C      -4.4474116128    -0.7698871398    -1.9516774839
   44      C      -3.9922853756     5.0289593443     0.7746817298
   45      C      -5.9529442037    -1.7484416077     0.3199265245
   46      C      -6.1183305544    -1.2293468795     1.6553639129
   47      C      -4.5559641555     4.9264336029    -0.4767061819
   48      C      -2.3626284697     2.4161457066     3.2912608094
   49      C      -2.0278652065     4.0088461709     1.7304492293
   50      C      -1.1863650779     2.9174791010     1.4353620350
   51      C      -0.9007031178     1.1776592860    -0.2537602979
   52      C      -4.9118813181    -1.3035857892     2.3863583209
   53      C      -5.8222255723    -0.4914523130    -1.8914062303
   54      C      -1.5371683778     1.0595859922    -1.4845229355
   55      C      -7.0741956299     2.1551074584     2.5399546612
   56      C      -3.5149040041     0.1234897298    -2.4595606680
   57      C      -7.2226443087     2.5893335115    -1.0639685794
   58      C      -3.2783091306     0.1553801220     3.3604699048
   59      C      -1.5727922336     3.2775062183    -0.9440066897
   60      C      -7.5256139510     0.1906921908    -0.4773143284
   61      C      -1.3334981081     0.5668493600     2.0161138684
   62      C      -7.3913470273     2.9265846658     0.3069781926
   63      C      -5.2596058965     1.7043396872    -2.8147250225
   64      C      -4.1100784721     4.0704886676     3.0052645568
   65      C      -5.0754342075     3.1419684558     3.5430967989
   66      C      -5.3100886421     3.0641577637    -2.5297648653
   67      C      -4.6180214392    -0.3781708955     3.3111927093
   68      C      -6.9377305323    -0.1067766151     1.9570801334
   69      C      -3.3270092294     1.4980005132     3.7818341008
   70      C      -4.5180180439    -1.9822047881     0.2488864555
   71      C      -3.1166971904     2.5149861494    -2.6542738118
   72      C      -7.5538222955     0.5939416298     0.9168177239
   73      C      -6.3075592936     3.5115814565    -1.6474025029
   74      C      -2.2641145141    -0.3412061408     2.5683812966
   75      C      -3.6277290008     4.4653503341    -1.3912999260
   76      C      -1.0693101145     0.1830293942     0.7175543056
   77      C      -2.6521950899     4.7142451164     0.6930546446
   78      C      -3.9240795113     1.3812136187    -2.8462181696
   79      C      -3.9820992852     3.5833936153    -2.3966506348
   80      C      -3.8260085892    -1.5465939372    -0.9384618933
   81      C      -3.9258142874    -1.7756886420     1.4972212632
   82      C      -2.7939027914     3.6815415747     2.8474300348
   83      C      -1.8654497144     2.3568355714    -1.9662322808
   84      C      -6.6177215056     4.0737794751     0.5571833516
   85      C      -4.6642156810     1.8601124569     3.9188700303
   86      C      -4.7056312340     4.6785507882     1.9252153147
   87      C      -2.5773080889    -1.2879994901     1.6141841795
   88      C      -1.3718579995     1.9289182468     2.4064968421
   89      O       8.8533809806     3.2056176488    -3.6908425315
   90      C       9.7795758532     2.1287126515    -3.7711213256
   91      H       9.5783519008     1.4034877731    -2.9733551964
   92      H      10.7971914770     2.4891485450    -3.5758000289
   93      H       9.6978342046     1.5676266091    -4.7109004251
   94      O       9.9625157147     4.2023779310    -1.9966494842
   95      C       8.9415679933     4.0907308458    -2.6693207846
   96      C       7.7916806552     5.1192040016    -2.6762545906
   97      H       7.4032690332     5.3941294460    -3.6650267645
   98      H       8.2128328678     6.0274709179    -2.2270719747
   99      C       6.5335820439     4.8314490188    -1.8154880984
  100      H       7.0300915904     4.7278029015    -0.8424712678
  101      H       5.8201780204     5.6525142569    -1.6733136490
  102      C       5.8387824629     3.5120522045    -2.2667503153
  103      H       5.4627167479     3.7904283800    -3.2584671513
  104      H       6.6008531415     2.7618271594    -2.5137638021
  105      C       4.8787616772     2.9652035017    -1.2545306814
  106      C       3.7323352789     3.8525009260    -0.9457851648
  107      C       2.6912414089     3.8713838576    -1.8443901886
  108      H       2.6235280106     3.1701071696    -2.6712764581
  109      C       1.4808323530     4.4673841018    -1.5550398365
  110      H       0.5816687609     4.3207026419    -2.1446315459
  111      C       1.3643711307     5.2136124771    -0.3901475687
  112      H       0.4249245009     5.6861987139    -0.1200156035
  113      C       2.4706423245     5.2275883983     0.5465128390
  114      H       2.4363234779     5.8501450593     1.4354360195
  115      C       3.6606162622     4.5814969662     0.2408138222
  116      H       4.4488598696     4.6782772073     0.9813214861
  117      C       4.4247618482     0.0560986800     3.3770437045
  118      C       2.4037122660    -0.5453512660     2.0926409060
  119      C       3.7004304713    -4.7657191604     1.0255599664
  120      C       8.5917488989    -0.6632091908     0.4629899806
  121      C       4.7589551106    -3.9919166631    -2.2499835431
  122      C       3.2909155363     0.4437374977     2.5240685067
  123      C       8.1316314008    -2.8196283025    -1.3439373844
  124      C       3.8626745633    -3.5269181558     3.1428893989
  125      C       3.0712313997    -0.2858053838    -1.8311531943
  126      C       8.2833927927    -0.4557763560    -0.8896748451
  127      C       4.5207047254     1.5610813435    -1.4021829220
  128      C       4.2097042791    -0.4990306944    -2.5888981842
  129      C       6.9270800012    -1.1258247442    -2.5802146314
  130      C       7.1674442156    -3.7930539092    -1.7085956631
  131      C       2.8077164628     0.7648787436     0.3175814898
  132      C       5.5781800751    -5.0774097936    -0.2380955937
  133      C       5.3889078220     1.9669204357    -0.2250711964
  134      C       6.7546551401     1.3358085270    -0.1814017364
  135      C       4.5298885828    -4.7251626974    -1.0825385641
  136      C       7.3805241886    -3.0819716091     2.7215966451
  137      C       5.8577452442    -4.6216824722     2.0929284141
  138      C       5.2547020638    -3.9029464811     3.1884869464
  139      C       3.5846093152    -2.1929599676     3.4000202410
  140      C       7.1038740119     1.0931148988     1.1990463729
  141      C       3.2429872391     0.8657288461    -1.0221922255
  142      C       2.4996994756    -1.8627247725     2.6153315410
  143      C       7.9585557710    -1.5087740237    -1.7712766946
  144      C       2.0204602059    -0.3036765364     0.7761435898
  145      C       4.6084703272    -1.7989176636    -2.9259256402
  146      C       7.7686024942    -0.7270729884     2.6154047668
  147      C       3.1563402957    -3.9041215362     2.0018536798
  148      C       5.1411577509     0.5498636350    -2.3256794240
  149      C       5.8571034674    -1.6401928594     3.9428506495
  150      C       5.9774367438    -2.0990425450    -2.9522506455
  151      C       2.2668024505    -1.3793971460    -1.4002365858
  152      C       7.6583136643    -4.1003271064     0.5014750069
  153      C       8.4005208974    -3.0259751972     0.0700235053
  154      C       2.7246871179    -2.6953981293    -1.6875918422
  155      C       8.0410271056     0.0914877186     1.4848716182
  156      C       7.3811781984     0.5495838465    -1.2161739863
  157      C       8.1550685014    -1.9919660964     2.3177364097
  158      C       4.8721147935     1.7852901342     1.1832275643
  159      C       1.7618402124    -2.7033107470     0.4010951203
  160      C       6.5281577247     0.1659887424    -2.2729998317
  161      C       3.8868721213    -2.9210745104    -2.4562778567
  162      C       6.6348958028    -0.5191580844     3.4303780980
  163      C       3.3588239827    -4.4856365157    -0.3250031454
  164      C       4.5146769161    -1.2841817384     3.8970135889
  165      C       5.0662755303    -5.1358003440     1.0556297561
  166      C       1.6241997423    -1.3418770655    -0.0673303614
  167      C       2.3912199952    -3.5147696381    -0.6135755441
  168      C       3.5834084135     1.2326009821     1.3929525445
  169      C       5.9300476291     1.3074362025     2.0047802012
  170      C       7.1816644033    -4.1700260151     1.8455410560
  171      C       2.2205784505    -2.8854064014     1.7116619448
  172      C       6.0848048597    -3.4682239418    -2.5274549412
  173      C       8.5845428361    -1.9311981421     0.9814011032
  174      C       6.8764526467    -4.5866511019    -0.5556774515
  175      C       5.7165371731     0.5005901174     3.1257274257
  176      C       6.2083153336    -2.9553086183     3.5645111645
 ----------------------------------------------------------------

    9   -5804.2866377340      8.36E-06 Convergence criterion met
 Total energy in the final basis set = -5804.2866377340

                    Orbital Energies (a.u.)
 --------------------------------------------------------------

 Alpha MOs
 -- Occupied --
-19.195 -19.191 -19.137 -19.130 -10.323 -10.304 -10.245 -10.244
-10.242 -10.240 -10.238 -10.235 -10.235 -10.234 -10.234 -10.232
-10.230 -10.228 -10.228 -10.228 -10.226 -10.224 -10.224 -10.223
-10.223 -10.223 -10.222 -10.222 -10.222 -10.222 -10.222 -10.221
-10.221 -10.220 -10.220 -10.220 -10.220 -10.220 -10.220 -10.220
-10.220 -10.219 -10.219 -10.219 -10.219 -10.219 -10.219 -10.219
-10.219 -10.218 -10.218 -10.218 -10.218 -10.218 -10.218 -10.217
-10.217 -10.217 -10.217 -10.217 -10.217 -10.217 -10.217 -10.217
-10.217 -10.217 -10.216 -10.216 -10.216 -10.216 -10.216 -10.216
-10.216 -10.216 -10.216 -10.215 -10.215 -10.215 -10.215 -10.215
-10.215 -10.215 -10.215 -10.215 -10.215 -10.215 -10.215 -10.215
-10.214 -10.214 -10.214 -10.214 -10.214 -10.214 -10.214 -10.214
-10.214 -10.214 -10.214 -10.214 -10.214 -10.214 -10.213 -10.213
-10.213 -10.213 -10.213 -10.213 -10.213 -10.213 -10.213 -10.213
-10.212 -10.212 -10.211 -10.211 -10.211 -10.211 -10.211 -10.210
-10.210 -10.210 -10.209 -10.209 -10.209 -10.208 -10.208 -10.207
-10.207 -10.207 -10.206 -10.206 -10.206 -10.204 -10.202 -10.202
-10.202 -10.202 -10.200 -10.199 -10.199 -10.198 -10.198 -10.198
-10.197 -10.195 -10.194 -10.194  -1.112  -1.100  -1.023  -1.008
 -0.987  -0.980  -0.971  -0.966  -0.964  -0.964  -0.962  -0.958
 -0.940  -0.935  -0.930  -0.928  -0.927  -0.925  -0.924  -0.921
 -0.920  -0.915  -0.900  -0.898  -0.893  -0.890  -0.886  -0.879
 -0.877  -0.875  -0.856  -0.855  -0.844  -0.841  -0.841  -0.841
 -0.836  -0.835  -0.826  -0.819  -0.811  -0.805  -0.802  -0.800
 -0.796  -0.795  -0.794  -0.794  -0.791  -0.788  -0.788  -0.783
 -0.777  -0.771  -0.769  -0.768  -0.768  -0.768  -0.766  -0.762
 -0.756  -0.750  -0.743  -0.742  -0.736  -0.732  -0.721  -0.717
 -0.715  -0.714  -0.714  -0.714  -0.712  -0.711  -0.709  -0.708
 -0.708  -0.707  -0.706  -0.706  -0.704  -0.703  -0.676  -0.672
 -0.662  -0.661  -0.657  -0.655  -0.651  -0.646  -0.636  -0.631
 -0.630  -0.628  -0.627  -0.625  -0.622  -0.622  -0.620  -0.619
 -0.618  -0.617  -0.616  -0.614  -0.614  -0.611  -0.610  -0.609
 -0.608  -0.606  -0.606  -0.601  -0.568  -0.568  -0.565  -0.563
 -0.562  -0.561  -0.561  -0.560  -0.557  -0.557  -0.555  -0.552
 -0.539  -0.538  -0.536  -0.532  -0.530  -0.528  -0.526  -0.526
 -0.525  -0.522  -0.521  -0.518  -0.517  -0.517  -0.516  -0.514
 -0.513  -0.507  -0.503  -0.502  -0.497  -0.491  -0.491  -0.487
 -0.486  -0.484  -0.484  -0.483  -0.480  -0.479  -0.478  -0.475
 -0.475  -0.474  -0.473  -0.472  -0.471  -0.469  -0.468  -0.467
 -0.466  -0.465  -0.464  -0.463  -0.462  -0.461  -0.460  -0.459
 -0.459  -0.458  -0.455  -0.452  -0.451  -0.450  -0.448  -0.445
 -0.444  -0.442  -0.441  -0.440  -0.440  -0.438  -0.435  -0.433
 -0.432  -0.431  -0.429  -0.429  -0.427  -0.426  -0.425  -0.425
 -0.423  -0.423  -0.422  -0.422  -0.421  -0.420  -0.420  -0.419
 -0.419  -0.419  -0.417  -0.416  -0.415  -0.415  -0.414  -0.412
 -0.412  -0.411  -0.409  -0.407  -0.407  -0.406  -0.401  -0.396
 -0.396  -0.393  -0.392  -0.391  -0.391  -0.389  -0.388  -0.386
 -0.385  -0.376  -0.375  -0.372  -0.371  -0.370  -0.369  -0.367
 -0.366  -0.365  -0.364  -0.363  -0.362  -0.360  -0.359  -0.359
 -0.357  -0.356  -0.356  -0.354  -0.354  -0.353  -0.352  -0.352
 -0.350  -0.350  -0.349  -0.348  -0.347  -0.346  -0.345  -0.345
 -0.344  -0.343  -0.341  -0.341  -0.340  -0.339  -0.337  -0.336
 -0.334  -0.333  -0.331  -0.331  -0.330  -0.326  -0.325  -0.324
 -0.312  -0.307  -0.304  -0.296  -0.291  -0.284  -0.274  -0.272
 -0.271  -0.270  -0.269  -0.268  -0.267  -0.266  -0.266  -0.265
 -0.263  -0.262  -0.261  -0.260  -0.259  -0.258  -0.256  -0.254
 -0.251  -0.246  -0.243  -0.243  -0.226  -0.221  -0.214  -0.213
 -0.211  -0.211  -0.208  -0.206  -0.200  -0.197

          Ground-State Mulliken Net Atomic Charges

     Atom                 Charge (a.u.)
  ----------------------------------------
      1 O                    -0.463931
      2 C                    -0.087262
      3 H                     0.130333
      4 H                     0.130392
      5 H                     0.117182
      6 O                    -0.446936
      7 C                     0.569367
      8 C                    -0.236274
      9 H                     0.123448
     10 H                     0.130188
     11 C                    -0.206104
     12 H                     0.134661
     13 H                     0.115787
     14 C                    -0.173482
     15 H                     0.115024
     16 H                     0.106522
     17 C                     0.001794
     18 C                     0.109750
     19 C                    -0.114642
     20 H                     0.085016
     21 C                    -0.081844
     22 H                     0.095259
     23 C                    -0.076136
     24 H                     0.090823
     25 C                    -0.089475
     26 H                     0.091933
     27 C                    -0.121659
     28 H                     0.083490
     29 C                     0.009749
     30 C                    -0.010098
     31 C                     0.010867
     32 C                     0.001627
     33 C                    -0.005792
     34 C                    -0.003640
     35 C                     0.016020
     36 C                     0.015469
     37 C                     0.021100
     38 C                    -0.034265
     39 C                    -0.079403
     40 C                     0.008382
     41 C                     0.015338
     42 C                    -0.014385
     43 C                    -0.003031
     44 C                     0.030805
     45 C                    -0.080191
     46 C                     0.036109
     47 C                    -0.022287
     48 C                    -0.023638
     49 C                    -0.000613
     50 C                    -0.004659
     51 C                    -0.005332
     52 C                    -0.001918
     53 C                     0.021159
     54 C                     0.022722
     55 C                    -0.013258
     56 C                     0.010022
     57 C                    -0.025889
     58 C                     0.004368
     59 C                    -0.013856
     60 C                    -0.009024
     61 C                    -0.005370
     62 C                    -0.000322
     63 C                     0.014064
     64 C                    -0.010523
     65 C                    -0.010830
     66 C                    -0.021347
     67 C                     0.018527
     68 C                    -0.005006
     69 C                    -0.000011
     70 C                     0.025276
     71 C                    -0.006823
     72 C                     0.011708
     73 C                    -0.004355
     74 C                    -0.005288
     75 C                     0.010364
     76 C                     0.018702
     77 C                    -0.024210
     78 C                     0.005672
     79 C                     0.007548
     80 C                    -0.005554
     81 C                     0.013872
     82 C                     0.022519
     83 C                    -0.038790
     84 C                     0.004312
     85 C                     0.003814
     86 C                     0.012370
     87 C                    -0.029426
     88 C                     0.001286
     89 O                    -0.448258
     90 C                    -0.096547
     91 H                     0.121324
     92 H                     0.137983
     93 H                     0.124460
     94 O                    -0.473291
     95 C                     0.599711
     96 C                    -0.258225
     97 H                     0.123804
     98 H                     0.133447
     99 C                    -0.206211
    100 H                     0.110014
    101 H                     0.118873
    102 C                    -0.182929
    103 H                     0.111223
    104 H                     0.115251
    105 C                     0.044273
    106 C                     0.083270
    107 C                    -0.115636
    108 H                     0.092051
    109 C                    -0.078342
    110 H                     0.096233
    111 C                    -0.090756
    112 H                     0.090937
    113 C                    -0.098780
    114 H                     0.089926
    115 C                    -0.100753
    116 H                     0.098407
    117 C                    -0.024269
    118 C                    -0.004723
    119 C                    -0.018564
    120 C                     0.020614
    121 C                    -0.033857
    122 C                    -0.024316
    123 C                    -0.028617
    124 C                    -0.044136
    125 C                     0.001818
    126 C                    -0.015978
    127 C                    -0.100472
    128 C                     0.012494
    129 C                     0.010576
    130 C                    -0.005807
    131 C                     0.025324
    132 C                     0.012751
    133 C                    -0.095725
    134 C                     0.047980
    135 C                     0.015533
    136 C                    -0.006905
    137 C                     0.000094
    138 C                    -0.010106
    139 C                     0.052409
    140 C                    -0.006831
    141 C                     0.024991
    142 C                    -0.012879
    143 C                     0.021781
    144 C                     0.038730
    145 C                    -0.008811
    146 C                     0.006737
    147 C                     0.020062
    148 C                     0.044471
    149 C                    -0.023106
    150 C                    -0.015895
    151 C                    -0.021393
    152 C                     0.003122
    153 C                    -0.006679
    154 C                     0.016681
    155 C                    -0.014854
    156 C                    -0.027339
    157 C                     0.004835
    158 C                     0.014949
    159 C                    -0.024057
    160 C                    -0.010134
    161 C                     0.027875
    162 C                     0.005706
    163 C                     0.008479
    164 C                     0.003408
    165 C                    -0.016315
    166 C                    -0.038596
    167 C                    -0.002140
    168 C                     0.009496
    169 C                    -0.000667
    170 C                     0.004273
    171 C                     0.024260
    172 C                    -0.013357
    173 C                    -0.005315
    174 C                     0.006167
    175 C                     0.012313
    176 C                     0.014601
  ----------------------------------------
  Sum of atomic charges =     0.000000

                    Cartesian Multipole Moments
 -----------------------------------------------------------------
    Charge (ESU x 10^10)
                 0.0000
    Dipole Moment (Debye)
         X      -3.3288      Y      -2.3352      Z      -1.6694
       Tot       4.3956
    Quadrupole Moments (Debye-Ang)
        XX    -833.9056     XY      30.3605     YY    -788.8934
        XZ      -3.0178     YZ       6.9155     ZZ    -795.6496

 Total job time:  852.31s(wall), 7286.35s(cpu)
        *  Thank you very much for using Q-Chem.  Have a nice day.  *
