 Q-Chem 4.4, Q-Chem, Inc., Pleasanton, CA (2016)
 Q-Chem 4.4.2 for Intel X86 Linux

User input:
--------------------------------------------------------------
$comment
SP
$end

$rem
MEM_STATIC 5000
MEM_TOTAL 20000
JOBTYPE SP
EXCHANGE B3LYP
BASIS 6-31g(d,p)
$end

$molecule
0 1
O          10.938000    -20.335000    -10.813000
C          11.036000    -19.019000    -11.342000
H          10.060000    -18.748000    -11.763000
H          11.772000    -18.813000    -12.130000
H          11.304000    -18.210000    -10.651000
O          10.428000    -21.268000    -12.804000
C          10.604000    -21.415000    -11.626000
C          10.421000    -22.684000    -10.825000
H           9.807000    -23.327000    -11.467000
H           9.847000    -22.441000     -9.923000
C          11.830000    -23.340000    -10.402000
H          12.137000    -23.912000    -11.286000
H          12.620000    -22.617000    -10.168000
C          11.611000    -24.414000     -9.287000
H          10.546000    -24.650000     -9.177000
H          12.250000    -25.303000     -9.345000
C          12.049000    -23.781000     -7.925000
C          11.472000    -22.465000     -7.573000
C          10.256000    -22.377000     -6.927000
H           9.735000    -23.309000     -6.729000
C           9.710000    -21.174000     -6.486000
H           8.744000    -21.151000     -5.990000
C          10.331000    -19.939000     -6.719000
H           9.904000    -18.982000     -6.434000
C          11.485000    -19.998000     -7.558000
H          11.915000    -19.094000     -7.979000
C          12.080000    -21.221000     -7.878000
H          12.979000    -21.271000     -8.485000
C          15.887000    -22.909000     -3.964000
C          13.931000    -23.466000     -2.744000
C          15.371000    -27.597000     -1.367000
C          16.859000    -26.461000     -7.467000
C          13.575000    -29.225000     -3.891000
C          14.512000    -22.848000     -3.833000
C          16.048000    -28.886000     -6.383000
C          16.544000    -25.478000     -1.572000
C          11.455000    -25.989000     -4.841000
C          15.636000    -27.011000     -7.847000
C          12.216000    -24.807000     -6.780000
C          11.755000    -26.966000     -5.786000
C          13.843000    -28.196000     -7.175000
C          15.500000    -29.582000     -5.292000
C          12.480000    -23.767000     -4.504000
C          15.843000    -29.146000     -2.973000
C          13.396000    -24.049000     -7.249000
C          14.595000    -24.746000     -7.895000
C          14.462000    -29.126000     -2.741000
C          18.450000    -26.418000     -4.326000
C          17.467000    -27.487000     -2.572000
C          17.559000    -26.151000     -2.228000
C          16.132000    -24.208000     -1.939000
C          15.812000    -24.270000     -7.383000
C          11.785000    -24.671000     -5.342000
C          14.734000    -24.196000     -1.846000
C          15.235000    -28.261000     -7.339000
C          12.735000    -24.093000     -3.146000
C          12.279000    -28.179000     -5.368000
C          17.836000    -24.915000     -6.081000
C          15.439000    -26.227000     -1.105000
C          12.299000    -26.355000     -6.938000
C          17.754000    -24.185000     -3.721000
C          13.257000    -28.899000     -6.110000
C          11.640000    -26.258000     -3.438000
C          17.538000    -28.704000     -4.644000
C          17.331000    -28.409000     -6.041000
C          12.147000    -27.471000     -3.081000
C          16.974000    -25.050000     -7.155000
C          14.538000    -26.163000     -8.001000
C          18.333000    -26.160000     -5.690000
C          14.115000    -23.114000     -6.278000
C          13.097000    -25.972000     -1.641000
C          13.414000    -26.905000     -7.625000
C          12.443000    -28.423000     -4.029000
C          17.531000    -23.939000     -5.095000
C          14.191000    -28.122000     -1.850000
C          16.709000    -23.533000     -3.000000
C          16.416000    -28.189000     -2.147000
C          12.320000    -25.312000     -2.618000
C          13.026000    -27.321000     -2.001000
C          13.619000    -23.049000     -4.936000
C          15.545000    -23.277000     -6.392000
C          18.061000    -27.671000     -3.805000
C          14.316000    -25.384000     -1.220000
C          14.084000    -29.518000     -5.133000
C          17.727000    -27.159000     -6.589000
C          16.396000    -29.377000     -4.226000
C          16.403000    -23.105000     -5.265000
C          18.174000    -25.455000     -3.334000
O          17.228000    -12.091000    -11.460000
C          18.279000    -11.935000    -12.476000
H          18.295000    -12.843000    -13.091000
H          19.331000    -11.860000    -12.172000
H          17.968000    -11.147000    -13.172000
O          18.660000    -11.581000     -9.792000
C          17.517000    -11.772000    -10.187000
C          16.224000    -11.644000     -9.368000
H          15.655000    -10.908000     -9.949000
H          16.523000    -11.179000     -8.420000
C          15.503000    -12.952000     -9.005000
H          16.191000    -13.585000     -8.430000
H          14.773000    -12.682000     -8.232000
C          14.774000    -13.744000    -10.098000
H          13.775000    -13.320000    -10.256000
H          15.322000    -13.563000    -11.031000
C          14.626000    -15.213000     -9.801000
C          13.327000    -15.538000     -8.976000
C          12.109000    -15.666000     -9.656000
H          12.015000    -15.546000    -10.731000
C          10.943000    -15.891000     -8.913000
H           9.948000    -16.013000     -9.329000
C          11.035000    -15.906000     -7.506000
H          10.104000    -16.039000     -6.962000
C          12.292000    -15.902000     -6.859000
H          12.394000    -16.006000     -5.783000
C          13.404000    -15.724000     -7.632000
H          14.364000    -15.485000     -7.184000
C          17.112000    -19.962000     -8.281000
C          15.265000    -20.671000     -9.768000
C          17.839000    -21.948000    -13.357000
C          19.867000    -16.405000    -10.873000
C          17.069000    -18.973000    -15.172000
C          15.825000    -19.781000     -8.813000
C          19.751000    -17.034000    -13.566000
C          18.254000    -22.172000    -10.992000
C          14.329000    -17.916000    -12.444000
C          18.899000    -15.766000    -11.760000
C          14.996000    -16.207000    -10.891000
C          14.993000    -16.874000    -13.210000
C          17.563000    -15.896000    -13.500000
C          19.241000    -17.989000    -14.511000
C          14.388000    -18.625000    -10.138000
C          19.038000    -20.331000    -14.476000
C          15.854000    -16.118000     -9.687000
C          17.269000    -15.773000     -9.942000
C          17.682000    -20.225000    -14.861000
C          20.724000    -19.767000    -10.857000
C          19.968000    -21.281000    -12.398000
C          19.504000    -21.597000    -11.162000
C          17.459000    -21.833000     -9.888000
C          18.142000    -16.503000     -9.173000
C          14.267000    -17.563000    -11.062000
C          16.131000    -21.710000    -10.294000
C          18.907000    -16.014000    -13.111000
C          14.339000    -19.953000    -10.609000
C          15.692000    -17.305000    -14.364000
C          19.966000    -18.070000     -9.297000
C          17.386000    -22.253000    -12.094000
C          15.502000    -15.944000    -12.306000
C          19.200000    -20.373000     -9.047000
C          17.030000    -16.787000    -14.492000
C          14.301000    -19.221000    -12.935000
C          20.663000    -19.097000    -13.161000
C          20.591000    -17.793000    -12.698000
C          15.033000    -19.625000    -14.054000
C          19.455000    -16.848000     -9.563000
C          17.627000    -15.484000    -11.252000
C          20.733000    -18.430000    -10.400000
C          16.032000    -17.325000     -8.778000
C          15.165000    -21.256000    -12.526000
C          16.813000    -15.582000    -12.404000
C          15.747000    -18.623000    -14.745000
C          19.223000    -19.056000     -8.521000
C          16.965000    -21.230000    -14.177000
C          17.953000    -20.959000     -8.869000
C          19.153000    -21.412000    -13.533000
C          14.276000    -20.251000    -11.968000
C          15.650000    -20.848000    -13.795000
C          15.286000    -18.497000     -9.086000
C          17.401000    -17.429000     -8.427000
C          20.724000    -20.131000    -12.220000
C          16.086000    -21.918000    -11.671000
C          17.896000    -17.825000    -14.995000
C          20.602000    -17.459000    -11.341000
C          19.798000    -19.249000    -14.281000
C          17.920000    -18.774000     -8.107000
C          19.979000    -20.746000    -10.172000
$end

--------------------------------------------------------------

             Standard Nuclear Orientation (Angstroms)
    I     Atom           X                Y                Z
 ----------------------------------------------------------------
    1      O      -1.4654898170    -4.0265721735    -3.1013161626
    2      C      -2.8354336044    -4.3028452808    -2.8401108994
    3      H      -3.1183385951    -5.1936619124    -3.4142785536
    4      H      -3.5890139191    -3.5402289265    -3.0759265170
    5      H      -3.1260235727    -4.5057374407    -1.8017572786
    6      O      -1.7862963732    -3.7146298220    -5.3136554500
    7      C      -1.0183904246    -3.7580137898    -4.3924023440
    8      C       0.4872724225    -3.6350268152    -4.4498879509
    9      H       0.7369467729    -3.8165885338    -5.5021745379
   10      H       0.9209295140    -4.4395991413    -3.8443023673
   11      C       0.9989210604    -2.2121979218    -3.8946225989
   12      H       0.8853609313    -1.5332283020    -4.7484336743
   13      H       0.4173291228    -1.8117062814    -3.0562060770
   14      C       2.5382090714    -2.2612712547    -3.6247221968
   15      H       2.9820437154    -3.1632441397    -4.0623027306
   16      H       3.0953399025    -1.3458418844    -3.8562395936
   17      C       2.7457190604    -2.3920712328    -2.0795982631
   18      C       2.0085789724    -3.4711292025    -1.3860945581
   19      C       2.5330473723    -4.7446422380    -1.3035509588
   20      H       3.4824976785    -4.9193701364    -1.8008268155
   21      C       1.9316759631    -5.7737784674    -0.5831086991
   22      H       2.3756209296    -6.7646140375    -0.5538044388
   23      C       0.7031251760    -5.6114465660     0.0722280977
   24      H       0.1852395665    -6.4091597366     0.5964906208
   25      C       0.0549362901    -4.3626427503    -0.1716124199
   26      H      -0.9850978099    -4.2115542944     0.1019901191
   27      C       0.7334867391    -3.3081815946    -0.7879199401
   28      H       0.2587554790    -2.3439955914    -0.9432440589
   29      C       3.6553448607    -0.0976443897     2.9292274840
   30      C       5.1588291475    -1.9306692355     2.8648853200
   31      C       8.9787762639     0.5803838683     2.4940668502
   32      C       4.2707496830     2.8404348752    -1.1721703434
   33      C       9.1336550568     0.0976608499    -0.9685285704
   34      C       3.9314445803    -1.3931794442     2.5331657874
   35      C       6.9724521484     2.7550514294    -1.8100695954
   36      C       6.9643275905     0.9138394136     3.8127476082
   37      C       6.3952731732    -2.7953923204    -0.9583298397
   38      C       4.7085449414     2.0166092055    -2.2076777444
   39      C       4.1944708325    -2.1157423395    -1.6144631802
   40      C       6.5693796752    -1.9617322632    -2.0593529253
   41      C       6.3637914620     0.6795054786    -2.9445431185
   42      C       8.2569990440     2.2754571841    -1.5019630670
   43      C       4.6399749219    -2.7514408438     0.7790458584
   44      C       9.1930154557     1.9222724473     0.6624398111
   45      C       3.1069943919    -1.2219768373    -1.1611385523
   46      C       3.0694396332     0.2583234317    -1.5458810035
   47      C       9.5613281024     0.6142848306     0.3234719824
   48      C       5.7698949376     3.5815526824     1.9265905221
   49      C       7.8138081477     2.6999610491     2.4069872139
   50      C       6.9351772099     2.2209866328     3.3610769286
   51      C       5.8170628601     0.1573974234     3.9827833509
   52      C       2.7680473279     1.0749898009    -0.4449596986
   53      C       4.9980249012    -2.8684608164    -0.5849891625
   54      C       6.1142205775    -1.1328138200     3.5242539206
   55      C       6.0686642740     1.9990708721    -2.5698003865
   56      C       5.6401632372    -2.6971732949     1.7850992203
   57      C       7.6806749671    -1.1357907645    -2.1186185556
   58      C       3.6693533684     2.8592803416     1.0422389055
   59      C       8.0299332970     0.0851224882     3.3910513482
   60      C       5.3177225775    -1.4414750486    -2.4581610752
   61      C       4.4724065904     2.0051673421     3.2182031760
   62      C       7.6456972143     0.1737218141    -2.6748571405
   63      C       7.3889213651    -2.8350824201     0.0838232041
   64      C       7.5666234710     3.6591130840     0.2164984306
   65      C       6.5597750704     3.6680957462    -0.8167772392
   66      C       8.4679259993    -2.0112566741    -0.0298743746
   67      C       3.3098220332     2.3618839178    -0.1979542313
   68      C       4.1440746084     0.7467425969    -2.3389638424
   69      C       4.7953009020     3.6783287960     0.9358585455
   70      C       2.7970820889    -1.1234814770     0.3316038999
   71      C       7.9400585313    -2.0114582789     2.1937391025
   72      C       5.1547975455    -0.0819261365    -2.8360184416
   73      C       8.6211544512    -1.1896855224    -1.1226533479
   74      C       3.5207149654     2.0125366661     2.1730478077
   75      C       9.3292207798    -0.1912211163     1.4063497965
   76      C       4.5613489067     0.6643780803     3.6991849010
   77      C       8.8079600267     1.9121227157     1.9958877102
   78      C       6.9897798863    -2.7430473922     1.4483493613
   79      C       8.8159447647    -1.5052483182     1.2288469936
   80      C       3.6131416488    -1.8882508742     1.2262432484
   81      C       2.6019305924     0.2553571152     0.7126354338
   82      C       7.1377646621     3.5731433763     1.5778317225
   83      C       7.4965657426    -1.2140390316     3.2783508720
   84      C       8.5543614764     0.9356176966    -1.8903426899
   85      C       5.1773699867     3.6898120094    -0.4879846166
   86      C       8.5501310341     2.7798367450    -0.2209978470
   87      C       2.9635158233     0.7241006253     2.0108698667
   88      C       5.6298197302     2.7644994635     3.0669465953
   89      O      -9.5276062391    -1.1991037976     2.8108700980
   90      C     -10.4306001372    -0.0834649173     2.4928372241
   91      H     -10.0686463733     0.3961088031     1.5752624209
   92      H     -10.5041579990     0.7753853471     3.1723300234
   93      H     -11.4039225167    -0.5010344130     2.2093583684
   94      O      -9.2246999914    -0.4517606204     4.9186352606
   95      C      -9.0952850876    -1.3308703655     4.0763925172
   96      C      -8.4883775292    -2.7263301095     4.2845975086
   97      H      -9.3070666125    -3.3835187758     3.9669983245
   98      H      -8.3622761567    -2.8315848304     5.3696550589
   99      C      -7.1083814327    -2.9808481928     3.6574569192
  100      H      -6.3965191473    -2.2522010992     4.0660930649
  101      H      -6.7427558350    -3.9084243797     4.1148947181
  102      C      -6.9810009296    -3.1140177733     2.1345012172
  103      H      -7.2288300570    -4.1387052913     1.8322807446
  104      H      -7.7647895885    -2.4809220209     1.7004285199
  105      C      -5.6149616247    -2.7767058584     1.5976294544
  106      C      -4.6435901542    -4.0136382116     1.5883117502
  107      C      -4.7158941503    -4.9216098530     0.5240431607
  108      H      -5.4174618933    -4.8165556509    -0.2979223597
  109      C      -3.8955580395    -6.0567769241     0.5500121032
  110      H      -3.8598972565    -6.8225067039    -0.2183310577
  111      C      -3.0845739019    -6.2741944746     1.6828723494
  112      H      -2.4951903140    -7.1868777674     1.6875833394
  113      C      -2.9399373396    -5.2784973580     2.6760196279
  114      H      -2.2519480673    -5.3823640151     3.5096133411
  115      C      -3.7305612829    -4.1685409936     2.5829194157
  116      H      -3.8342962479    -3.4841441582     3.4197378122
  117      C      -1.4102501215     0.8756231942     1.4411345144
  118      C      -1.3750834722    -0.2142029700    -0.7806443311
  119      C      -2.9066452582     3.3628934206    -3.2292818927
  120      C      -6.2370612017     2.6360663579     2.1917826766
  121      C      -6.1832430965     1.9754330231    -3.5060674626
  122      C      -1.6297708772    -0.2397499653     0.6165695669
  123      C      -7.2776115538     3.3465487533    -0.2727285793
  124      C      -1.4326205848     3.3056626758    -1.3215078222
  125      C      -4.9460410520    -1.4843186984    -1.9041055007
  126      C      -7.0839435445     1.7196432436     1.4334470167
  127      C      -5.5240688267    -1.8419201181     0.4014061814
  128      C      -6.3380358680    -1.0966626196    -1.7444521357
  129      C      -7.7478527522     0.9362430949    -0.5094643994
  130      C      -6.9745259348     3.4388976535    -1.6744278296
  131      C      -3.0565282646    -1.6740546657    -0.4149649134
  132      C      -5.0568520173     4.1019227230    -2.8619978289
  133      C      -5.0519011627    -1.3596522374     1.7198053578
  134      C      -5.7296816686    -0.1490401062     2.2309871784
  135      C      -5.1190880014     2.9194576613    -3.6340729938
  136      C      -3.7116910392     4.6349530000     0.9015475297
  137      C      -3.2655381376     4.8382318066    -1.3340817587
  138      C      -2.2140197325     4.2644958421    -0.6953454383
  139      C      -0.9181658111     2.2220410939    -0.5956548392
  140      C      -4.8617342205     0.7402572503     2.8159721688
  141      C      -4.4140750528    -1.9699655395    -0.6714107610
  142      C      -1.0111453848     1.0632919675    -1.3652029280
  143      C      -7.6715942530     2.1113521114     0.2553129803
  144      C      -2.2656557537    -1.1314349460    -1.4483624706
  145      C      -6.7910275630    -0.0555047100    -2.5911319638
  146      C      -4.0184696862     2.9901676708     2.6589720893
  147      C      -1.8502019702     2.7892271389    -2.5597764210
  148      C      -6.6448481691    -1.1718742465    -0.3874678236
  149      C      -1.9053381869     3.0825002235     1.4427422729
  150      C      -7.5187033644     0.9946493004    -1.9258376811
  151      C      -4.1888335962    -0.9267266218    -2.9339685717
  152      C      -5.5686978949     4.8366712623    -0.6057255977
  153      C      -6.3232625345     4.1950080564     0.3632272055
  154      C      -4.6489520302     0.1268393117    -3.7273731661
  155      C      -5.0511445945     2.1396348914     2.8469548676
  156      C      -6.7834841234     0.3546884218     1.4802921962
  157      C      -4.5105978459     4.0558847996     1.9129460335
  158      C      -3.5981568774    -0.9559763547     1.9159872494
  159      C      -2.4911674892     0.5088564780    -3.2686818111
  160      C      -7.2263104192    -0.0957789791     0.2152672983
  161      C      -5.9747272514     0.5580321034    -3.5090297686
  162      C      -2.6508842878     2.5083874877     2.5039913379
  163      C      -3.7944451136     2.4881667345    -3.8605224502
  164      C      -1.1111042055     2.1286551039     0.8186742713
  165      C      -3.6721100295     4.3951989105    -2.6021638340
  166      C      -2.8053826467    -0.7840196587    -2.6843444684
  167      C      -3.6387069299     1.0752209406    -3.8805923663
  168      C      -2.7106991806    -1.1367266252     0.8183934374
  169      C      -3.5595717539     0.2449265571     2.6673336306
  170      C      -4.2126922259     5.0643503208    -0.3454010465
  171      C      -1.6360657333     1.3980853855    -2.5647052937
  172      C      -7.1422256181     2.2667743961    -2.4918511505
  173      C      -5.8038942769     3.7878192727     1.5951281380
  174      C      -5.9408488745     4.3527709956    -1.8914445328
  175      C      -2.3993157503     1.1358239648     2.4651114384
  176      C      -2.4020622145     4.1686109421     0.6777430916
 ----------------------------------------------------------------

    9   -5804.2908517900      8.94E-06 Convergence criterion met
 Total energy in the final basis set = -5804.2908517900

                    Orbital Energies (a.u.)
 --------------------------------------------------------------

 Alpha MOs
 -- Occupied --
-19.201 -19.179 -19.134 -19.134 -10.318 -10.313 -10.249 -10.243
-10.243 -10.242 -10.240 -10.237 -10.235 -10.234 -10.233 -10.231
-10.231 -10.231 -10.231 -10.230 -10.230 -10.229 -10.229 -10.229
-10.228 -10.227 -10.226 -10.226 -10.226 -10.226 -10.225 -10.224
-10.224 -10.224 -10.223 -10.223 -10.223 -10.223 -10.222 -10.222
-10.222 -10.222 -10.221 -10.221 -10.221 -10.221 -10.221 -10.221
-10.221 -10.220 -10.220 -10.220 -10.220 -10.219 -10.219 -10.219
-10.219 -10.219 -10.219 -10.219 -10.219 -10.218 -10.218 -10.218
-10.218 -10.218 -10.218 -10.218 -10.218 -10.218 -10.217 -10.217
-10.217 -10.217 -10.217 -10.217 -10.217 -10.216 -10.216 -10.216
-10.216 -10.216 -10.215 -10.215 -10.215 -10.215 -10.215 -10.215
-10.215 -10.215 -10.214 -10.214 -10.214 -10.214 -10.214 -10.214
-10.213 -10.213 -10.213 -10.213 -10.213 -10.213 -10.213 -10.213
-10.212 -10.212 -10.212 -10.212 -10.212 -10.212 -10.212 -10.211
-10.211 -10.211 -10.211 -10.211 -10.211 -10.211 -10.211 -10.210
-10.210 -10.210 -10.210 -10.210 -10.210 -10.209 -10.209 -10.209
-10.209 -10.209 -10.208 -10.208 -10.208 -10.207 -10.207 -10.206
-10.206 -10.205 -10.205 -10.204 -10.202 -10.199 -10.198 -10.197
-10.193 -10.192 -10.189 -10.188  -1.099  -1.086  -1.007  -1.006
 -0.985  -0.982  -0.970  -0.964  -0.962  -0.960  -0.959  -0.958
 -0.938  -0.932  -0.931  -0.925  -0.925  -0.924  -0.922  -0.920
 -0.920  -0.917  -0.900  -0.895  -0.891  -0.888  -0.885  -0.880
 -0.878  -0.870  -0.864  -0.848  -0.844  -0.843  -0.840  -0.837
 -0.836  -0.834  -0.825  -0.822  -0.810  -0.803  -0.800  -0.799
 -0.797  -0.795  -0.794  -0.793  -0.791  -0.788  -0.784  -0.781
 -0.773  -0.771  -0.769  -0.769  -0.768  -0.768  -0.765  -0.764
 -0.760  -0.749  -0.741  -0.740  -0.738  -0.733  -0.719  -0.718
 -0.717  -0.713  -0.713  -0.712  -0.712  -0.711  -0.710  -0.710
 -0.709  -0.707  -0.706  -0.706  -0.702  -0.696  -0.675  -0.671
 -0.661  -0.658  -0.656  -0.655  -0.652  -0.650  -0.635  -0.631
 -0.629  -0.628  -0.628  -0.626  -0.625  -0.623  -0.621  -0.620
 -0.617  -0.616  -0.614  -0.613  -0.612  -0.612  -0.609  -0.609
 -0.606  -0.604  -0.601  -0.600  -0.574  -0.568  -0.564  -0.563
 -0.562  -0.561  -0.559  -0.558  -0.557  -0.556  -0.552  -0.551
 -0.543  -0.537  -0.535  -0.533  -0.530  -0.530  -0.526  -0.524
 -0.524  -0.523  -0.519  -0.519  -0.516  -0.516  -0.514  -0.511
 -0.511  -0.503  -0.501  -0.496  -0.494  -0.490  -0.488  -0.488
 -0.484  -0.483  -0.483  -0.482  -0.479  -0.478  -0.476  -0.475
 -0.474  -0.472  -0.471  -0.470  -0.469  -0.468  -0.465  -0.465
 -0.464  -0.463  -0.463  -0.462  -0.461  -0.461  -0.460  -0.459
 -0.457  -0.454  -0.453  -0.453  -0.451  -0.449  -0.445  -0.442
 -0.442  -0.441  -0.441  -0.439  -0.438  -0.437  -0.437  -0.435
 -0.433  -0.432  -0.431  -0.430  -0.429  -0.428  -0.426  -0.425
 -0.424  -0.422  -0.421  -0.420  -0.420  -0.419  -0.418  -0.416
 -0.416  -0.416  -0.415  -0.415  -0.414  -0.414  -0.413  -0.413
 -0.412  -0.411  -0.409  -0.408  -0.405  -0.403  -0.400  -0.398
 -0.395  -0.394  -0.394  -0.391  -0.390  -0.389  -0.389  -0.386
 -0.384  -0.382  -0.381  -0.374  -0.373  -0.371  -0.369  -0.367
 -0.366  -0.365  -0.364  -0.364  -0.363  -0.363  -0.362  -0.359
 -0.359  -0.358  -0.358  -0.356  -0.356  -0.354  -0.352  -0.352
 -0.351  -0.351  -0.348  -0.348  -0.345  -0.344  -0.344  -0.343
 -0.342  -0.340  -0.339  -0.338  -0.337  -0.336  -0.335  -0.335
 -0.334  -0.332  -0.330  -0.330  -0.329  -0.327  -0.326  -0.324
 -0.310  -0.301  -0.298  -0.292  -0.291  -0.290  -0.277  -0.271
 -0.271  -0.270  -0.268  -0.268  -0.267  -0.267  -0.265  -0.264
 -0.263  -0.263  -0.262  -0.261  -0.261  -0.259  -0.256  -0.255
 -0.253  -0.246  -0.244  -0.241  -0.227  -0.225  -0.216  -0.213
 -0.212  -0.211  -0.208  -0.203  -0.202  -0.197

          Ground-State Mulliken Net Atomic Charges

     Atom                 Charge (a.u.)
  ----------------------------------------
      1 O                    -0.468508
      2 C                    -0.091414
      3 H                     0.106765
      4 H                     0.114313
      5 H                     0.119077
      6 O                    -0.451491
      7 C                     0.579026
      8 C                    -0.253845
      9 H                     0.131904
     10 H                     0.140974
     11 C                    -0.196675
     12 H                     0.117444
     13 H                     0.128328
     14 C                    -0.164230
     15 H                     0.117180
     16 H                     0.110349
     17 C                    -0.016451
     18 C                     0.100935
     19 C                    -0.117122
     20 H                     0.079958
     21 C                    -0.092918
     22 H                     0.083798
     23 C                    -0.090932
     24 H                     0.087501
     25 C                    -0.097501
     26 H                     0.099395
     27 C                    -0.083772
     28 H                     0.080178
     29 C                     0.008433
     30 C                    -0.009010
     31 C                    -0.011315
     32 C                    -0.013233
     33 C                    -0.000698
     34 C                     0.001734
     35 C                     0.024126
     36 C                     0.019194
     37 C                    -0.009141
     38 C                    -0.004819
     39 C                    -0.089199
     40 C                     0.033414
     41 C                    -0.018316
     42 C                    -0.012987
     43 C                     0.025974
     44 C                     0.000090
     45 C                    -0.057677
     46 C                     0.009058
     47 C                    -0.027581
     48 C                     0.022957
     49 C                     0.040080
     50 C                    -0.023608
     51 C                     0.012511
     52 C                     0.018007
     53 C                     0.012495
     54 C                     0.012045
     55 C                     0.005015
     56 C                    -0.013011
     57 C                    -0.009243
     58 C                     0.016635
     59 C                    -0.007895
     60 C                     0.003073
     61 C                    -0.006505
     62 C                    -0.026811
     63 C                    -0.022624
     64 C                    -0.028029
     65 C                    -0.009198
     66 C                     0.009270
     67 C                    -0.000536
     68 C                     0.024629
     69 C                    -0.016788
     70 C                     0.007243
     71 C                    -0.029536
     72 C                    -0.004938
     73 C                     0.019574
     74 C                    -0.006557
     75 C                     0.026667
     76 C                    -0.017402
     77 C                     0.000073
     78 C                     0.008358
     79 C                     0.021533
     80 C                     0.010076
     81 C                    -0.009051
     82 C                    -0.003860
     83 C                    -0.014639
     84 C                    -0.001711
     85 C                    -0.021534
     86 C                     0.018966
     87 C                     0.004026
     88 C                    -0.011350
     89 O                    -0.451376
     90 C                    -0.108599
     91 H                     0.123891
     92 H                     0.156596
     93 H                     0.126594
     94 O                    -0.472813
     95 C                     0.582167
     96 C                    -0.249819
     97 H                     0.125366
     98 H                     0.131807
     99 C                    -0.193894
    100 H                     0.115322
    101 H                     0.110731
    102 C                    -0.195164
    103 H                     0.111595
    104 H                     0.130541
    105 C                     0.013714
    106 C                     0.089308
    107 C                    -0.115579
    108 H                     0.096700
    109 C                    -0.089210
    110 H                     0.099778
    111 C                    -0.093298
    112 H                     0.089355
    113 C                    -0.092088
    114 H                     0.100269
    115 C                    -0.097452
    116 H                     0.093335
    117 C                    -0.020597
    118 C                    -0.045090
    119 C                    -0.014416
    120 C                    -0.038685
    121 C                    -0.010548
    122 C                     0.019071
    123 C                    -0.020705
    124 C                    -0.014619
    125 C                    -0.000573
    126 C                    -0.018638
    127 C                    -0.092450
    128 C                    -0.006201
    129 C                    -0.014679
    130 C                    -0.000751
    131 C                    -0.000896
    132 C                     0.014980
    133 C                    -0.086269
    134 C                     0.039478
    135 C                     0.007292
    136 C                    -0.012326
    137 C                     0.024511
    138 C                     0.022016
    139 C                     0.001337
    140 C                     0.032941
    141 C                     0.028666
    142 C                    -0.008733
    143 C                    -0.002394
    144 C                     0.035374
    145 C                     0.002783
    146 C                     0.022386
    147 C                     0.008115
    148 C                     0.006748
    149 C                     0.007728
    150 C                    -0.030733
    151 C                     0.018116
    152 C                    -0.013009
    153 C                     0.021271
    154 C                    -0.005900
    155 C                    -0.012027
    156 C                     0.035149
    157 C                    -0.004213
    158 C                     0.001561
    159 C                    -0.029924
    160 C                     0.031910
    161 C                     0.001867
    162 C                    -0.006383
    163 C                     0.003354
    164 C                     0.002675
    165 C                    -0.023018
    166 C                    -0.020653
    167 C                     0.021481
    168 C                     0.032199
    169 C                    -0.012315
    170 C                    -0.015236
    171 C                     0.020255
    172 C                    -0.006633
    173 C                     0.029365
    174 C                     0.016137
    175 C                    -0.013252
    176 C                     0.006609
  ----------------------------------------
  Sum of atomic charges =     0.000000

                    Cartesian Multipole Moments
 -----------------------------------------------------------------
    Charge (ESU x 10^10)
                 0.0000
    Dipole Moment (Debye)
         X      -2.4887      Y      -3.8030      Z       0.5216
       Tot       4.5748
    Quadrupole Moments (Debye-Ang)
        XX    -799.9141     XY      13.3507     YY    -783.7489
        XZ      -1.9024     YZ     -14.1018     ZZ    -833.4089

 Total job time:  863.92s(wall), 7475.43s(cpu)
        *  Thank you very much for using Q-Chem.  Have a nice day.  *
