 Q-Chem 4.4, Q-Chem, Inc., Pleasanton, CA (2016)
 Q-Chem 4.4.2 for Intel X86 Linux

User input:
--------------------------------------------------------------
$comment
SP
$end

$rem
MEM_STATIC 5000
MEM_TOTAL 20000
JOBTYPE SP
EXCHANGE B3LYP
BASIS 6-31g(d,p)
$end

$molecule
0 1
O          11.773000      9.361000      7.158000
C          11.800000      9.509000      8.616000
H          11.075000      8.934000      9.205000
H          11.653000     10.578000      8.813000
H          12.833000      9.424000      8.975000
O           9.554000      9.301000      7.004000
C          10.623000      9.264000      6.492000
C          10.847000      9.002000      4.916000
H          11.870000      8.683000      4.682000
H          10.638000      9.998000      4.506000
C           9.848000      8.011000      4.332000
H           9.819000      7.006000      4.771000
H           8.873000      8.436000      4.600000
C           9.937000      7.814000      2.828000
H          10.017000      8.808000      2.371000
H          10.897000      7.381000      2.521000
C           8.651000      7.260000      2.073000
C           7.541000      8.243000      1.991000
C           7.572000      9.211000      1.002000
H           8.336000      9.106000      0.238000
C           6.533000     10.150000      0.915000
H           6.552000     11.012000      0.254000
C           5.626000     10.229000      1.962000
H           4.981000     11.099000      2.048000
C           5.547000      9.220000      2.891000
H           4.719000      9.230000      3.594000
C           6.474000      8.201000      2.927000
H           6.505000      7.394000      3.654000
C           5.176000      3.295000      1.238000
C           5.358000      4.445000     -0.920000
C           7.655000      1.185000     -3.230000
C           9.826000      1.976000      2.748000
C          10.721000      2.806000     -2.766000
C           5.318000      4.446000      0.462000
C          11.395000      1.451000      0.522000
C           5.807000      1.063000     -1.565000
C           8.874000      6.205000     -1.484000
C          10.694000      2.979000      2.276000
C           8.919000      6.431000      0.816000
C          10.175000      5.822000     -1.080000
C          11.601000      3.969000      0.441000
C          11.394000      1.481000     -0.900000
C           6.773000      6.036000     -0.304000
C           9.688000      0.656000     -2.413000
C           8.294000      5.805000      2.074000
C           9.079000      4.710000      2.728000
C           9.855000      1.793000     -3.211000
C           7.798000     -0.306000      1.019000
C           7.809000     -0.360000     -1.297000
C           6.507000      0.004000     -0.863000
C           5.115000      2.016000     -0.895000
C           8.136000      3.722000      3.196000
C           8.083000      6.441000     -0.386000
C           5.263000      3.228000     -1.575000
C          11.520000      2.734000      1.179000
C           6.149000      5.478000     -1.415000
C          10.884000      4.822000     -1.757000
C           7.681000      1.333000      2.795000
C           6.384000      1.627000     -2.750000
C          10.172000      5.938000      0.325000
C           5.854000      1.084000      1.200000
C          11.653000      3.879000     -0.978000
C           8.297000      5.553000     -2.614000
C           9.974000     -0.134000     -0.142000
C          10.540000      0.510000      0.973000
C           9.039000      4.516000     -3.217000
C           8.580000      2.367000      3.215000
C          10.268000      4.306000      2.214000
C           8.388000      0.257000      2.168000
C           6.947000      5.355000      2.085000
C           6.899000      3.931000     -3.229000
C          10.792000      4.910000      1.075000
C          10.315000      4.163000     -2.794000
C           6.412000      1.684000      2.360000
C           8.600000      2.133000     -3.684000
C           5.083000      2.041000      0.518000
C           8.352000      0.256000     -2.472000
C           6.983000      5.158000     -2.539000
C           8.186000      3.505000     -3.660000
C           6.190000      5.509000      0.833000
C           6.857000      4.053000      2.738000
C           8.606000     -0.478000     -0.120000
C           6.075000      2.979000     -2.629000
C          11.549000      2.627000     -1.647000
C           9.700000      0.728000      2.103000
C          10.530000      0.480000     -1.279000
C           6.006000      3.037000      2.328000
C           6.514000      0.009000      0.547000
O          14.318000      0.247000     -1.420000
C          14.717000      0.737000     -0.086000
H          15.807000      0.832000     -0.006000
H          14.348000      0.128000      0.748000
H          14.285000      1.745000     -0.049000
O          15.354000      2.008000     -2.472000
C          14.803000      0.931000     -2.510000
C          14.493000      0.138000     -3.749000
H          15.144000     -0.742000     -3.825000
H          14.932000      0.657000     -4.610000
C          12.993000     -0.319000     -3.976000
H          12.544000     -0.860000     -3.133000
H          12.331000      0.535000     -4.169000
C          12.983000     -1.261000     -5.192000
H          13.500000     -0.743000     -6.009000
H          13.630000     -2.103000     -4.917000
C          11.668000     -1.818000     -5.777000
C          11.248000     -3.046000     -5.008000
C          10.319000     -2.923000     -3.937000
H           9.949000     -1.952000     -3.621000
C           9.816000     -4.048000     -3.279000
H           9.053000     -3.901000     -2.520000
C          10.373000     -5.316000     -3.526000
H          10.140000     -6.226000     -2.981000
C          11.161000     -5.488000     -4.617000
H          11.483000     -6.485000     -4.902000
C          11.683000     -4.395000     -5.271000
H          12.437000     -4.560000     -6.036000
C           9.183000     -3.639000    -10.305000
C           7.276000     -2.938000     -8.882000
C           6.252000      0.759000    -11.320000
C          12.500000      0.074000    -10.808000
C           7.855000      2.898000     -9.194000
C           8.549000     -3.486000     -9.076000
C          11.085000      2.552000    -10.771000
C           6.876000     -1.508000    -12.081000
C           8.402000      0.044000     -6.434000
C          12.427000      0.816000     -9.622000
C          10.596000     -0.927000     -6.445000
C           9.303000      1.102000     -6.549000
C          11.111000      2.189000     -8.341000
C           9.876000      3.138000    -10.649000
C           8.535000     -2.207000     -7.152000
C           7.679000      2.451000    -11.588000
C          11.438000     -1.824000     -7.301000
C          12.230000     -1.164000     -8.314000
C           7.074000      2.544000    -10.303000
C          10.021000     -0.496000    -13.228000
C           8.025000      0.446000    -12.862000
C           7.880000     -0.904000    -12.885000
C           7.178000     -2.624000    -11.283000
C          12.214000     -1.863000     -9.506000
C           9.132000     -1.153000     -6.378000
C           6.541000     -2.489000    -10.051000
C          11.736000      2.041000     -9.594000
C           7.276000     -2.125000     -7.752000
C           8.936000      2.286000     -7.259000
C          11.598000     -1.697000    -11.874000
C           6.090000     -0.660000    -11.246000
C          10.622000      0.593000     -6.589000
C           9.400000     -2.699000    -12.357000
C           9.875000      2.817000     -8.159000
C           7.093000      0.165000     -7.021000
C           9.884000      1.866000    -12.501000
C          11.123000      1.748000    -11.958000
C           6.694000      1.310000     -7.773000
C          12.411000     -1.263000    -10.774000
C          12.254000      0.212000     -8.372000
C          11.289000     -0.521000    -12.593000
C          10.763000     -2.898000     -8.102000
C           5.858000     -0.508000     -8.876000
C          11.440000      1.099000     -7.601000
C           7.664000      2.309000     -7.934000
C          10.672000     -2.743000    -11.743000
C           6.132000      1.523000    -10.182000
C           8.479000     -3.181000    -11.441000
C           7.190000      1.294000    -12.162000
C           6.525000     -0.930000     -7.738000
C           5.927000      0.892000     -8.931000
C           9.311000     -3.063000     -7.970000
C          11.301000     -2.921000     -9.422000
C           9.352000      0.737000    -13.132000
C           5.876000     -1.260000    -10.044000
C           9.204000      3.203000     -9.341000
C          11.857000      0.546000    -11.963000
C           9.109000      2.666000    -11.724000
C          10.539000     -3.316000    -10.488000
C           9.097000     -1.536000    -13.154000
$end

--------------------------------------------------------------

             Standard Nuclear Orientation (Angstroms)
    I     Atom           X                Y                Z
 ----------------------------------------------------------------
    1      O     -13.1056860057    -0.7794411419     3.3510896910
    2      C     -14.4594643843    -1.2724233820     3.0815537700
    3      H     -14.7404005288    -1.4600163479     2.0379759043
    4      H     -15.1419122083    -0.5263956890     3.5068614807
    5      H     -14.6906635738    -2.1018647375     3.7610896208
    6      O     -13.0391736527     0.5907831163     1.5991368980
    7      C     -12.5234442230     0.1178775340     2.5565592006
    8      C     -11.0010426989     0.4265634676     2.9919930004
    9      H     -10.5999189720    -0.3224217890     3.6856549074
   10      H     -11.1167604180     1.4008970584     3.4829924539
   11      C     -10.0643833988     0.5850380972     1.8009039411
   12      H      -9.9804563473    -0.2621470241     1.1089352856
   13      H     -10.5431827469     1.3641795788     1.1952937234
   14      C      -8.6419309929     0.9919956689     2.1469685131
   15      H      -8.7025801044     1.8077235470     2.8778547656
   16      H      -8.1256476177     0.2319523488     2.7462377581
   17      C      -7.7724577984     1.6932890713     1.0142986901
   18      C      -8.2108119995     3.0769047450     0.7003460475
   19      C      -7.7923672842     4.1155832019     1.5140763982
   20      H      -7.0359087493     3.8814992552     2.2566342685
   21      C      -8.2025201221     5.4277342232     1.2332822624
   22      H      -8.0239698610     6.2707728104     1.8948952496
   23      C      -9.2025438360     5.6187292416     0.2906410398
   24      H      -9.7154934858     6.5750725431     0.2395416622
   25      C      -9.5509331981     4.6048799245    -0.5684849199
   26      H     -10.2117834691     4.8368132957    -1.3987721177
   27      C      -9.0631447737     3.3261319774    -0.4076989103
   28      H      -9.3235307832     2.4642893756    -1.0161111520
   29      C      -5.3258007474     1.4141200092    -3.7217343450
   30      C      -3.9556153323     2.9496383608    -2.3885564422
   31      C      -0.2863304755     0.2274388012    -1.7836703394
   32      C      -5.8330688091    -2.9210748723    -1.1544156166
   33      C      -1.3224463290    -0.7083360558     1.4247689003
   34      C      -5.1762585277     2.4265418381    -2.7731669172
   35      C      -3.5549566609    -3.3538478565     0.3672198799
   36      C      -1.7780819407     0.6078299500    -3.7412691594
   37      C      -4.1309642747     2.2432694302     1.5163440280
   38      C      -5.8501156225    -2.5727529789     0.2096218700
   39      C      -6.2629382806     1.4589888760     1.0889193558
   40      C      -4.2500404830     1.0280778236     2.2316315337
   41      C      -4.6576755258    -1.7165091273     1.9459706490
   42      C      -2.3154152876    -2.7686301634     0.7467491089
   43      C      -5.1841501290     2.9376822801    -0.5436929499
   44      C      -0.6687699716    -1.6973608578    -0.6749299259
   45      C      -7.1053307952     0.9101517291    -0.0747892149
   46      C      -7.1329162397    -0.5795247823    -0.2266738243
   47      C      -0.4921554650    -0.7010492332     0.2913166590
   48      C      -3.3255052785    -2.5695507820    -3.5830582321
   49      C      -1.2577865231    -1.6947909606    -3.0118950300
   50      C      -1.8686346987    -0.8244149720    -3.9528339997
   51      C      -2.8469700009     1.4181947997    -3.9329984607
   52      C      -7.1226850096    -0.8703094088    -1.6408013373
   53      C      -5.2446292850     2.4513478339     0.7395334831
   54      C      -2.8104642030     2.4308141543    -2.9704407381
   55      C      -4.7315661488    -2.8087129346     1.0089215472
   56      C      -3.9698628597     3.3745595931    -1.0630248680
   57      C      -3.1521496615     0.1778416449     2.4125850764
   58      C      -5.6665700581    -2.0762889607    -3.2220949750
   59      C      -0.9730235949     1.1143131403    -2.6686061938
   60      C      -5.5433734203     0.5523799540     1.9341564080
   61      C      -4.2236003456    -0.5029877605    -4.3995994302
   62      C      -3.3620648719    -1.2472084480     2.3002514783
   63      C      -2.8536923944     2.5944759690     0.9870392851
   64      C      -2.2871863185    -3.3150791004    -1.4667968437
   65      C      -3.5479576913    -3.6591405252    -0.9468023424
   66      C      -1.8022072779     1.6693783557     1.1547159253
   67      C      -6.4832384800    -2.0793097150    -2.0444700076
   68      C      -6.4377045633    -1.3768959617     0.6230396140
   69      C      -4.5771372234    -2.9973723225    -3.0976138955
   70      C      -6.9627356826     1.4162348889    -1.3940983028
   71      C      -1.6107261080     2.5743842816    -0.8617830793
   72      C      -5.6943244654    -0.8289125575     1.6641031177
   73      C      -1.9532290832     0.4824833115     1.8619546179
   74      C      -5.5037214616    -0.8902689444    -3.9218262489
   75      C      -0.2900212097     0.4839624074    -0.3936965922
   76      C      -4.1058697900     0.8944294433    -4.3059048465
   77      C      -0.4874718707    -1.1358444644    -1.9399229451
   78      C      -2.7919163577     3.0928937731    -0.2920265513
   79      C      -0.9740485314     1.6693352996     0.0321598739
   80      C      -5.9645394582     2.4793174923    -1.5883370118
   81      C      -6.9306002690     0.3171727324    -2.3536516839
   82      C      -2.2050195619    -2.7277272566    -2.7468399819
   83      C      -1.7285602318     2.1835702618    -2.1954470254
   84      C      -2.1885200565    -1.7790578679     1.6954293882
   85      C      -4.6835289141    -3.4463058019    -1.7805909119
   86      C      -1.5488630145    -2.7804898544    -0.3953520076
   87      C      -6.1290981322     0.2993877685    -3.4858332152
   88      C      -3.1137790554    -1.3844697226    -4.3051523319
   89      O      -1.1487103033    -5.1899070032     2.5128606413
   90      C      -2.5375306970    -5.6250405401     2.7592215944
   91      H      -2.6048308811    -6.2548024155     3.6549870020
   92      H      -3.0028561568    -6.1498178002     1.9162037751
   93      H      -3.0627705104    -4.6840401762     2.9658576357
   94      O      -1.0032070905    -4.1928244431     4.5782361963
   95      C      -0.4878340318    -4.5826417383     3.5548071139
   96      C       0.9635159513    -4.4475945371     3.1868186903
   97      H       1.4726116565    -5.4184281589     3.2345747568
   98      H       1.4980096298    -4.0165627305     4.0423484031
   99      C       1.3125095615    -3.7588184735     1.8032837272
  100      H       0.8037836389    -4.1917458078     0.9322482177
  101      H       1.0523070958    -2.6924698513     1.8012117944
  102      C       2.8267704833    -3.9178647204     1.5845643814
  103      H       3.3263677497    -3.5524386194     2.4900854116
  104      H       3.0083816389    -4.9993603199     1.5604261052
  105      C       3.5465021547    -3.2684101356     0.3837754476
  106      C       3.4271037470    -4.1617982209    -0.8259132517
  107      C       2.3842795911    -3.9366934515    -1.7677500861
  108      H       1.6331729361    -3.1695092721    -1.6038469814
  109      C       2.3106988310    -4.6647569436    -2.9577532051
  110      H       1.5389570800    -4.4004326379    -3.6749744618
  111      C       3.1487420928    -5.7772300247    -3.1556651434
  112      H       3.0856175769    -6.4770198252    -3.9837493967
  113      C       4.2260310868    -5.9422730739    -2.3475697188
  114      H       4.9599161838    -6.7104111221    -2.5718343019
  115      C       4.3119561605    -5.2493515937    -1.1612621263
  116      H       5.0970504381    -5.5181902705    -0.4596078374
  117      C       8.2850674981    -1.2118063713    -1.4356831100
  118      C       6.6173622119    -0.1338962910    -2.9222388395
  119      C       6.9846357837     3.9970975910    -1.0620698497
  120      C       7.1295080775    -0.4790058852     3.3777930636
  121      C       4.1755931622     3.6484705032     0.8490933312
  122      C       7.1018042991    -1.2082723070    -2.1675859124
  123      C       5.8703621849     2.0705071857     3.6198937081
  124      C       8.7481989440     2.3611187502    -1.6288186583
  125      C       3.1073696608     0.2594243686    -1.0043871378
  126      C       5.7320286172    -0.3950073973     3.4276369401
  127      C       3.6696833668    -1.7387313192     0.1988481439
  128      C       2.7511853425     0.4838718535     0.3249533220
  129      C       3.8997055337     0.8414200184     2.8178948937
  130      C       5.4343526227     3.1606089151     2.9554127969
  131      C       4.8039410269    -1.0838123782    -1.9622883027
  132      C       6.4885327533     4.3978645402     1.0743487974
  133      C       4.8828289979    -2.5281206142     0.5880154845
  134      C       5.5005794493    -2.1547158558     1.8402080680
  135      C       5.2853649967     4.3203030348     0.3178631318
  136      C       9.4220249121     1.5976651408     1.7169062483
  137      C       8.5690539094     3.3145965491     0.5636833698
  138      C       9.2173123154     2.4841290853    -0.2931356487
  139      C       8.5823139815     1.0938280715    -2.2118456859
  140      C       6.8792348854    -2.1526201983     1.7452038745
  141      C       3.6525137995    -1.0297068504    -1.1034001076
  142      C       7.4047321168     1.0856268776    -2.9568636000
  143      C       5.1013832259     0.8563181807     3.5515751842
  144      C       5.2390981008    -0.0233146752    -2.7609045704
  145      C       2.8046796047     1.8025513272     0.8716413588
  146      C       8.8618870619    -0.7244707655     1.9547642349
  147      C       7.5790514834     3.0910811865    -1.9953893293
  148      C       3.0835505289    -0.6527728419     1.0982671130
  149      C       9.6620134217     0.1160419607    -0.2182137138
  150      C       3.3898769362     1.9530214619     2.1399413319
  151      C       3.5105440112     1.3719977327    -1.8243395466
  152      C       7.6651856089     3.0160547919     2.7308236317
  153      C       7.2963192325     1.9655932621     3.5082309707
  154      C       3.6179871351     2.7000049177    -1.3138663429
  155      C       7.7238642322    -1.3572249519     2.5579650131
  156      C       4.9062022282    -1.2006179503     2.6362789856
  157      C       8.9296223250     0.5569838681     2.5452758404
  158      C       6.0640325274    -2.5377958529    -0.3368448354
  159      C       5.4079698121     2.3967480857    -2.7011753604
  160      C       3.7739239541    -0.4014284671     2.2854968881
  161      C       3.3331116134     2.8601569711     0.0492254578
  162      C       9.1972286665    -0.9318029015     0.6081713515
  163      C       5.6170730529     4.1438559848    -1.0250003028
  164      C       9.0404759611    -0.0180512439    -1.4492016087
  165      C       7.5167749397     4.1279215663     0.1928189924
  166      C       4.6322571755     1.2494583662    -2.6975415168
  167      C       4.8016466560     3.3387659505    -1.8569238736
  168      C       5.9614206606    -1.8199300284    -1.6124201812
  169      C       7.2622228155    -2.3574698758     0.4142846977
  170      C       8.7286355614     2.8141307572     1.8453142400
  171      C       6.7918633122     2.3322081464    -2.8047387545
  172      C       4.2211217192     3.0954544528     2.1244503003
  173      C       7.8977680850     0.6947851119     3.4252193866
  174      C       6.5702105700     3.7293374579     2.3612136987
  175      C       8.3541842743    -1.7424329890    -0.1356014726
  176      C       9.8048880963     1.4158468071     0.3898004214
 ----------------------------------------------------------------

    9   -5804.2430138884      8.83E-06 Convergence criterion met
 Total energy in the final basis set = -5804.2430138884

                    Orbital Energies (a.u.)
 --------------------------------------------------------------

 Alpha MOs
 -- Occupied --
-19.197 -19.187 -19.137 -19.136 -10.319 -10.316 -10.253 -10.243
-10.241 -10.239 -10.237 -10.235 -10.234 -10.232 -10.231 -10.226
-10.226 -10.226 -10.225 -10.225 -10.225 -10.224 -10.224 -10.223
-10.222 -10.222 -10.222 -10.222 -10.222 -10.222 -10.222 -10.221
-10.221 -10.221 -10.221 -10.220 -10.220 -10.219 -10.219 -10.219
-10.218 -10.218 -10.218 -10.218 -10.218 -10.217 -10.217 -10.217
-10.217 -10.217 -10.217 -10.217 -10.217 -10.217 -10.217 -10.217
-10.216 -10.216 -10.216 -10.216 -10.216 -10.216 -10.216 -10.216
-10.216 -10.216 -10.216 -10.215 -10.215 -10.215 -10.215 -10.215
-10.215 -10.215 -10.215 -10.215 -10.214 -10.214 -10.214 -10.214
-10.213 -10.213 -10.213 -10.213 -10.213 -10.213 -10.213 -10.213
-10.213 -10.213 -10.212 -10.212 -10.212 -10.212 -10.212 -10.212
-10.212 -10.211 -10.211 -10.211 -10.211 -10.211 -10.210 -10.210
-10.210 -10.210 -10.210 -10.210 -10.210 -10.209 -10.209 -10.209
-10.209 -10.209 -10.209 -10.209 -10.208 -10.208 -10.208 -10.208
-10.207 -10.207 -10.207 -10.207 -10.206 -10.206 -10.206 -10.206
-10.205 -10.205 -10.204 -10.204 -10.204 -10.202 -10.201 -10.200
-10.199 -10.199 -10.198 -10.197 -10.195 -10.194 -10.193 -10.193
-10.193 -10.192 -10.190 -10.187  -1.107  -1.085  -1.022  -1.008
 -0.986  -0.983  -0.969  -0.967  -0.966  -0.963  -0.962  -0.959
 -0.935  -0.932  -0.930  -0.929  -0.927  -0.925  -0.924  -0.923
 -0.923  -0.921  -0.902  -0.897  -0.891  -0.889  -0.889  -0.887
 -0.876  -0.871  -0.858  -0.852  -0.843  -0.841  -0.841  -0.838
 -0.835  -0.831  -0.821  -0.821  -0.804  -0.802  -0.800  -0.799
 -0.797  -0.796  -0.795  -0.795  -0.793  -0.790  -0.786  -0.780
 -0.774  -0.770  -0.769  -0.768  -0.767  -0.764  -0.763  -0.760
 -0.753  -0.747  -0.746  -0.737  -0.735  -0.731  -0.719  -0.718
 -0.716  -0.715  -0.715  -0.714  -0.711  -0.711  -0.709  -0.709
 -0.708  -0.708  -0.704  -0.704  -0.704  -0.696  -0.676  -0.671
 -0.661  -0.658  -0.657  -0.656  -0.648  -0.647  -0.638  -0.634
 -0.629  -0.625  -0.624  -0.623  -0.622  -0.621  -0.620  -0.617
 -0.615  -0.614  -0.613  -0.612  -0.612  -0.611  -0.608  -0.607
 -0.605  -0.604  -0.600  -0.598  -0.567  -0.566  -0.565  -0.563
 -0.561  -0.560  -0.560  -0.559  -0.557  -0.556  -0.555  -0.553
 -0.538  -0.535  -0.534  -0.533  -0.531  -0.528  -0.527  -0.526
 -0.523  -0.522  -0.519  -0.519  -0.518  -0.514  -0.514  -0.512
 -0.508  -0.507  -0.500  -0.497  -0.492  -0.489  -0.486  -0.484
 -0.483  -0.483  -0.481  -0.479  -0.479  -0.478  -0.477  -0.475
 -0.474  -0.473  -0.472  -0.471  -0.469  -0.468  -0.467  -0.467
 -0.465  -0.465  -0.463  -0.463  -0.462  -0.461  -0.460  -0.459
 -0.455  -0.454  -0.453  -0.452  -0.448  -0.447  -0.445  -0.444
 -0.443  -0.441  -0.440  -0.438  -0.437  -0.435  -0.434  -0.432
 -0.431  -0.430  -0.429  -0.428  -0.427  -0.427  -0.425  -0.424
 -0.424  -0.422  -0.422  -0.421  -0.419  -0.419  -0.419  -0.418
 -0.418  -0.417  -0.417  -0.416  -0.415  -0.415  -0.414  -0.413
 -0.412  -0.411  -0.409  -0.408  -0.402  -0.400  -0.400  -0.397
 -0.392  -0.391  -0.391  -0.390  -0.389  -0.386  -0.385  -0.384
 -0.381  -0.378  -0.377  -0.373  -0.372  -0.369  -0.368  -0.367
 -0.366  -0.364  -0.364  -0.363  -0.360  -0.359  -0.359  -0.358
 -0.358  -0.356  -0.354  -0.354  -0.353  -0.352  -0.351  -0.351
 -0.349  -0.349  -0.347  -0.346  -0.345  -0.345  -0.345  -0.345
 -0.343  -0.342  -0.342  -0.340  -0.338  -0.338  -0.335  -0.333
 -0.333  -0.332  -0.330  -0.329  -0.328  -0.327  -0.326  -0.322
 -0.312  -0.306  -0.303  -0.297  -0.287  -0.284  -0.273  -0.272
 -0.271  -0.270  -0.269  -0.268  -0.267  -0.266  -0.265  -0.263
 -0.262  -0.260  -0.259  -0.259  -0.257  -0.256  -0.255  -0.251
 -0.250  -0.245  -0.244  -0.239  -0.222  -0.217  -0.214  -0.211
 -0.211  -0.208  -0.206  -0.203  -0.202  -0.198

          Ground-State Mulliken Net Atomic Charges

     Atom                 Charge (a.u.)
  ----------------------------------------
      1 O                    -0.455381
      2 C                    -0.096952
      3 H                     0.144709
      4 H                     0.126226
      5 H                     0.128624
      6 O                    -0.450763
      7 C                     0.578539
      8 C                    -0.258408
      9 H                     0.118850
     10 H                     0.133843
     11 C                    -0.179117
     12 H                     0.106505
     13 H                     0.127035
     14 C                    -0.184272
     15 H                     0.103804
     16 H                     0.106018
     17 C                     0.005488
     18 C                     0.085479
     19 C                    -0.105018
     20 H                     0.091484
     21 C                    -0.099200
     22 H                     0.090204
     23 C                    -0.076441
     24 H                     0.090899
     25 C                    -0.094171
     26 H                     0.090319
     27 C                    -0.083082
     28 H                     0.098341
     29 C                    -0.017659
     30 C                     0.007833
     31 C                    -0.009436
     32 C                     0.009407
     33 C                    -0.005332
     34 C                     0.026599
     35 C                     0.002251
     36 C                     0.011645
     37 C                    -0.025046
     38 C                    -0.007349
     39 C                    -0.097592
     40 C                     0.011715
     41 C                    -0.018461
     42 C                     0.043598
     43 C                     0.045816
     44 C                    -0.001203
     45 C                    -0.059376
     46 C                     0.010967
     47 C                    -0.005686
     48 C                     0.019416
     49 C                    -0.025241
     50 C                    -0.019311
     51 C                     0.003012
     52 C                    -0.014489
     53 C                     0.060639
     54 C                     0.015928
     55 C                    -0.038900
     56 C                    -0.038467
     57 C                    -0.005681
     58 C                    -0.021330
     59 C                    -0.014375
     60 C                     0.014326
     61 C                     0.008188
     62 C                    -0.027071
     63 C                    -0.015112
     64 C                    -0.031657
     65 C                    -0.006448
     66 C                     0.012000
     67 C                     0.000759
     68 C                     0.037179
     69 C                    -0.020996
     70 C                    -0.012659
     71 C                    -0.025260
     72 C                     0.021557
     73 C                     0.022658
     74 C                     0.015789
     75 C                    -0.013071
     76 C                    -0.023281
     77 C                     0.019872
     78 C                     0.008201
     79 C                    -0.002598
     80 C                    -0.018348
     81 C                     0.012035
     82 C                     0.027093
     83 C                     0.020668
     84 C                     0.007496
     85 C                     0.013533
     86 C                    -0.002819
     87 C                     0.008599
     88 C                    -0.013270
     89 O                    -0.476746
     90 C                    -0.089506
     91 H                     0.126514
     92 H                     0.127322
     93 H                     0.135010
     94 O                    -0.468345
     95 C                     0.600725
     96 C                    -0.258193
     97 H                     0.127157
     98 H                     0.127922
     99 C                    -0.184560
    100 H                     0.129168
    101 H                     0.116452
    102 C                    -0.190644
    103 H                     0.099620
    104 H                     0.113119
    105 C                     0.008635
    106 C                     0.082371
    107 C                    -0.111715
    108 H                     0.089011
    109 C                    -0.093386
    110 H                     0.090723
    111 C                    -0.083101
    112 H                     0.086506
    113 C                    -0.071903
    114 H                     0.088129
    115 C                    -0.113376
    116 H                     0.081637
    117 C                    -0.016638
    118 C                    -0.016715
    119 C                     0.007705
    120 C                     0.021533
    121 C                     0.034938
    122 C                     0.012403
    123 C                    -0.016965
    124 C                    -0.041438
    125 C                     0.035909
    126 C                    -0.005651
    127 C                    -0.066080
    128 C                     0.006638
    129 C                     0.029865
    130 C                    -0.007788
    131 C                     0.013133
    132 C                    -0.034988
    133 C                    -0.089482
    134 C                     0.044432
    135 C                    -0.012135
    136 C                     0.008620
    137 C                     0.048883
    138 C                     0.014132
    139 C                     0.015188
    140 C                     0.005735
    141 C                     0.019657
    142 C                    -0.021519
    143 C                    -0.012156
    144 C                     0.005274
    145 C                    -0.014842
    146 C                    -0.017744
    147 C                    -0.001555
    148 C                    -0.005755
    149 C                    -0.019243
    150 C                    -0.016607
    151 C                    -0.010568
    152 C                     0.031478
    153 C                    -0.018259
    154 C                    -0.024711
    155 C                    -0.025550
    156 C                    -0.001130
    157 C                     0.006404
    158 C                    -0.001336
    159 C                     0.027398
    160 C                     0.012206
    161 C                     0.000426
    162 C                     0.009897
    163 C                     0.002037
    164 C                     0.014311
    165 C                     0.016245
    166 C                    -0.008147
    167 C                    -0.017400
    168 C                    -0.014878
    169 C                     0.013259
    170 C                    -0.039018
    171 C                     0.017719
    172 C                    -0.010693
    173 C                     0.009164
    174 C                     0.009418
    175 C                     0.013560
    176 C                    -0.031942
  ----------------------------------------
  Sum of atomic charges =     0.000000

                    Cartesian Multipole Moments
 -----------------------------------------------------------------
    Charge (ESU x 10^10)
                 0.0000
    Dipole Moment (Debye)
         X      -4.8927      Y      -2.0453      Z       0.5824
       Tot       5.3349
    Quadrupole Moments (Debye-Ang)
        XX    -770.8770     XY      -6.2987     YY    -781.4407
        XZ     -20.8044     YZ       4.4515     ZZ    -813.9130

 Total job time:  871.93s(wall), 7437.67s(cpu)
        *  Thank you very much for using Q-Chem.  Have a nice day.  *
