 Q-Chem 4.4, Q-Chem, Inc., Pleasanton, CA (2016)
 Q-Chem 4.4.2 for Intel X86 Linux

User input:
--------------------------------------------------------------
$comment
SP
$end

$rem
MEM_STATIC 5000
MEM_TOTAL 20000
JOBTYPE SP
EXCHANGE B3LYP
BASIS 6-31g(d,p)
$end

$molecule
0 1
O          11.773000      9.361000      7.158000
C          11.800000      9.509000      8.616000
H          11.075000      8.934000      9.205000
H          11.653000     10.578000      8.813000
H          12.833000      9.424000      8.975000
O           9.554000      9.301000      7.004000
C          10.623000      9.264000      6.492000
C          10.847000      9.002000      4.916000
H          11.870000      8.683000      4.682000
H          10.638000      9.998000      4.506000
C           9.848000      8.011000      4.332000
H           9.819000      7.006000      4.771000
H           8.873000      8.436000      4.600000
C           9.937000      7.814000      2.828000
H          10.017000      8.808000      2.371000
H          10.897000      7.381000      2.521000
C           8.651000      7.260000      2.073000
C           7.541000      8.243000      1.991000
C           7.572000      9.211000      1.002000
H           8.336000      9.106000      0.238000
C           6.533000     10.150000      0.915000
H           6.552000     11.012000      0.254000
C           5.626000     10.229000      1.962000
H           4.981000     11.099000      2.048000
C           5.547000      9.220000      2.891000
H           4.719000      9.230000      3.594000
C           6.474000      8.201000      2.927000
H           6.505000      7.394000      3.654000
C           5.176000      3.295000      1.238000
C           5.358000      4.445000     -0.920000
C           7.655000      1.185000     -3.230000
C           9.826000      1.976000      2.748000
C          10.721000      2.806000     -2.766000
C           5.318000      4.446000      0.462000
C          11.395000      1.451000      0.522000
C           5.807000      1.063000     -1.565000
C           8.874000      6.205000     -1.484000
C          10.694000      2.979000      2.276000
C           8.919000      6.431000      0.816000
C          10.175000      5.822000     -1.080000
C          11.601000      3.969000      0.441000
C          11.394000      1.481000     -0.900000
C           6.773000      6.036000     -0.304000
C           9.688000      0.656000     -2.413000
C           8.294000      5.805000      2.074000
C           9.079000      4.710000      2.728000
C           9.855000      1.793000     -3.211000
C           7.798000     -0.306000      1.019000
C           7.809000     -0.360000     -1.297000
C           6.507000      0.004000     -0.863000
C           5.115000      2.016000     -0.895000
C           8.136000      3.722000      3.196000
C           8.083000      6.441000     -0.386000
C           5.263000      3.228000     -1.575000
C          11.520000      2.734000      1.179000
C           6.149000      5.478000     -1.415000
C          10.884000      4.822000     -1.757000
C           7.681000      1.333000      2.795000
C           6.384000      1.627000     -2.750000
C          10.172000      5.938000      0.325000
C           5.854000      1.084000      1.200000
C          11.653000      3.879000     -0.978000
C           8.297000      5.553000     -2.614000
C           9.974000     -0.134000     -0.142000
C          10.540000      0.510000      0.973000
C           9.039000      4.516000     -3.217000
C           8.580000      2.367000      3.215000
C          10.268000      4.306000      2.214000
C           8.388000      0.257000      2.168000
C           6.947000      5.355000      2.085000
C           6.899000      3.931000     -3.229000
C          10.792000      4.910000      1.075000
C          10.315000      4.163000     -2.794000
C           6.412000      1.684000      2.360000
C           8.600000      2.133000     -3.684000
C           5.083000      2.041000      0.518000
C           8.352000      0.256000     -2.472000
C           6.983000      5.158000     -2.539000
C           8.186000      3.505000     -3.660000
C           6.190000      5.509000      0.833000
C           6.857000      4.053000      2.738000
C           8.606000     -0.478000     -0.120000
C           6.075000      2.979000     -2.629000
C          11.549000      2.627000     -1.647000
C           9.700000      0.728000      2.103000
C          10.530000      0.480000     -1.279000
C           6.006000      3.037000      2.328000
C           6.514000      0.009000      0.547000
O          22.317000      5.364000      4.498000
C          22.219000      5.443000      5.947000
H          23.143000      5.818000      6.405000
H          22.110000      4.447000      6.393000
H          21.272000      5.945000      6.183000
O          23.747000      3.637000      4.752000
C          23.074000      4.329000      4.029000
C          22.894000      4.073000      2.588000
H          23.250000      3.047000      2.433000
H          23.410000      4.781000      1.927000
C          21.399000      4.053000      2.262000
H          20.962000      5.028000      2.509000
H          21.252000      3.963000      1.178000
C          20.618000      2.822000      2.962000
H          20.938000      1.875000      2.511000
H          21.021000      2.774000      3.982000
C          19.103000      2.877000      2.772000
C          18.794000      2.595000      1.370000
C          18.653000      1.247000      0.970000
H          18.567000      0.420000      1.670000
C          18.589000      0.925000     -0.408000
H          18.481000     -0.152000     -0.497000
C          18.545000      1.985000     -1.351000
H          18.494000      1.725000     -2.404000
C          18.554000      3.306000     -0.953000
H          18.544000      4.148000     -1.638000
C          18.795000      3.649000      0.419000
H          18.788000      4.694000      0.716000
C          14.725000      5.943000      3.542000
C          13.787000      3.708000      3.292000
C          12.567000      3.322000      7.705000
C          18.265000      6.155000      7.141000
C          15.462000      1.444000      8.536000
C          14.735000      4.655000      2.940000
C          17.611000      4.316000      9.188000
C          12.363000      5.202000      6.206000
C          16.443000      1.031000      4.689000
C          18.863000      4.959000      7.190000
C          18.154000      2.483000      3.877000
C          17.435000      1.091000      5.668000
C          18.601000      2.733000      7.641000
C          16.628000      3.406000      9.520000
C          15.783000      2.677000      3.050000
C          14.133000      3.386000      9.289000
C          18.296000      3.911000      3.558000
C          18.796000      4.755000      4.688000
C          14.242000      2.104000      8.674000
C          14.900000      7.137000      7.796000
C          13.269000      5.539000      8.405000
C          12.916000      6.094000      7.160000
C          12.690000      5.343000      4.811000
C          18.164000      5.986000      4.689000
C          16.795000      1.911000      3.639000
C          12.783000      4.041000      4.236000
C          18.556000      4.016000      8.214000
C          14.376000      2.450000      3.336000
C          17.070000      0.967000      7.003000
C          16.640000      7.330000      6.089000
C          12.266000      3.844000      6.462000
C          18.468000      1.930000      5.251000
C          14.292000      7.153000      5.429000
C          17.652000      1.786000      8.009000
C          15.093000      0.898000      5.001000
C          15.500000      5.368000      9.407000
C          16.894000      5.554000      9.114000
C          14.737000      0.742000      6.356000
C          17.842000      6.695000      5.889000
C          19.079000      4.210000      5.989000
C          16.256000      7.217000      7.423000
C          17.192000      4.686000      3.013000
C          13.096000      1.908000      5.310000
C          18.931000      2.820000      6.265000
C          15.684000      0.743000      7.365000
C          15.659000      7.260000      5.115000
C          13.220000      2.054000      7.712000
C          13.703000      6.252000      4.459000
C          13.144000      4.129000      8.648000
C          14.025000      1.571000      4.327000
C          13.493000      1.363000      6.553000
C          15.975000      4.037000      2.689000
C          17.165000      5.956000      3.635000
C          14.514000      6.179000      8.786000
C          12.433000      3.143000      5.246000
C          16.674000      2.091000      8.983000
C          17.237000      6.440000      8.069000
C          15.356000      4.010000      9.616000
C          15.911000      6.580000      3.941000
C          13.917000      6.982000      6.793000
$end

--------------------------------------------------------------

             Standard Nuclear Orientation (Angstroms)
    I     Atom           X                Y                Z
 ----------------------------------------------------------------
    1      O       1.4224531896     6.3993755124    -1.6159155250
    2      C       2.1677940586     7.4634493891    -0.9372324076
    3      H       1.8133309837     7.7924771427     0.0472815161
    4      H       2.1629033039     8.3193217740    -1.6232626849
    5      H       3.2411920793     7.2403614941    -0.9724954214
    6      O      -0.5851705443     7.1438665982    -1.0105586334
    7      C       0.0916225018     6.3490869535    -1.5731868314
    8      C      -0.4962709075     5.0344405659    -2.3002921984
    9      H       0.2706180483     4.2701559659    -2.4757811717
   10      H      -0.8558962856     5.4604961908    -3.2452489127
   11      C      -1.6770402005     4.4235280991    -1.5561767272
   12      H      -1.5103822949     4.1064133481    -0.5192339239
   13      H      -2.3828528121     5.2574570761    -1.4588883992
   14      C      -2.3453230114     3.2516950809    -2.2554273704
   15      H      -2.4767504681     3.5294850392    -3.3084442566
   16      H      -1.6719657439     2.3924897894    -2.3635673601
   17      C      -3.8493915519     2.9116530173    -1.8644206945
   18      C      -4.8315252615     3.9103262321    -2.3575516979
   19      C      -5.2682907278     3.8328814429    -3.6687893697
   20      H      -4.9826103338     2.9476852759    -4.2284602180
   21      C      -6.1921923859     4.7725013367    -4.1507968194
   22      H      -6.4803837251     4.8550755517    -5.1950445156
   23      C      -6.4634829429     5.8893844154    -3.3735757297
   24      H      -6.9610930593     6.7454977338    -3.8205378735
   25      C      -6.0990253941     5.9200564810    -2.0493427745
   26      H      -6.4727347870     6.7306293353    -1.4303064770
   27      C      -5.2996175349     4.9410339042    -1.5003000906
   28      H      -4.9340830160     4.9171801949    -0.4772876195
   29      C      -7.3798301096     1.2713038267     1.7878844848
   30      C      -8.2567168735     0.4586673670    -0.3529750593
   31      C      -7.4756419807    -4.0414241149     0.2626609261
   32      C      -2.6229275762    -0.3863623569     2.3040066717
   33      C      -4.5406268532    -3.9447826162    -1.6398741253
   34      C      -7.6106657992     1.4068844593     0.4184051033
   35      C      -2.3674029832    -2.8394308210     1.0352969757
   36      C      -8.2659334218    -2.2573107798     1.8101078705
   37      C      -5.4333053110    -0.2308874527    -3.0605225287
   38      C      -2.0760471303    -0.4275790192     1.0073031726
   39      C      -4.2556145781     1.4420888855    -1.9847457352
   40      C      -4.1118359414    -0.7158106933    -2.9153531236
   41      C      -2.1670187062    -1.4112636538    -1.0406379183
   42      C      -3.0680731930    -3.7789825819     0.2295124229
   43      C      -6.6837494110     1.2980386118    -1.6698620230
   44      C      -5.3174912653    -4.6308172846     0.5372882753
   45      C      -4.1947518609     2.1504947006    -0.6211028454
   46      C      -3.2162643115     1.5975136687     0.3687153672
   47      C      -5.5377571624    -4.5287459508    -0.8405819571
   48      C      -5.2942100464    -2.1608505150     3.7270986368
   49      C      -6.4268958286    -3.7600609233     2.4916060270
   50      C      -7.3368672333    -2.7216361901     2.8227889313
   51      C      -8.5147157381    -0.9371686521     1.6331753363
   52      C      -3.8299936867     1.6752889242     1.6732092398
   53      C      -5.5747543911     0.9716588811    -2.4117887831
   54      C      -8.6915590903    -0.7013545744     0.2670252166
   55      C      -1.9038773560    -1.6490133038     0.3560230047
   56      C      -7.7874213187     0.4513220263    -1.6635103424
   57      C      -3.8528540833    -2.0766676924    -2.7103979450
   58      C      -4.4813032086     0.1017477919     3.4550372931
   59      C      -8.3340929709    -2.9358834638     0.5490989933
   60      C      -3.4194780394     0.3046192120    -2.2320864524
   61      C      -6.8624007200    -0.3990789480     3.3017329623
   62      C      -2.8230177575    -2.4445274820    -1.7661695207
   63      C      -6.5077326491    -1.1675926354    -3.0046450212
   64      C      -3.9690907838    -3.7050360547     2.3228084393
   65      C      -2.9118159407    -2.7790247323     2.2681281223
   66      C      -6.1844867815    -2.5147312758    -2.7395571251
   67      C      -3.4672727045     0.6687398594     2.6159788137
   68      C      -2.4449726060     0.5253966735     0.0575767265
   69      C      -4.2012731820    -1.2718405324     3.7475989097
   70      C      -5.3720019654     2.4158102609     0.1277094442
   71      C      -8.0661713090    -2.0323415005    -1.6678610657
   72      C      -2.5356050298    -0.0761536570    -1.1940765656
   73      C      -4.8746769376    -2.9582232693    -2.6001762633
   74      C      -5.7909839229     0.5331136465     3.3085896019
   75      C      -6.8542463452    -4.1354206651    -1.0033869058
   76      C      -7.8458515132     0.0436697904     2.4005048602
   77      C      -6.5184439621    -4.3860041351     1.2052374814
   78      C      -7.6234131001    -0.8381201558    -2.2732415645
   79      C      -7.1692746321    -3.1012915979    -1.9444980845
   80      C      -6.6435581122     1.9696443949    -0.4625023700
   81      C      -5.1601892159     2.0827106462     1.5326624704
   82      C      -5.1566180833    -3.3580431418     3.0007603780
   83      C      -8.5104815818    -1.8907004824    -0.3534006428
   84      C      -3.2734350830    -3.6321483716    -1.1238597391
   85      C      -3.0805623395    -1.5465381918     2.9627687347
   86      C      -4.0306586126    -4.3117940658     1.0551511045
   87      C      -6.1271015942     1.5144904437     2.3492181967
   88      C      -6.6360401381    -1.7708152692     3.5928246181
   89      O       9.1872685035    -2.0860706865    -3.0060201789
   90      C       9.8177644827    -1.0210615471    -2.2420330369
   91      H      10.8562746525    -0.8480114066    -2.5514118924
   92      H       9.9184974012    -1.2959360303    -1.1850988395
   93      H       9.1224127388    -0.1720221185    -2.2307635703
   94      O      10.5144526137    -3.5589167137    -1.9284061860
   95      C       9.5896245529    -3.3476208739    -2.6731001675
   96      C       8.7169440258    -4.4062969296    -3.2135173275
   97      H       8.9253772443    -5.2905423179    -2.5986167774
   98      H       8.8573554794    -4.6177878944    -4.2812238394
   99      C       7.2553630293    -4.0418397575    -2.9439751962
  100      H       7.0205533176    -3.0949460746    -3.4448342110
  101      H       6.5912874108    -4.7698535841    -3.4274671208
  102      C       6.8909531345    -4.0233518627    -1.3684798372
  103      H       6.9241664564    -5.0436688163    -0.9679050135
  104      H       7.7428457722    -3.5264200917    -0.8863483731
  105      C       5.4807922303    -3.5126187176    -1.0770216429
  106      C       4.5144769622    -4.5096801212    -1.5382291449
  107      C       4.1620634261    -5.5608623777    -0.6619839947
  108      H       4.4120335729    -5.5686533038     0.3957396115
  109      C       3.4197258265    -6.6643844869    -1.1496702081
  110      H       3.2558033450    -7.3506544711    -0.3240329217
  111      C       2.9426113108    -6.6237078000    -2.4858932981
  112      H       2.3731931940    -7.4747955012    -2.8470341754
  113      C       3.1785580842    -5.5379739754    -3.3038402292
  114      H       2.8528312450    -5.4724351666    -4.3372306156
  115      C       4.0724211742    -4.4960848652    -2.8871990664
  116      H       4.2379973658    -3.6435906852    -3.5399786600
  117      C       2.1260952250     0.6592767454    -1.7851432767
  118      C       1.1327494820    -0.5239946814     0.0991873644
  119      C       2.2361119247     2.6978821508     3.1836753281
  120      C       6.9836713886     1.8043873130    -0.9964604487
  121      C       5.1182830904     0.9354758503     4.2724743931
  122      C       1.8069794025    -0.5510499607    -1.1108122332
  123      C       7.3785682834     2.3023438870     1.7596131521
  124      C       1.3658022525     2.9372500734     0.9457564126
  125      C       4.0664626085    -2.3060593921     2.1943834550
  126      C       7.4989931155     0.8554223644    -0.2063148647
  127      C       5.1900634608    -2.6338531633     0.1146619909
  128      C       5.4131468784    -2.0047106204     2.3986758809
  129      C       7.4392540235    -0.1194880021     1.8608334169
  130      C       6.6649368931     2.3528813977     2.9397780553
  131      C       2.7248336921    -2.1245152128     0.1948058593
  132      C       4.3802589750     3.1804769216     3.5514302925
  133      C       5.1910826094    -2.0180396474    -1.2202094168
  134      C       6.2031859451    -0.9312723460    -1.4041106690
  135      C       4.1410042873     1.9256051767     4.1852158226
  136      C       4.4029675518     4.1992282618    -0.4296460729
  137      C       3.2454113231     4.2675064515     1.6294915297
  138      C       2.3384707646     3.9140532929     0.6120493014
  139      C       0.9664524916     1.9539842673    -0.0271480652
  140      C       5.6837686315     0.0867209901    -2.1842909186
  141      C       3.8767484397    -2.6074292445     0.8254463688
  142      C       0.7324996617     0.7200324343     0.6489487824
  143      C       7.7135156964     1.0821500728     1.1846015988
  144      C       1.6362747785    -1.5112725245     0.9377371461
  145      C       5.7502948268    -1.0361604086     3.3362620093
  146      C       5.0803419006     2.4740322857    -2.0245005601
  147      C       1.3745906892     2.3045140539     2.1781025057
  148      C       6.1266765665    -2.1766309006     1.2128353345
  149      C       2.7083891612     2.8561852455    -1.5686142614
  150      C       6.7720363788    -0.0812477307     3.0799282846
  151      C       3.0425768978    -1.6396153758     2.8614992056
  152      C       5.6756247358     3.9463077590     1.6682235396
  153      C       6.7484318368     3.3080522261     0.9573115908
  154      C       3.3966302901    -0.6810632761     3.8325404342
  155      C       6.0120256532     1.4648293378    -1.9857217621
  156      C       7.0770639059    -0.5059165679    -0.3433916810
  157      C       5.4007360339     3.4563279325    -1.0905713008
  158      C       3.9810316322    -1.4631538003    -1.8070180134
  159      C       1.4821199118    -0.0065817099     2.8194868185
  160      C       7.0505639469    -1.1247048734     0.9397991798
  161      C       4.7175168622    -0.3782012008     4.1125836930
  162      C       3.7454470715     2.1654488484    -2.2213991574
  163      C       2.7768405157     1.6539045212     3.9911437794
  164      C       1.6963038243     1.8773699557    -1.2262315817
  165      C       3.2221768026     3.6048626247     2.9035155938
  166      C       1.7978175921    -1.2494532384     2.2731313129
  167      C       2.4265932899     0.3341781291     3.8152457100
  168      C       2.7470072616    -1.5992328165    -1.1244256355
  169      C       4.2947752206    -0.2437474161    -2.4513207612
  170      C       4.5316547126     4.4252418295     0.9772005719
  171      C       0.9038114962     0.9824520134     2.0093870279
  172      C       6.4085036586     1.1552238827     3.6605890382
  173      C       6.5534973365     3.0173739536    -0.4109634847
  174      C       5.6203741146     3.3006457363     2.8883255523
  175      C       3.3698093344     0.8508284274    -2.4080792022
  176      C       3.0499843133     3.8190644715    -0.5753678931
 ----------------------------------------------------------------

    9   -5804.3052936029      7.76E-06 Convergence criterion met
 Total energy in the final basis set = -5804.3052936029

                    Orbital Energies (a.u.)
 --------------------------------------------------------------

 Alpha MOs
 -- Occupied --
-19.195 -19.191 -19.134 -19.133 -10.316 -10.311 -10.250 -10.241
-10.239 -10.236 -10.234 -10.234 -10.232 -10.231 -10.230 -10.229
-10.229 -10.229 -10.228 -10.227 -10.226 -10.226 -10.225 -10.225
-10.225 -10.224 -10.224 -10.223 -10.223 -10.222 -10.222 -10.222
-10.222 -10.222 -10.221 -10.221 -10.221 -10.221 -10.221 -10.220
-10.220 -10.220 -10.220 -10.220 -10.220 -10.219 -10.219 -10.219
-10.219 -10.219 -10.219 -10.219 -10.219 -10.219 -10.218 -10.218
-10.218 -10.218 -10.218 -10.218 -10.218 -10.218 -10.218 -10.217
-10.217 -10.217 -10.217 -10.217 -10.217 -10.217 -10.217 -10.217
-10.217 -10.216 -10.216 -10.216 -10.216 -10.216 -10.216 -10.215
-10.215 -10.215 -10.215 -10.215 -10.215 -10.215 -10.215 -10.215
-10.215 -10.215 -10.214 -10.214 -10.214 -10.214 -10.214 -10.214
-10.214 -10.214 -10.214 -10.213 -10.213 -10.213 -10.213 -10.213
-10.213 -10.213 -10.213 -10.213 -10.213 -10.213 -10.212 -10.212
-10.211 -10.211 -10.211 -10.211 -10.211 -10.211 -10.210 -10.209
-10.209 -10.209 -10.209 -10.208 -10.208 -10.208 -10.208 -10.208
-10.208 -10.206 -10.206 -10.206 -10.205 -10.205 -10.204 -10.204
-10.203 -10.202 -10.202 -10.201 -10.200 -10.198 -10.197 -10.196
-10.195 -10.192 -10.191 -10.188  -1.104  -1.097  -1.019  -1.011
 -0.984  -0.983  -0.967  -0.966  -0.965  -0.964  -0.962  -0.960
 -0.938  -0.932  -0.928  -0.927  -0.926  -0.924  -0.923  -0.922
 -0.921  -0.920  -0.899  -0.897  -0.888  -0.888  -0.886  -0.886
 -0.877  -0.873  -0.855  -0.853  -0.846  -0.843  -0.840  -0.839
 -0.838  -0.835  -0.822  -0.818  -0.809  -0.800  -0.799  -0.799
 -0.797  -0.796  -0.795  -0.794  -0.793  -0.792  -0.788  -0.783
 -0.774  -0.773  -0.771  -0.770  -0.768  -0.767  -0.765  -0.762
 -0.752  -0.751  -0.743  -0.738  -0.732  -0.730  -0.718  -0.716
 -0.716  -0.715  -0.715  -0.715  -0.713  -0.713  -0.712  -0.709
 -0.708  -0.707  -0.706  -0.705  -0.702  -0.701  -0.673  -0.673
 -0.662  -0.661  -0.658  -0.655  -0.650  -0.645  -0.635  -0.633
 -0.631  -0.627  -0.626  -0.624  -0.621  -0.620  -0.619  -0.618
 -0.618  -0.617  -0.615  -0.615  -0.613  -0.613  -0.610  -0.609
 -0.608  -0.605  -0.604  -0.602  -0.570  -0.565  -0.564  -0.563
 -0.563  -0.560  -0.560  -0.558  -0.557  -0.556  -0.555  -0.553
 -0.542  -0.536  -0.535  -0.531  -0.530  -0.528  -0.526  -0.525
 -0.525  -0.523  -0.521  -0.520  -0.520  -0.516  -0.516  -0.511
 -0.507  -0.505  -0.505  -0.497  -0.494  -0.491  -0.490  -0.487
 -0.485  -0.484  -0.482  -0.480  -0.479  -0.478  -0.477  -0.476
 -0.472  -0.472  -0.472  -0.471  -0.471  -0.470  -0.469  -0.467
 -0.466  -0.465  -0.463  -0.463  -0.462  -0.461  -0.460  -0.459
 -0.457  -0.455  -0.454  -0.451  -0.448  -0.447  -0.445  -0.445
 -0.443  -0.442  -0.441  -0.441  -0.438  -0.438  -0.437  -0.435
 -0.433  -0.431  -0.429  -0.429  -0.428  -0.427  -0.426  -0.426
 -0.424  -0.424  -0.423  -0.422  -0.420  -0.420  -0.419  -0.419
 -0.418  -0.417  -0.417  -0.416  -0.415  -0.415  -0.413  -0.413
 -0.412  -0.411  -0.409  -0.408  -0.402  -0.400  -0.399  -0.398
 -0.397  -0.394  -0.394  -0.391  -0.388  -0.387  -0.386  -0.382
 -0.381  -0.378  -0.374  -0.372  -0.371  -0.370  -0.368  -0.366
 -0.366  -0.364  -0.364  -0.363  -0.362  -0.361  -0.360  -0.358
 -0.358  -0.357  -0.356  -0.356  -0.356  -0.355  -0.354  -0.351
 -0.350  -0.348  -0.348  -0.347  -0.346  -0.345  -0.345  -0.344
 -0.343  -0.342  -0.342  -0.341  -0.340  -0.338  -0.336  -0.335
 -0.334  -0.332  -0.330  -0.330  -0.328  -0.327  -0.326  -0.324
 -0.309  -0.305  -0.301  -0.301  -0.290  -0.282  -0.275  -0.273
 -0.271  -0.270  -0.270  -0.269  -0.268  -0.266  -0.266  -0.265
 -0.264  -0.263  -0.261  -0.259  -0.258  -0.256  -0.256  -0.253
 -0.251  -0.248  -0.247  -0.242  -0.226  -0.219  -0.216  -0.215
 -0.210  -0.209  -0.208  -0.205  -0.200  -0.200

          Ground-State Mulliken Net Atomic Charges

     Atom                 Charge (a.u.)
  ----------------------------------------
      1 O                    -0.456016
      2 C                    -0.099640
      3 H                     0.145212
      4 H                     0.124602
      5 H                     0.129571
      6 O                    -0.452003
      7 C                     0.582394
      8 C                    -0.265752
      9 H                     0.121624
     10 H                     0.131339
     11 C                    -0.179847
     12 H                     0.107642
     13 H                     0.124771
     14 C                    -0.184624
     15 H                     0.101719
     16 H                     0.107704
     17 C                     0.003644
     18 C                     0.085532
     19 C                    -0.104286
     20 H                     0.090612
     21 C                    -0.099665
     22 H                     0.089071
     23 C                    -0.076640
     24 H                     0.090088
     25 C                    -0.094196
     26 H                     0.089892
     27 C                    -0.082217
     28 H                     0.098696
     29 C                    -0.018452
     30 C                     0.008195
     31 C                    -0.016209
     32 C                     0.002342
     33 C                    -0.003742
     34 C                     0.025936
     35 C                     0.003324
     36 C                     0.010909
     37 C                    -0.026153
     38 C                    -0.007965
     39 C                    -0.095435
     40 C                     0.011942
     41 C                    -0.016015
     42 C                     0.020782
     43 C                     0.046235
     44 C                     0.003556
     45 C                    -0.058474
     46 C                     0.006361
     47 C                    -0.011633
     48 C                     0.018864
     49 C                    -0.021236
     50 C                    -0.021683
     51 C                     0.003227
     52 C                    -0.015260
     53 C                     0.059627
     54 C                     0.013783
     55 C                    -0.028601
     56 C                    -0.039944
     57 C                    -0.009149
     58 C                    -0.020474
     59 C                    -0.012247
     60 C                     0.013211
     61 C                     0.008455
     62 C                    -0.033525
     63 C                    -0.017739
     64 C                    -0.031869
     65 C                     0.002803
     66 C                     0.011643
     67 C                     0.001646
     68 C                     0.051660
     69 C                    -0.022442
     70 C                    -0.012494
     71 C                    -0.028748
     72 C                     0.022452
     73 C                     0.021639
     74 C                     0.014710
     75 C                    -0.005941
     76 C                    -0.024444
     77 C                     0.019500
     78 C                     0.008624
     79 C                    -0.001706
     80 C                    -0.018592
     81 C                     0.012019
     82 C                     0.028294
     83 C                     0.021622
     84 C                     0.001554
     85 C                     0.014060
     86 C                    -0.002206
     87 C                     0.007252
     88 C                    -0.013097
     89 O                    -0.468212
     90 C                    -0.088515
     91 H                     0.126675
     92 H                     0.129188
     93 H                     0.122693
     94 O                    -0.471906
     95 C                     0.610975
     96 C                    -0.264577
     97 H                     0.135804
     98 H                     0.132981
     99 C                    -0.196981
    100 H                     0.122285
    101 H                     0.107080
    102 C                    -0.193573
    103 H                     0.112416
    104 H                     0.115299
    105 C                     0.017553
    106 C                     0.089265
    107 C                    -0.104784
    108 H                     0.094961
    109 C                    -0.084560
    110 H                     0.097429
    111 C                    -0.091707
    112 H                     0.093160
    113 C                    -0.087741
    114 H                     0.093373
    115 C                    -0.112840
    116 H                     0.100906
    117 C                     0.004211
    118 C                     0.038614
    119 C                    -0.003310
    120 C                    -0.021322
    121 C                     0.016106
    122 C                    -0.022369
    123 C                    -0.003656
    124 C                    -0.012054
    125 C                    -0.002910
    126 C                    -0.000679
    127 C                    -0.095986
    128 C                     0.029795
    129 C                    -0.009109
    130 C                     0.013003
    131 C                     0.006102
    132 C                    -0.023487
    133 C                    -0.081888
    134 C                     0.061538
    135 C                     0.003530
    136 C                    -0.017922
    137 C                    -0.020028
    138 C                     0.003903
    139 C                    -0.029111
    140 C                    -0.012928
    141 C                     0.021562
    142 C                    -0.003613
    143 C                     0.014318
    144 C                    -0.008045
    145 C                    -0.010658
    146 C                     0.011466
    147 C                     0.030778
    148 C                     0.007359
    149 C                    -0.029942
    150 C                     0.000795
    151 C                     0.001215
    152 C                     0.014604
    153 C                    -0.037490
    154 C                     0.010673
    155 C                     0.008323
    156 C                    -0.020657
    157 C                     0.002629
    158 C                     0.042494
    159 C                    -0.008057
    160 C                     0.000770
    161 C                    -0.012695
    162 C                     0.011590
    163 C                    -0.014016
    164 C                    -0.014670
    165 C                     0.025736
    166 C                    -0.001162
    167 C                     0.002779
    168 C                    -0.002874
    169 C                    -0.035393
    170 C                    -0.028079
    171 C                     0.008704
    172 C                    -0.025731
    173 C                     0.009684
    174 C                     0.019962
    175 C                     0.011566
    176 C                     0.049402
  ----------------------------------------
  Sum of atomic charges =     0.000000

                    Cartesian Multipole Moments
 -----------------------------------------------------------------
    Charge (ESU x 10^10)
                 0.0000
    Dipole Moment (Debye)
         X       0.8711      Y       0.5458      Z      -2.8781
       Tot       3.0562
    Quadrupole Moments (Debye-Ang)
        XX    -840.1427     XY       3.3740     YY    -791.9272
        XZ       0.6648     YZ      -1.7809     ZZ    -795.5103

 Total job time:  871.31s(wall), 7429.24s(cpu)
        *  Thank you very much for using Q-Chem.  Have a nice day.  *
