 Q-Chem 4.4, Q-Chem, Inc., Pleasanton, CA (2016)
 Q-Chem 4.4.2 for Intel X86 Linux

User input:
--------------------------------------------------------------
$comment
SP
$end

$rem
MEM_STATIC 5000
MEM_TOTAL 20000
JOBTYPE SP
EXCHANGE B3LYP
BASIS 6-31g(d,p)
$end

$molecule
0 1
O          10.085000     13.057000      9.012000
C          11.326000     13.725000      9.059000
H          11.725000     13.615000      8.043000
H          11.994000     13.295000      9.817000
H          11.139000     14.763000      9.359000
O           8.853000     14.785000      8.139000
C           8.948000     13.680000      8.584000
C           7.718000     12.846000      8.828000
H           7.348000     12.523000      7.847000
H           7.056000     13.535000      9.368000
C           7.761000     11.554000      9.719000
H           8.522000     10.857000      9.346000
H           8.048000     11.795000     10.751000
C           6.386000     10.929000      9.805000
H           5.624000     11.648000     10.130000
H           6.016000     10.684000      8.802000
C           6.375000      9.658000     10.740000
C           6.289000     10.036000     12.194000
C           5.075000     10.171000     12.901000
H           4.073000     10.158000     12.482000
C           5.173000     10.486000     14.254000
H           4.272000     10.743000     14.803000
C           6.374000     10.710000     14.930000
H           6.413000     11.087000     15.948000
C           7.561000     10.430000     14.258000
H           8.519000     10.407000     14.769000
C           7.525000     10.144000     12.889000
H           8.437000     10.064000     12.306000
C           8.257000      4.559000     11.767000
C           5.932000      4.474000     12.573000
C           4.438000      1.796000      9.138000
C           8.553000      6.268000      7.079000
C           3.105000      4.529000      7.250000
C           7.177000      5.139000     12.438000
C           6.256000      5.323000      5.741000
C           6.552000      1.727000     10.442000
C           3.698000      6.956000     10.365000
C           7.494000      7.145000      6.841000
C           5.540000      8.480000     10.361000
C           3.647000      7.555000      9.086000
C           5.208000      7.260000      6.806000
C           5.064000      4.606000      5.865000
C           5.465000      6.615000     12.125000
C           4.578000      2.589000      6.973000
C           7.063000      8.333000     10.402000
C           7.727000      8.014000      9.116000
C           3.449000      3.152000      7.556000
C           8.551000      2.912000      7.790000
C           6.628000      1.705000      7.992000
C           7.267000      1.653000      9.184000
C           6.964000      2.539000     11.442000
C           8.776000      7.197000      9.343000
C           4.790000      7.484000     11.203000
C           5.867000      3.188000     12.043000
C           6.317000      6.631000      6.224000
C           4.893000      5.342000     12.391000
C           3.251000      6.641000      8.087000
C           9.632000      4.988000      8.569000
C           5.120000      1.797000     10.396000
C           4.823000      8.266000      8.974000
C           8.912000      3.244000     10.119000
C           3.993000      6.546000      6.927000
C           3.140000      5.709000     10.668000
C           6.844000      3.180000      6.106000
C           7.370000      4.466000      5.945000
C           2.689000      4.927000      9.630000
C           9.217000      6.323000      8.327000
C           7.062000      8.036000      7.861000
C           9.149000      4.179000      7.526000
C           7.674000      7.288000     11.341000
C           3.622000      3.587000     11.191000
C           5.646000      8.084000      7.831000
C           2.668000      5.382000      8.285000
C           9.550000      4.516000      9.862000
C           3.415000      2.710000      8.905000
C           8.224000      3.238000     11.300000
C           5.178000      1.760000      7.923000
C           3.700000      4.882000     11.684000
C           3.058000      3.629000      9.883000
C           6.852000      6.500000     12.174000
C           8.738000      6.718000     10.655000
C           7.406000      2.443000      7.122000
C           4.694000      2.703000     11.376000
C           3.919000      5.278000      6.377000
C           8.522000      5.005000      6.576000
C           5.412000      3.296000      6.063000
C           9.021000      5.353000     10.887000
C           8.435000      2.467000      9.070000
O          22.317000      5.364000      4.498000
C          22.219000      5.443000      5.947000
H          23.143000      5.818000      6.405000
H          22.110000      4.447000      6.393000
H          21.272000      5.945000      6.183000
O          23.747000      3.637000      4.752000
C          23.074000      4.329000      4.029000
C          22.894000      4.073000      2.588000
H          23.250000      3.047000      2.433000
H          23.410000      4.781000      1.927000
C          21.399000      4.053000      2.262000
H          20.962000      5.028000      2.509000
H          21.252000      3.963000      1.178000
C          20.618000      2.822000      2.962000
H          20.938000      1.875000      2.511000
H          21.021000      2.774000      3.982000
C          19.103000      2.877000      2.772000
C          18.794000      2.595000      1.370000
C          18.653000      1.247000      0.970000
H          18.567000      0.420000      1.670000
C          18.589000      0.925000     -0.408000
H          18.481000     -0.152000     -0.497000
C          18.545000      1.985000     -1.351000
H          18.494000      1.725000     -2.404000
C          18.554000      3.306000     -0.953000
H          18.544000      4.148000     -1.638000
C          18.795000      3.649000      0.419000
H          18.788000      4.694000      0.716000
C          14.725000      5.943000      3.542000
C          13.787000      3.708000      3.292000
C          12.567000      3.322000      7.705000
C          18.265000      6.155000      7.141000
C          15.462000      1.444000      8.536000
C          14.735000      4.655000      2.940000
C          17.611000      4.316000      9.188000
C          12.363000      5.202000      6.206000
C          16.443000      1.031000      4.689000
C          18.863000      4.959000      7.190000
C          18.154000      2.483000      3.877000
C          17.435000      1.091000      5.668000
C          18.601000      2.733000      7.641000
C          16.628000      3.406000      9.520000
C          15.783000      2.677000      3.050000
C          14.133000      3.386000      9.289000
C          18.296000      3.911000      3.558000
C          18.796000      4.755000      4.688000
C          14.242000      2.104000      8.674000
C          14.900000      7.137000      7.796000
C          13.269000      5.539000      8.405000
C          12.916000      6.094000      7.160000
C          12.690000      5.343000      4.811000
C          18.164000      5.986000      4.689000
C          16.795000      1.911000      3.639000
C          12.783000      4.041000      4.236000
C          18.556000      4.016000      8.214000
C          14.376000      2.450000      3.336000
C          17.070000      0.967000      7.003000
C          16.640000      7.330000      6.089000
C          12.266000      3.844000      6.462000
C          18.468000      1.930000      5.251000
C          14.292000      7.153000      5.429000
C          17.652000      1.786000      8.009000
C          15.093000      0.898000      5.001000
C          15.500000      5.368000      9.407000
C          16.894000      5.554000      9.114000
C          14.737000      0.742000      6.356000
C          17.842000      6.695000      5.889000
C          19.079000      4.210000      5.989000
C          16.256000      7.217000      7.423000
C          17.192000      4.686000      3.013000
C          13.096000      1.908000      5.310000
C          18.931000      2.820000      6.265000
C          15.684000      0.743000      7.365000
C          15.659000      7.260000      5.115000
C          13.220000      2.054000      7.712000
C          13.703000      6.252000      4.459000
C          13.144000      4.129000      8.648000
C          14.025000      1.571000      4.327000
C          13.493000      1.363000      6.553000
C          15.975000      4.037000      2.689000
C          17.165000      5.956000      3.635000
C          14.514000      6.179000      8.786000
C          12.433000      3.143000      5.246000
C          16.674000      2.091000      8.983000
C          17.237000      6.440000      8.069000
C          15.356000      4.010000      9.616000
C          15.911000      6.580000      3.941000
C          13.917000      6.982000      6.793000
$end

--------------------------------------------------------------

             Standard Nuclear Orientation (Angstroms)
    I     Atom           X                Y                Z
 ----------------------------------------------------------------
    1      O       3.6667601046    -7.0474191331    -2.0218552874
    2      C       2.7203722773    -8.0791579208    -1.8533941513
    3      H       1.9358673942    -7.8410001595    -2.5823591498
    4      H       2.3353989332    -8.1178569314    -0.8257824002
    5      H       3.2273870940    -9.0345184602    -2.0340463460
    6      O       4.7847985323    -7.9613154091    -3.8053127920
    7      C       4.6427340624    -7.1144162049    -2.9742565820
    8      C       5.6600920538    -6.0144692676    -2.8222978621
    9      H       5.5302949549    -5.3356699705    -3.6743390743
   10      H       6.6124034890    -6.5598269259    -2.8063932989
   11      C       5.7025524931    -5.1008563174    -1.5461699342
   12      H       4.7268272890    -4.6262285575    -1.3826223398
   13      H       5.9093081911    -5.6914605606    -0.6439988257
   14      C       6.8306572840    -4.0987313403    -1.6546646852
   15      H       7.7928060915    -4.5800220982    -1.8688115476
   16      H       6.7086596309    -3.4844839819    -2.5550816750
   17      C       6.9432996827    -3.1977948439    -0.3641562120
   18      C       7.6802085522    -3.9003506558     0.7438946212
   19      C       9.0738351399    -3.8051675915     0.9454265501
   20      H       9.7978316979    -3.3453521399     0.2789937070
   21      C       9.5929356233    -4.4853786099     2.0441920659
   22      H      10.6702520886    -4.5628810494     2.1565913786
   23      C       8.8387435009    -5.2713720032     2.9176688133
   24      H       9.2900480078    -5.8979731790     3.6816512793
   25      C       7.4523520529    -5.2359271724     2.7927071514
   26      H       6.7966484108    -5.6731582484     3.5398990412
   27      C       6.8777236673    -4.5983908519     1.6878982727
   28      H       5.8146434189    -4.6753274066     1.4830223295
   29      C       4.5905633569     0.5018245632     3.0083654001
   30      C       6.9680247351     1.1413886873     3.0418486257
   31      C       6.3618495683     4.9820114658     0.5750463757
   32      C       2.8200012429     0.1163017654    -1.6501883425
   33      C       7.3787339543     3.4664171371    -2.5038563471
   34      C       5.9448472886     0.1598298735     3.0530382621
   35      C       4.1346989701     2.0982618437    -3.1677133453
   36      C       4.9813891468     3.9863579716     2.3853436287
   37      C       8.6077184570     0.2401900678    -0.4973023384
   38      C       3.8561370976    -0.2572046674    -2.5070252204
   39      C       7.2867344502    -1.7523920185    -0.5104888223
   40      C       8.2704078012     0.0592545165    -1.8577165576
   41      C       5.9059018499     0.4141937858    -3.2737941406
   42      C       5.0951605141     3.1119820977    -3.1530890835
   43      C       7.6608731329    -0.5158223616     1.7090745875
   44      C       5.5420251397     4.7994732543    -1.5767532682
   45      C       5.9132180607    -2.1408666427     0.0421043319
   46      C       4.7402253793    -1.7303058687    -0.7653490849
   47      C       6.9013132132     4.5128507210    -1.6177710292
   48      C       2.3922633310     2.9575360861     0.2240285110
   49      C       3.9318261313     4.6378297950     0.2680902334
   50      C       3.8261245112     4.1510309665     1.5265587741
   51      C       5.1851984200     2.8467112727     3.0844539075
   52      C       3.7213720661    -1.4046929561     0.0564374795
   53      C       8.0799638156    -0.8273139803     0.3718363996
   54      C       6.5413918012     2.4668623534     3.0368586206
   55      C       4.5508305510     0.7668620868    -3.2133553759
   56      C       8.0067402424     0.7542921129     2.2435408298
   57      C       8.0310513033     1.2854021780    -2.5130663718
   58      C       2.1797082760     0.5113373743     0.4609044514
   59      C       6.2553716187     4.4152344801     1.8846704801
   60      C       7.3277303694    -0.9469040994    -1.8644321545
   61      C       3.0696006838     1.9121041559     2.2520995625
   62      C       6.8863221643     1.4337146506    -3.2698937028
   63      C       8.9613769905     1.4722070648     0.0641616061
   64      C       3.3003828530     3.7390001560    -1.8702880461
   65      C       3.0401888213     2.4443952948    -2.3314716528
   66      C       8.7835782018     2.6080142409    -0.6912843876
   67      C       2.7370663929    -0.4905372802    -0.3749263367
   68      C       4.8376214612    -1.1908033334    -2.0757631483
   69      C       2.0227249720     1.6835937895    -0.2985625587
   70      C       5.5206039112    -1.6535233435     1.4404668165
   71      C       8.2890954654     3.0871170444     1.4601703126
   72      C       6.0990371737    -0.7517072596    -2.5493505618
   73      C       8.3625867089     2.5647936131    -2.0467876669
   74      C       2.6682333222     0.6183670895     1.7459122021
   75      C       7.3757264147     4.5616833451    -0.2802851455
   76      C       4.1530723981     1.8312944110     3.0813762529
   77      C       5.2095061257     5.0924537109    -0.2526178683
   78      C       8.6912876411     1.7590818667     1.4332998720
   79      C       8.2795042708     3.5889307104     0.1264480576
   80      C       6.4186690350    -0.8897815490     2.2155116570
   81      C       4.1767358097    -1.3111776237     1.3740594828
   82      C       3.0476324120     3.9439140115    -0.5341007365
   83      C       7.2187381969     3.4768047027     2.2770814748
   84      C       6.4635662864     2.7513092107    -3.3018631097
   85      C       2.3786926313     1.4023688973    -1.6297667450
   86      C       4.5853357721     4.1255234244    -2.3854819499
   87      C       3.7267693859    -0.2352998729     2.1722795544
   88      C       2.9116713536     3.0550560877     1.4772587992
   89      O     -10.6799630592    -2.9863632167     0.5972339256
   90      C      -9.9978743909    -3.4134913227     1.8087464635
   91      H     -10.5598180432    -4.1846036308     2.3507521277
   92      H      -9.9343961739    -2.5969660372     2.5381777311
   93      H      -8.9522934682    -3.6129309569     1.5413640286
   94      O     -12.2212852062    -1.9736975209     1.8975335940
   95      C     -11.7622236793    -2.1793567561     0.8014091515
   96      C     -12.2307331138    -1.5013631538    -0.4213911531
   97      H     -12.8281313995    -0.6523492456    -0.0668101725
   98      H     -12.8042251838    -2.1364550613    -1.1085637041
   99      C     -11.0313403504    -0.8949958042    -1.1531538443
  100      H     -10.3358294745    -1.6954806665    -1.4326025993
  101      H     -11.3516408379    -0.4737382684    -2.1147747084
  102      C     -10.3170204126     0.2908106009    -0.3171321962
  103      H     -10.9835666255     1.1599142948    -0.2624978186
  104      H     -10.2799376826    -0.0744050499     0.7174476217
  105      C      -9.0296117220     0.7996624818    -0.9636603291
  106      C      -9.3730139682     1.5338998926    -2.1816830390
  107      C      -9.6931770852     2.9059718123    -2.0725994676
  108      H      -9.5130094030     3.4940251286    -1.1764644869
  109      C     -10.2540658506     3.5878190876    -3.1803684354
  110      H     -10.4220551561     4.6206522745    -2.8895949819
  111      C     -10.3656674687     2.8980368291    -4.4158968709
  112      H     -10.7953655071     3.4323668609    -5.2578357124
  113      C      -9.9342847232     1.5951127973    -4.5566942222
  114      H     -10.0196436427     1.0216512525    -5.4743786513
  115      C      -9.5292244250     0.8366060914    -3.4083442180
  116      H      -9.1824925678    -0.1845782939    -3.5396548055
  117      C      -4.1655537154    -0.7093816662    -2.7591729210
  118      C      -3.9033779436     1.6906493328    -2.4295002521
  119      C      -1.1371010420     1.2645178686     1.2144109816
  120      C      -5.8431348832    -3.0520930809     1.3913414631
  121      C      -3.7872855212     1.7680044048     3.5212472423
  122      C      -4.6882318861     0.6120806633    -2.8038141765
  123      C      -4.8340952026    -1.7209213357     3.6738108950
  124      C      -1.1534777337     0.0368036070    -0.8629591096
  125      C      -6.2843984281     2.8440959414     0.5991259007
  126      C      -6.6111794079    -2.1853180771     2.0615874633
  127      C      -7.8260592921     1.1771325231    -0.1355058048
  128      C      -6.7661527256     2.1949930404     1.7360881783
  129      C      -6.6705678597    -0.2078984283     3.2076265308
  130      C      -4.0181331094    -0.6586823445     4.0061769401
  131      C      -5.9995416923     2.0180591048    -1.6520419706
  132      C      -1.8887760953     0.2572392064     3.0544876949
  133      C      -7.7765361639    -0.0747050664    -0.9046346037
  134      C      -7.5925847357    -1.3076025961    -0.0767689423
  135      C      -2.5036795870     1.5436004174     3.0262294083
  136      C      -2.3714195169    -2.9873475320     0.5791995855
  137      C      -1.0131056132    -1.1608724348     1.2145090049
  138      C      -1.0767984237    -1.2100044922    -0.1912606301
  139      C      -1.9715709102     0.1740160947    -2.0397051688
  140      C      -6.7668322191    -2.2080090796    -0.7265280868
  141      C      -6.8301816260     2.2129189394    -0.5430388392
  142      C      -2.5604982382     1.4730748989    -2.0302804347
  143      C      -6.1292949467    -1.5053409897     3.2180875829
  144      C      -4.6785615025     2.6177809567    -1.7432507335
  145      C      -5.9344772369     2.0712481732     2.8423562694
  146      C      -4.5633982035    -3.2868285700    -0.4620681734
  147      C      -1.2533960243     1.2272344175    -0.1615321209
  148      C      -7.6757037063     1.2029279837     1.3708171327
  149      C      -2.7696262017    -2.1632962183    -1.6868498113
  150      C      -5.8784408400     0.8667142486     3.5956682544
  151      C      -4.9839245293     3.3328442348     0.5129531425
  152      C      -2.6400532312    -2.0226019336     2.8334808142
  153      C      -3.9609397241    -2.5790585312     2.9298962062
  154      C      -4.1591007953     3.2296237220     1.6514206798
  155      C      -5.8503611639    -3.0623470834    -0.0362003529
  156      C      -7.4419882459    -1.2590691943     1.3531542047
  157      C      -3.7128347999    -3.4138751894     0.6334600338
  158      C      -6.8443650840    -0.2586713485    -2.0063058273
  159      C      -2.8646103137     3.0067687014    -0.1982233489
  160      C      -7.4952336673    -0.0280120997     2.0685864901
  161      C      -4.6012834798     2.6408422862     2.8230442945
  162      C      -4.0915874759    -2.6337196478    -1.5875815554
  163      C      -1.9862583803     2.1891627492     1.8913494275
  164      C      -2.8224840438    -0.8920068484    -2.3801400727
  165      C      -1.1042791891     0.0893937990     1.9154339107
  166      C      -4.1569878409     3.2635428482    -0.6528950599
  167      C      -2.8388417343     3.0326634016     1.2154061799
  168      C      -6.0258210786     0.8221536247    -2.4174859442
  169      C      -6.3023699657    -1.5635437357    -1.9425693015
  170      C      -1.8358077700    -2.2582359959     1.6875210301
  171      C      -2.0362763070     2.1305675748    -0.9158753252
  172      C      -4.5527401604     0.6576738038     4.0395204827
  173      C      -4.4954252951    -3.2139805811     1.7871498805
  174      C      -2.7167880875    -0.8038197263     3.4794395535
  175      C      -4.9290821359    -1.7890960366    -2.2871483142
  176      C      -1.9274508680    -2.2490163412    -0.5406583928
 ----------------------------------------------------------------

    9   -5804.3080322707      8.49E-06 Convergence criterion met
 Total energy in the final basis set = -5804.3080322707

                    Orbital Energies (a.u.)
 --------------------------------------------------------------

 Alpha MOs
 -- Occupied --
-19.190 -19.190 -19.137 -19.134 -10.317 -10.311 -10.246 -10.240
-10.240 -10.240 -10.239 -10.239 -10.236 -10.233 -10.233 -10.231
-10.230 -10.229 -10.228 -10.228 -10.228 -10.226 -10.225 -10.225
-10.225 -10.224 -10.224 -10.224 -10.223 -10.223 -10.223 -10.222
-10.222 -10.221 -10.221 -10.221 -10.220 -10.220 -10.220 -10.220
-10.220 -10.219 -10.219 -10.219 -10.219 -10.219 -10.219 -10.218
-10.218 -10.218 -10.218 -10.218 -10.218 -10.218 -10.218 -10.218
-10.217 -10.217 -10.217 -10.217 -10.217 -10.217 -10.217 -10.217
-10.217 -10.217 -10.216 -10.216 -10.216 -10.216 -10.216 -10.216
-10.216 -10.216 -10.216 -10.216 -10.216 -10.216 -10.216 -10.215
-10.215 -10.215 -10.215 -10.215 -10.215 -10.215 -10.215 -10.215
-10.215 -10.215 -10.214 -10.214 -10.214 -10.214 -10.214 -10.214
-10.214 -10.213 -10.213 -10.213 -10.213 -10.213 -10.213 -10.213
-10.213 -10.212 -10.212 -10.212 -10.212 -10.212 -10.212 -10.212
-10.212 -10.212 -10.212 -10.212 -10.212 -10.212 -10.211 -10.211
-10.211 -10.210 -10.210 -10.210 -10.209 -10.209 -10.209 -10.209
-10.208 -10.207 -10.207 -10.206 -10.206 -10.206 -10.206 -10.205
-10.204 -10.204 -10.203 -10.202 -10.202 -10.201 -10.198 -10.198
-10.197 -10.197 -10.196 -10.194  -1.100  -1.096  -1.026  -1.011
 -0.983  -0.982  -0.966  -0.964  -0.963  -0.962  -0.961  -0.960
 -0.937  -0.932  -0.927  -0.926  -0.925  -0.923  -0.922  -0.922
 -0.920  -0.920  -0.896  -0.895  -0.890  -0.887  -0.887  -0.885
 -0.876  -0.874  -0.853  -0.853  -0.845  -0.842  -0.840  -0.838
 -0.838  -0.834  -0.821  -0.819  -0.808  -0.806  -0.798  -0.798
 -0.798  -0.795  -0.795  -0.792  -0.791  -0.789  -0.787  -0.785
 -0.773  -0.772  -0.770  -0.769  -0.767  -0.767  -0.764  -0.760
 -0.752  -0.752  -0.745  -0.738  -0.731  -0.730  -0.717  -0.716
 -0.715  -0.714  -0.714  -0.714  -0.713  -0.712  -0.711  -0.708
 -0.708  -0.706  -0.705  -0.704  -0.702  -0.701  -0.673  -0.672
 -0.661  -0.660  -0.658  -0.655  -0.650  -0.645  -0.633  -0.631
 -0.630  -0.630  -0.626  -0.623  -0.622  -0.621  -0.620  -0.618
 -0.617  -0.615  -0.614  -0.614  -0.613  -0.612  -0.608  -0.608
 -0.606  -0.604  -0.604  -0.601  -0.570  -0.567  -0.564  -0.563
 -0.562  -0.562  -0.559  -0.558  -0.557  -0.556  -0.554  -0.550
 -0.541  -0.536  -0.534  -0.534  -0.529  -0.528  -0.526  -0.525
 -0.525  -0.522  -0.520  -0.519  -0.517  -0.516  -0.515  -0.511
 -0.507  -0.506  -0.504  -0.501  -0.497  -0.493  -0.490  -0.488
 -0.487  -0.484  -0.483  -0.481  -0.479  -0.478  -0.477  -0.476
 -0.474  -0.471  -0.471  -0.470  -0.470  -0.469  -0.469  -0.466
 -0.466  -0.465  -0.464  -0.463  -0.461  -0.461  -0.461  -0.459
 -0.458  -0.455  -0.453  -0.451  -0.447  -0.447  -0.446  -0.444
 -0.444  -0.442  -0.442  -0.440  -0.439  -0.438  -0.437  -0.434
 -0.433  -0.432  -0.431  -0.428  -0.427  -0.427  -0.425  -0.425
 -0.423  -0.422  -0.422  -0.421  -0.420  -0.420  -0.419  -0.418
 -0.417  -0.416  -0.416  -0.415  -0.415  -0.414  -0.414  -0.413
 -0.412  -0.411  -0.408  -0.407  -0.404  -0.401  -0.399  -0.397
 -0.395  -0.393  -0.393  -0.392  -0.390  -0.389  -0.386  -0.386
 -0.377  -0.377  -0.372  -0.371  -0.371  -0.369  -0.367  -0.365
 -0.364  -0.364  -0.363  -0.361  -0.361  -0.360  -0.360  -0.358
 -0.357  -0.357  -0.356  -0.356  -0.355  -0.354  -0.353  -0.353
 -0.350  -0.350  -0.348  -0.348  -0.346  -0.345  -0.345  -0.344
 -0.344  -0.342  -0.341  -0.340  -0.339  -0.337  -0.337  -0.335
 -0.334  -0.331  -0.331  -0.330  -0.329  -0.328  -0.326  -0.323
 -0.315  -0.304  -0.300  -0.300  -0.290  -0.284  -0.274  -0.273
 -0.272  -0.270  -0.269  -0.269  -0.268  -0.267  -0.266  -0.265
 -0.263  -0.262  -0.261  -0.260  -0.258  -0.257  -0.256  -0.254
 -0.251  -0.247  -0.246  -0.246  -0.225  -0.216  -0.216  -0.214
 -0.211  -0.209  -0.207  -0.205  -0.202  -0.199

          Ground-State Mulliken Net Atomic Charges

     Atom                 Charge (a.u.)
  ----------------------------------------
      1 O                    -0.464601
      2 C                    -0.083920
      3 H                     0.126634
      4 H                     0.123586
      5 H                     0.129210
      6 O                    -0.453609
      7 C                     0.589599
      8 C                    -0.264731
      9 H                     0.137020
     10 H                     0.139192
     11 C                    -0.179789
     12 H                     0.114337
     13 H                     0.107572
     14 C                    -0.183718
     15 H                     0.112164
     16 H                     0.104646
     17 C                     0.008463
     18 C                     0.068417
     19 C                    -0.096944
     20 H                     0.098513
     21 C                    -0.097953
     22 H                     0.084069
     23 C                    -0.075007
     24 H                     0.093060
     25 C                    -0.095694
     26 H                     0.090841
     27 C                    -0.094504
     28 H                     0.094431
     29 C                     0.014872
     30 C                    -0.001974
     31 C                    -0.009927
     32 C                     0.015418
     33 C                    -0.020067
     34 C                    -0.026243
     35 C                    -0.011660
     36 C                    -0.013150
     37 C                     0.002451
     38 C                    -0.034011
     39 C                    -0.099932
     40 C                    -0.014242
     41 C                    -0.008236
     42 C                     0.027208
     43 C                     0.003407
     44 C                     0.006643
     45 C                    -0.096200
     46 C                     0.075615
     47 C                    -0.008213
     48 C                     0.018277
     49 C                     0.030678
     50 C                    -0.014619
     51 C                     0.017225
     52 C                     0.009287
     53 C                     0.032982
     54 C                     0.012977
     55 C                     0.002861
     56 C                    -0.001034
     57 C                     0.016233
     58 C                     0.000418
     59 C                    -0.008075
     60 C                     0.033471
     61 C                     0.011538
     62 C                     0.002566
     63 C                     0.002670
     64 C                    -0.033617
     65 C                     0.006583
     66 C                     0.002136
     67 C                     0.000436
     68 C                    -0.029556
     69 C                    -0.013939
     70 C                     0.025468
     71 C                    -0.011532
     72 C                     0.005070
     73 C                    -0.022289
     74 C                    -0.024145
     75 C                     0.013153
     76 C                    -0.025060
     77 C                    -0.011592
     78 C                    -0.013278
     79 C                     0.018006
     80 C                     0.018577
     81 C                    -0.009023
     82 C                     0.005194
     83 C                    -0.007797
     84 C                    -0.003511
     85 C                     0.004107
     86 C                    -0.006076
     87 C                     0.012935
     88 C                    -0.003556
     89 O                    -0.468240
     90 C                    -0.088559
     91 H                     0.126533
     92 H                     0.129283
     93 H                     0.122923
     94 O                    -0.471499
     95 C                     0.610411
     96 C                    -0.264399
     97 H                     0.135611
     98 H                     0.132854
     99 C                    -0.196987
    100 H                     0.122460
    101 H                     0.106835
    102 C                    -0.193713
    103 H                     0.112095
    104 H                     0.115472
    105 C                     0.018051
    106 C                     0.090517
    107 C                    -0.104991
    108 H                     0.095013
    109 C                    -0.084843
    110 H                     0.096941
    111 C                    -0.092037
    112 H                     0.092608
    113 C                    -0.088197
    114 H                     0.093239
    115 C                    -0.112906
    116 H                     0.101281
    117 C                     0.006477
    118 C                     0.028865
    119 C                     0.000986
    120 C                    -0.021302
    121 C                     0.016323
    122 C                    -0.016253
    123 C                    -0.004547
    124 C                    -0.005822
    125 C                    -0.003089
    126 C                    -0.001102
    127 C                    -0.097409
    128 C                     0.029148
    129 C                    -0.008985
    130 C                     0.012880
    131 C                     0.007845
    132 C                    -0.024818
    133 C                    -0.080503
    134 C                     0.061585
    135 C                     0.003812
    136 C                    -0.009744
    137 C                    -0.018289
    138 C                     0.007009
    139 C                    -0.029651
    140 C                    -0.013959
    141 C                     0.021220
    142 C                    -0.002234
    143 C                     0.014643
    144 C                    -0.015131
    145 C                    -0.009252
    146 C                     0.010401
    147 C                     0.034652
    148 C                     0.007577
    149 C                    -0.030593
    150 C                    -0.000343
    151 C                     0.001201
    152 C                     0.015152
    153 C                    -0.037327
    154 C                     0.010369
    155 C                     0.007941
    156 C                    -0.020931
    157 C                     0.002875
    158 C                     0.042349
    159 C                    -0.006526
    160 C                     0.001046
    161 C                    -0.013260
    162 C                     0.015644
    163 C                    -0.019793
    164 C                    -0.003376
    165 C                     0.033364
    166 C                    -0.000650
    167 C                     0.002984
    168 C                    -0.004086
    169 C                    -0.034877
    170 C                    -0.026385
    171 C                    -0.004613
    172 C                    -0.025271
    173 C                     0.010866
    174 C                     0.018785
    175 C                     0.011392
    176 C                     0.019785
  ----------------------------------------
  Sum of atomic charges =     0.000000

                    Cartesian Multipole Moments
 -----------------------------------------------------------------
    Charge (ESU x 10^10)
                 0.0000
    Dipole Moment (Debye)
         X      -1.0541      Y      -1.0775      Z      -0.3935
       Tot       1.5578
    Quadrupole Moments (Debye-Ang)
        XX    -795.6676     XY     -19.6366     YY    -803.3906
        XZ      41.2928     YZ     -20.8231     ZZ    -816.8590

 Total job time:  841.69s(wall), 7177.36s(cpu)
        *  Thank you very much for using Q-Chem.  Have a nice day.  *
