 Q-Chem 4.4, Q-Chem, Inc., Pleasanton, CA (2016)
 Q-Chem 4.4.2 for Intel X86 Linux

User input:
--------------------------------------------------------------
$comment
SP
$end

$rem
MEM_STATIC 5000
MEM_TOTAL 20000
JOBTYPE SP
EXCHANGE B3LYP
BASIS 6-31g(d,p)
$end

$molecule
0 1
O          -4.457000      6.272000    -12.995000
C          -3.364000      7.198000    -12.896000
H          -2.882000      7.458000    -13.846000
H          -2.544000      6.733000    -12.336000
H          -3.554000      8.193000    -12.475000
O          -5.785000      7.667000    -14.301000
C          -5.490000      6.551000    -13.873000
C          -6.415000      5.309000    -14.086000
H          -5.900000      4.341000    -14.127000
H          -6.754000      5.463000    -15.118000
C          -7.553000      5.260000    -13.105000
H          -8.021000      6.253000    -13.108000
H          -8.383000      4.596000    -13.377000
C          -7.082000      4.988000    -11.621000
H          -6.629000      3.989000    -11.596000
H          -6.356000      5.724000    -11.254000
C          -8.173000      5.082000    -10.513000
C          -8.589000      6.482000    -10.356000
C          -9.658000      6.937000    -11.112000
H         -10.345000      6.206000    -11.527000
C         -10.038000      8.307000    -11.169000
H         -10.949000      8.532000    -11.716000
C          -9.259000      9.209000    -10.389000
H          -9.462000     10.276000    -10.385000
C          -8.178000      8.720000     -9.624000
H          -7.558000      9.503000     -9.198000
C          -7.838000      7.377000     -9.613000
H          -7.047000      7.006000     -8.968000
C          -8.935000      3.759000     -5.390000
C         -11.261000      3.958000     -6.166000
C         -12.028000     -0.585000     -6.052000
C          -6.144000      0.635000     -8.180000
C         -11.415000     -1.029000     -9.554000
C          -9.925000      4.423000     -6.185000
C          -7.800000     -1.330000     -9.182000
C         -10.855000      0.850000     -4.459000
C         -11.378000      2.991000    -10.101000
C          -6.628000      0.717000     -9.515000
C          -9.193000      3.936000    -10.306000
C         -10.548000      2.126000    -10.865000
C          -8.463000      0.328000    -10.883000
C          -9.126000     -1.756000     -9.141000
C         -10.681000      4.475000     -8.340000
C         -10.762000     -1.961000     -7.405000
C          -8.041000      4.150000     -9.325000
C          -7.060000      3.094000     -9.194000
C         -11.764000     -1.385000     -8.211000
C          -7.682000     -0.452000     -5.203000
C          -9.779000     -1.140000     -5.309000
C          -9.783000     -0.045000     -4.494000
C         -10.603000      2.231000     -4.630000
C          -6.554000      2.955000     -7.927000
C         -10.540000      4.046000     -9.666000
C         -11.588000      2.842000     -5.396000
C          -7.466000     -0.303000    -10.079000
C         -11.757000      3.966000     -7.532000
C         -10.873000      0.754000    -10.941000
C          -6.343000      1.433000     -6.038000
C         -12.026000      0.614000     -5.252000
C          -9.226000      2.606000    -10.964000
C          -8.244000      1.836000     -4.486000
C          -9.778000     -0.158000    -10.939000
C         -12.324000      2.428000     -9.238000
C          -8.341000     -1.980000     -7.047000
C          -7.333000     -1.374000     -7.875000
C         -12.708000      1.056000     -9.267000
C          -6.035000      1.776000     -7.376000
C          -7.103000      1.945000     -9.976000
C          -6.675000      0.081000     -6.069000
C          -8.205000      4.577000     -7.940000
C         -12.949000      1.857000     -7.149000
C          -8.205000      1.707000    -10.820000
C         -11.869000      0.178000    -10.110000
C          -7.219000      2.293000     -5.266000
C         -12.514000     -0.552000     -7.387000
C          -9.276000      2.686000     -4.597000
C         -10.909000     -1.362000     -6.141000
C         -12.579000      2.916000     -7.983000
C         -12.976000      0.687000     -7.900000
C          -9.550000      4.770000     -7.498000
C          -7.285000      3.862000     -7.162000
C          -8.503000     -1.424000     -5.758000
C         -12.454000      1.798000     -5.837000
C         -10.118000     -1.238000    -10.026000
C          -6.579000     -0.347000     -7.397000
C          -9.423000     -2.213000     -7.855000
C          -7.640000      3.491000     -5.814000
C          -8.484000      0.453000     -4.487000
O         -19.362000     -2.182000     -6.943000
C         -19.245000     -3.620000     -7.114000
H         -19.209000     -3.856000     -8.184000
H         -20.103000     -4.132000     -6.661000
H         -18.294000     -3.877000     -6.633000
O         -21.361000     -2.117000     -8.248000
C         -20.439000     -1.551000     -7.614000
C         -20.311000     -0.063000     -7.442000
H         -19.617000      0.118000     -6.613000
H         -21.248000      0.468000     -7.234000
C         -19.687000      0.530000     -8.696000
H         -18.621000      0.285000     -8.775000
H         -20.172000      0.113000     -9.588000
C         -19.705000      2.106000     -8.725000
H         -20.770000      2.359000     -8.788000
H         -19.309000      2.490000     -7.777000
C         -19.004000      2.734000     -9.890000
C         -19.279000      1.955000    -11.154000
C         -20.575000      1.668000    -11.587000
H         -21.431000      2.169000    -11.146000
C         -20.829000      0.879000    -12.709000
H         -21.832000      0.755000    -13.107000
C         -19.817000      0.280000    -13.410000
H         -20.074000     -0.396000    -14.220000
C         -18.522000      0.459000    -12.895000
H         -17.718000     -0.097000    -13.366000
C         -18.246000      1.258000    -11.815000
H         -17.231000      1.371000    -11.445000
C         -14.726000      5.604000    -11.917000
C         -16.624000      6.454000    -13.204000
C         -16.785000     10.513000    -11.409000
C         -15.721000      6.159000     -6.968000
C         -19.466000      9.760000     -9.252000
C         -15.984000      5.389000    -12.521000
C         -17.380000      8.445000     -6.598000
C         -14.883000      9.220000    -11.998000
C         -20.022000      6.258000    -11.220000
C         -17.103000      5.982000     -6.806000
C         -19.117000      4.300000    -10.080000
C         -20.238000      6.400000     -9.837000
C         -19.083000      6.832000     -7.276000
C         -17.998000      9.448000     -7.360000
C         -18.185000      5.111000    -12.266000
C         -17.280000     10.877000     -9.232000
C         -17.784000      3.743000     -9.732000
C         -17.117000      4.159000     -8.463000
C         -18.486000     10.573000     -9.857000
C         -13.946000      8.609000     -8.678000
C         -14.991000     10.263000     -9.801000
C         -14.332000      9.506000    -10.741000
C         -14.836000      7.955000    -12.547000
C         -15.740000      4.351000     -8.653000
C         -19.289000      5.036000    -11.355000
C         -15.977000      7.711000    -13.301000
C         -17.953000      7.112000     -6.612000
C         -17.983000      6.279000    -13.052000
C         -20.337000      7.697000     -9.263000
C         -14.030000      6.056000     -8.464000
C         -16.126000      9.749000    -12.384000
C         -19.659000      5.287000     -9.134000
C         -13.597000      7.105000    -10.621000
C         -19.753000      7.903000     -7.985000
C         -19.864000      7.408000    -12.022000
C         -15.812000      9.712000     -7.607000
C         -16.015000      8.609000     -6.825000
C         -19.869000      8.674000    -11.423000
C         -15.040000      5.245000     -7.834000
C         -17.785000      5.034000     -7.534000
C         -14.168000      7.410000     -7.959000
C         -16.739000      3.912000    -10.697000
C         -18.217000      8.683000    -13.064000
C         -18.963000      5.602000     -7.940000
C         -20.174000      8.837000    -10.036000
C         -13.812000      5.968000     -9.868000
C         -18.196000     10.400000    -11.223000
C         -14.176000      6.884000    -11.904000
C         -16.255000     10.782000    -10.135000
C         -18.799000      7.435000    -12.990000
C         -18.838000      9.444000    -12.009000
C         -16.952000      4.510000    -11.945000
C         -15.563000      4.244000    -10.033000
C         -14.786000      9.725000     -8.546000
C         -16.823000      8.847000    -13.177000
C         -19.229000      9.185000     -7.991000
C         -15.209000      7.438000     -7.031000
C         -17.038000     10.262000     -7.948000
C         -14.564000      5.054000    -10.641000
C         -13.714000      8.405000    -10.052000
$end

--------------------------------------------------------------

             Standard Nuclear Orientation (Angstroms)
    I     Atom           X                Y                Z
 ----------------------------------------------------------------
    1      O       6.7754753062     6.5669175615    -2.7606420647
    2      C       7.4450071127     7.7675009903    -2.3456088241
    3      H       7.6551021619     8.4877850139    -3.1452806291
    4      H       8.4497582188     7.5166852380    -1.9853427099
    5      H       6.9583432738     8.4111957420    -1.6025197483
    6      O       4.8517215826     7.6522178386    -3.4931309173
    7      C       5.6000429716     6.6746761050    -3.4835258194
    8      C       5.1865356966     5.3063998973    -4.1162895613
    9      H       6.0147742485     4.6941398972    -4.4945600907
   10      H       4.6721566724     5.6336319688    -5.0284268267
   11      C       4.3006463545     4.4950879821    -3.2125312696
   12      H       3.4999098673     5.1617035078    -2.8668047608
   13      H       3.7497071485     3.6800805078    -3.6983386472
   14      C       5.0441176614     3.9745323763    -1.9185632340
   15      H       5.8364631942     3.2897200620    -2.2457568325
   16      H       5.4862531547     4.7793617700    -1.3183742199
   17      C       4.1658048129     3.2641465023    -0.8458566338
   18      C       3.2831698491     4.2498410952    -0.2078388518
   19      C       2.0261894235     4.4552793608    -0.7547550506
   20      H       1.6111366730     3.6857117765    -1.3982237348
   21      C       1.1574810563     5.4981446070    -0.3277575670
   22      H       0.1609148352     5.5022980029    -0.7597222836
   23      C       1.6445712388     6.3344516489     0.7173159642
   24      H       1.0600442407     7.1683383161     1.0950396922
   25      C       2.9265394772     6.1017299766     1.2607357458
   26      H       3.2622920110     6.8856416578     1.9328352267
   27      C       3.7419767714     5.0807909005     0.8001758451
   28      H       4.6970245943     4.8718826769     1.2730267836
   29      C       4.6872422199     0.1824732406     3.4909042472
   30      C       2.3710317839    -0.3281550546     2.8378491497
   31      C       3.3831085697    -4.5728811604     1.3552383222
   32      C       8.0188015016    -0.4908362212    -0.2213085863
   33      C       3.6153444069    -3.5874574577    -2.0816084364
   34      C       3.4189911224     0.6114800773     2.9804992239
   35      C       7.0939848415    -2.5196188056    -1.8449835446
   36      C       4.1470736379    -3.3816779070     3.3477731860
   37      C       2.0684682083     0.0549024795    -1.1864178902
   38      C       7.3555586841    -0.1863722119    -1.4422162945
   39      C       3.6887677902     1.8058112925    -1.0514268044
   40      C       3.0445765356    -0.1113844126    -2.2064091661
   41      C       5.6254917022    -0.8160394468    -2.8565562152
   42      C       6.0437202057    -3.4288083547    -1.9533881507
   43      C       2.4015969656     1.0440482707     0.9814847448
   44      C       4.8665774343    -4.8150324049    -0.3961679420
   45      C       4.8034829323     2.1360348491    -0.0596488278
   46      C       6.1161001387     1.5794455822    -0.3084508724
   47      C       3.6186800411    -4.4628750936    -0.9476689159
   48      C       7.4369762162    -2.9928018978     2.1893322187
   49      C       5.7572059325    -4.3882050748     1.8528641405
   50      C       5.4593943173    -3.7104471972     2.9996939018
   51      C       3.8373922147    -2.0401447315     3.6707161458
   52      C       6.8111993996     1.2566058658     0.8287639424
   53      C       2.5035877616     1.1566937127    -0.4110334353
   54      C       2.5976491433    -1.6639430680     3.1689079899
   55      C       6.8890916023    -1.2167894324    -2.3261782921
   56      C       1.7200762854    -0.0821117951     1.5620138730
   57      C       3.2490220746    -1.3952689039    -2.7574333349
   58      C       7.8411492576    -0.5711244660     2.0648590537
   59      C       3.0497802317    -3.7986048458     2.5244232552
   60      C       4.0627711240     0.8611570682    -2.1334170552
   61      C       6.1676956662    -1.4822292111     3.6630940867
   62      C       4.5940184643    -1.7412914184    -3.0768486309
   63      C       1.5340815406    -1.0832667650    -0.5735103440
   64      C       7.1433843998    -3.9779571130    -0.0717900795
   65      C       7.7234718406    -2.7892781853    -0.6369670145
   66      C       1.6911014167    -2.4057959200    -1.0804051976
   67      C       7.8058033367     0.2751332695     0.9311238504
   68      C       6.3956979529     0.8259500784    -1.4431947149
   69      C       8.0380685688    -1.8550445438     1.5630014856
   70      C       4.6895096208     1.9935786250     1.3874746322
   71      C       1.4704341314    -2.4926150332     1.1844070222
   72      C       5.3551777591     0.4512298874    -2.3151388098
   73      C       2.6691390002    -2.5543464190    -2.1789629951
   74      C       6.8258806031    -0.4300872021     3.0906748507
   75      C       2.7363572323    -4.3112980203     0.1171765433
   76      C       4.8882021074    -1.1293508282     3.8585885361
   77      C       4.6867365217    -4.7642238140     0.9978125934
   78      C       1.2954874675    -1.1680868587     0.7733647133
   79      C       1.7769382790    -3.2676762765     0.0713188511
   80      C       3.4470983782     1.4799564071     1.8714627743
   81      C       5.9102668119     1.4982278311     1.8642224391
   82      C       6.9694141163    -3.9780817160     1.3305776772
   83      C       2.1319025350    -2.7655618155     2.3918048875
   84      C       4.8154973886    -3.0971607536    -2.5992144278
   85      C       8.0981563930    -1.7588932849     0.1690400842
   86      C       6.1244212633    -4.3519162379    -0.9082981186
   87      C       5.9144202651     0.6059276727     2.9976037413
   88      C       6.4647792722    -2.7655936487     3.1783188281
   89      O      -2.8679377941    -8.5915617005    -0.0255122253
   90      C      -2.2471296717    -9.7249638311    -0.6894180060
   91      H      -2.2773220398    -9.5705466192    -1.7743768741
   92      H      -2.7779611326   -10.6528323942    -0.4428518086
   93      H      -1.2112748630    -9.7194660988    -0.3305509132
   94      O      -4.9091896301    -8.9170882040    -1.2215784600
   95      C      -4.1860391172    -8.2653973936    -0.4311681720
   96      C      -4.6008431741    -6.9914107530     0.2507465102
   97      H      -3.9150926797    -6.8239793580     1.0894067438
   98      H      -5.6288140353    -6.9766720527     0.6331764768
   99      C      -4.4281548271    -5.8310020680    -0.7173296327
  100      H      -3.3706431674    -5.5898587834    -0.8790114373
  101      H      -4.8430004603    -6.0973624481    -1.6980096257
  102      C      -5.0381378294    -4.4754439886    -0.1926163489
  103      H      -6.1178231997    -4.6638373477    -0.1611450352
  104      H      -4.6846002125    -4.2909468514     0.8291213668
  105      C      -4.7953651966    -3.2826932545    -1.0652085417
  106      C      -4.9350043994    -3.6568251132    -2.5214668449
  107      C      -6.0768432660    -4.2828334522    -3.0252441390
  108      H      -6.9863737641    -4.3360954538    -2.4352141124
  109      C      -6.1733961411    -4.7026359923    -4.3520313750
  110      H      -7.1026818186    -5.0827119117    -4.7664700617
  111      C      -5.1210306041    -4.5878860480    -5.2201933569
  112      H      -5.2184319468    -5.0117710342    -6.2151604402
  113      C      -3.9281131464    -4.0812907806    -4.6774225266
  114      H      -3.0499223020    -4.0864468837    -5.3147193612
  115      C      -3.8210799489    -3.6306516719    -3.3865138202
  116      H      -2.8806447524    -3.2462564416    -3.0021754952
  117      C      -2.2344519164     1.5418525072    -1.9665377628
  118      C      -4.4741499613     1.9251037766    -2.8710509646
  119      C      -5.8856092538     4.7716909212     0.2318752823
  120      C      -2.6535240578     0.0355660296     2.8652456127
  121      C      -7.7560494531     2.3621573220     1.9934144659
  122      C      -3.3925900187     1.0476400287    -2.6053453724
  123      C      -4.9766545492     1.2169155303     4.0152260809
  124      C      -3.7421020631     4.6104352458    -0.7759677264
  125      C      -7.2345638497    -0.2373674680    -1.0752477233
  126      C      -3.8311098067    -0.7209283125     2.9574687912
  127      C      -5.5114709495    -1.9221445454    -0.6946349849
  128      C      -7.2899001485    -0.6447334150     0.2703004472
  129      C      -6.0303298860    -0.6321335510     2.8183769761
  130      C      -6.0260451148     2.0752326491     3.6537732288
  131      C      -5.2699172590    -0.1528614537    -2.4599197087
  132      C      -6.1673102635     4.1891165707     2.3993857592
  133      C      -4.0321171264    -1.9789442138    -0.5660734676
  134      C      -3.3967205526    -1.7614140935     0.7670648751
  135      C      -7.2474752106     3.6459893755     1.7096513634
  136      C      -2.1848645414     3.3970468595     2.1182316318
  137      C      -3.9201844140     4.7593243532     1.6473442036
  138      C      -3.1661104049     4.6737814851     0.5006163342
  139      C      -3.3036531019     3.7186810251    -1.7332408944
  140      C      -2.2332903518    -0.9850692237     0.6538756047
  141      C      -6.1248274574    -0.9504874672    -1.6308941994
  142      C      -4.3649374368     3.2943884904    -2.5229145014
  143      C      -5.0053293749    -0.1524975227     3.5363736563
  144      C      -5.6328177933     1.1827265256    -2.7875352635
  145      C      -7.7844397007     0.2457028557     1.2622882894
  146      C      -1.2768168889     1.1024050021     1.4248852489
  147      C      -5.1338712982     4.6913462387    -0.9500878212
  148      C      -6.2434699084    -1.5942163527     0.5380408137
  149      C      -1.5775353761     2.8672658020    -0.2290112861
  150      C      -7.1453109513     0.2468145622     2.5304717169
  151      C      -7.6333268533     1.0702929134    -1.4240748923
  152      C      -4.1560985956     3.2551508618     3.5109655725
  153      C      -3.8189889782     1.9762660856     3.8575962623
  154      C      -8.0265766525     1.9636859344    -0.4196917455
  155      C      -1.8100978868    -0.1997121324     1.7328192440
  156      C      -4.2047293792    -1.5746085655     1.9448235223
  157      C      -1.8381854931     2.0482976990     2.3722696989
  158      C      -3.2740813860    -1.1068875276    -1.4126607061
  159      C      -6.7480239493     3.1575565192    -1.9565853696
  160      C      -5.5543368588    -1.4278081489     1.7655101411
  161      C      -8.1707754779     1.5374864255     0.9371146804
  162      C      -1.2428142455     1.5636716814     0.0785714405
  163      C      -7.1103129902     4.0508771787     0.3690405354
  164      C      -2.2071793580     2.8568727883    -1.5071393866
  165      C      -5.3201020075     4.8065958399     1.5184677590
  166      C      -6.8042801721     1.8293580940    -2.3232298579
  167      C      -7.4524869948     3.2248969972    -0.7008051032
  168      C      -3.8695878162    -0.2787863854    -2.3718778816
  169      C      -2.2263649254    -0.5642005483    -0.6765377132
  170      C      -3.3534581458     3.9773103498     2.6341417691
  171      C      -5.5476422495     3.8919910593    -2.0074841031
  172      C      -7.1453065514     1.5592414821     2.9728195210
  173      C      -2.6714643660     1.3588742010     3.2531729627
  174      C      -5.5337702057     3.3464816224     3.3863195660
  175      C      -1.6996784382     0.7256132189    -0.9641951311
  176      C      -2.0904029074     3.7546824507     0.7593755748
 ----------------------------------------------------------------

   10   -5804.2596412886      2.65E-06 Convergence criterion met
 Total energy in the final basis set = -5804.2596412886

                    Orbital Energies (a.u.)
 --------------------------------------------------------------

 Alpha MOs
 -- Occupied --
-19.203 -19.194 -19.146 -19.144 -10.328 -10.325 -10.248 -10.247
-10.245 -10.244 -10.240 -10.239 -10.235 -10.232 -10.231 -10.231
-10.228 -10.227 -10.226 -10.226 -10.226 -10.225 -10.225 -10.224
-10.223 -10.223 -10.223 -10.222 -10.222 -10.222 -10.222 -10.222
-10.222 -10.221 -10.221 -10.221 -10.221 -10.220 -10.220 -10.220
-10.220 -10.220 -10.219 -10.219 -10.219 -10.219 -10.219 -10.218
-10.218 -10.218 -10.218 -10.218 -10.217 -10.217 -10.217 -10.217
-10.217 -10.217 -10.217 -10.217 -10.217 -10.217 -10.216 -10.216
-10.216 -10.216 -10.216 -10.216 -10.216 -10.216 -10.216 -10.216
-10.215 -10.215 -10.215 -10.215 -10.215 -10.215 -10.215 -10.215
-10.215 -10.215 -10.215 -10.215 -10.215 -10.215 -10.215 -10.215
-10.215 -10.214 -10.214 -10.214 -10.214 -10.214 -10.214 -10.214
-10.213 -10.213 -10.213 -10.213 -10.213 -10.213 -10.213 -10.213
-10.212 -10.212 -10.212 -10.212 -10.212 -10.212 -10.212 -10.212
-10.211 -10.211 -10.211 -10.211 -10.211 -10.210 -10.210 -10.210
-10.210 -10.210 -10.209 -10.209 -10.208 -10.208 -10.208 -10.206
-10.206 -10.205 -10.204 -10.203 -10.203 -10.203 -10.202 -10.201
-10.200 -10.199 -10.199 -10.198 -10.198 -10.196 -10.196 -10.195
-10.195 -10.195 -10.194 -10.193  -1.091  -1.073  -1.014  -1.000
 -0.986  -0.984  -0.968  -0.968  -0.964  -0.964  -0.963  -0.958
 -0.936  -0.936  -0.930  -0.929  -0.926  -0.925  -0.923  -0.922
 -0.922  -0.920  -0.900  -0.895  -0.893  -0.891  -0.891  -0.887
 -0.876  -0.875  -0.857  -0.852  -0.844  -0.841  -0.840  -0.837
 -0.836  -0.835  -0.824  -0.819  -0.809  -0.805  -0.800  -0.800
 -0.797  -0.796  -0.795  -0.794  -0.793  -0.791  -0.786  -0.784
 -0.772  -0.770  -0.770  -0.769  -0.768  -0.768  -0.766  -0.763
 -0.753  -0.748  -0.743  -0.737  -0.732  -0.731  -0.719  -0.717
 -0.716  -0.715  -0.714  -0.714  -0.713  -0.712  -0.711  -0.709
 -0.709  -0.706  -0.706  -0.706  -0.703  -0.702  -0.672  -0.672
 -0.660  -0.660  -0.659  -0.657  -0.647  -0.645  -0.634  -0.634
 -0.630  -0.628  -0.627  -0.626  -0.623  -0.621  -0.618  -0.617
 -0.616  -0.616  -0.615  -0.613  -0.610  -0.610  -0.609  -0.608
 -0.607  -0.605  -0.604  -0.603  -0.574  -0.567  -0.565  -0.564
 -0.563  -0.561  -0.561  -0.560  -0.558  -0.557  -0.554  -0.554
 -0.539  -0.537  -0.535  -0.532  -0.529  -0.528  -0.528  -0.525
 -0.524  -0.523  -0.521  -0.520  -0.517  -0.516  -0.516  -0.513
 -0.510  -0.506  -0.503  -0.500  -0.491  -0.490  -0.488  -0.488
 -0.486  -0.484  -0.482  -0.480  -0.478  -0.477  -0.475  -0.475
 -0.472  -0.471  -0.471  -0.471  -0.471  -0.468  -0.467  -0.467
 -0.466  -0.465  -0.464  -0.464  -0.463  -0.463  -0.459  -0.457
 -0.456  -0.455  -0.453  -0.451  -0.451  -0.447  -0.445  -0.444
 -0.443  -0.442  -0.441  -0.440  -0.438  -0.437  -0.434  -0.433
 -0.431  -0.430  -0.429  -0.427  -0.427  -0.426  -0.426  -0.425
 -0.424  -0.423  -0.422  -0.422  -0.421  -0.421  -0.420  -0.419
 -0.419  -0.418  -0.417  -0.417  -0.415  -0.414  -0.413  -0.413
 -0.412  -0.412  -0.412  -0.411  -0.402  -0.401  -0.400  -0.397
 -0.397  -0.395  -0.393  -0.392  -0.389  -0.388  -0.387  -0.387
 -0.380  -0.376  -0.373  -0.372  -0.372  -0.370  -0.368  -0.367
 -0.366  -0.365  -0.364  -0.363  -0.361  -0.360  -0.360  -0.359
 -0.358  -0.357  -0.355  -0.355  -0.354  -0.353  -0.353  -0.352
 -0.352  -0.351  -0.348  -0.347  -0.347  -0.347  -0.346  -0.345
 -0.345  -0.342  -0.342  -0.341  -0.341  -0.339  -0.338  -0.337
 -0.333  -0.332  -0.332  -0.331  -0.330  -0.328  -0.326  -0.325
 -0.307  -0.303  -0.303  -0.298  -0.290  -0.282  -0.276  -0.273
 -0.271  -0.271  -0.270  -0.269  -0.269  -0.266  -0.264  -0.263
 -0.262  -0.261  -0.259  -0.259  -0.257  -0.256  -0.256  -0.253
 -0.251  -0.247  -0.246  -0.242  -0.222  -0.219  -0.216  -0.213
 -0.212  -0.209  -0.207  -0.203  -0.202  -0.197

          Ground-State Mulliken Net Atomic Charges

     Atom                 Charge (a.u.)
  ----------------------------------------
      1 O                    -0.452026
      2 C                    -0.095851
      3 H                     0.122895
      4 H                     0.122839
      5 H                     0.130427
      6 O                    -0.455792
      7 C                     0.582858
      8 C                    -0.229939
      9 H                     0.114471
     10 H                     0.130884
     11 C                    -0.199770
     12 H                     0.129787
     13 H                     0.107931
     14 C                    -0.163946
     15 H                     0.101064
     16 H                     0.121777
     17 C                    -0.013231
     18 C                     0.122674
     19 C                    -0.122929
     20 H                     0.090163
     21 C                    -0.084898
     22 H                     0.099828
     23 C                    -0.091359
     24 H                     0.091327
     25 C                    -0.091855
     26 H                     0.090446
     27 C                    -0.103191
     28 H                     0.090962
     29 C                    -0.001019
     30 C                    -0.028966
     31 C                    -0.014101
     32 C                    -0.006434
     33 C                     0.017995
     34 C                    -0.005587
     35 C                     0.000414
     36 C                    -0.022728
     37 C                     0.005287
     38 C                    -0.026707
     39 C                    -0.091421
     40 C                    -0.000395
     41 C                     0.015656
     42 C                     0.020893
     43 C                     0.019510
     44 C                    -0.022927
     45 C                    -0.095905
     46 C                     0.068260
     47 C                     0.005389
     48 C                    -0.026707
     49 C                     0.014816
     50 C                     0.007241
     51 C                     0.005428
     52 C                     0.027289
     53 C                     0.017397
     54 C                     0.019746
     55 C                    -0.027629
     56 C                    -0.021437
     57 C                    -0.002563
     58 C                    -0.022697
     59 C                    -0.024590
     60 C                     0.041053
     61 C                     0.005227
     62 C                    -0.035701
     63 C                     0.025862
     64 C                    -0.011200
     65 C                    -0.021575
     66 C                    -0.050074
     67 C                    -0.018935
     68 C                    -0.009934
     69 C                    -0.013803
     70 C                     0.015056
     71 C                     0.000948
     72 C                     0.006956
     73 C                    -0.020268
     74 C                     0.013282
     75 C                    -0.001969
     76 C                     0.016546
     77 C                     0.023557
     78 C                     0.024020
     79 C                    -0.005072
     80 C                     0.009122
     81 C                    -0.024190
     82 C                     0.012347
     83 C                     0.012842
     84 C                     0.000384
     85 C                     0.072105
     86 C                    -0.001703
     87 C                    -0.019543
     88 C                     0.002935
     89 O                    -0.481017
     90 C                    -0.081243
     91 H                     0.130182
     92 H                     0.132052
     93 H                     0.125210
     94 O                    -0.482323
     95 C                     0.599103
     96 C                    -0.232568
     97 H                     0.127962
     98 H                     0.128318
     99 C                    -0.203180
    100 H                     0.112332
    101 H                     0.139170
    102 C                    -0.192133
    103 H                     0.113677
    104 H                     0.108513
    105 C                     0.013963
    106 C                     0.087148
    107 C                    -0.116976
    108 H                     0.088193
    109 C                    -0.082450
    110 H                     0.090723
    111 C                    -0.073427
    112 H                     0.095110
    113 C                    -0.097537
    114 H                     0.086155
    115 C                    -0.096191
    116 H                     0.092137
    117 C                    -0.022700
    118 C                     0.017392
    119 C                    -0.011981
    120 C                    -0.007434
    121 C                    -0.004057
    122 C                    -0.016659
    123 C                    -0.023024
    124 C                     0.000941
    125 C                     0.023297
    126 C                    -0.024291
    127 C                    -0.076114
    128 C                    -0.012080
    129 C                    -0.001220
    130 C                     0.006131
    131 C                    -0.016567
    132 C                    -0.025156
    133 C                    -0.070301
    134 C                    -0.012431
    135 C                     0.012757
    136 C                    -0.021853
    137 C                     0.013088
    138 C                    -0.010771
    139 C                     0.029321
    140 C                     0.035610
    141 C                     0.022003
    142 C                    -0.026717
    143 C                     0.009364
    144 C                     0.021202
    145 C                     0.003582
    146 C                    -0.019614
    147 C                     0.007245
    148 C                     0.031335
    149 C                     0.011462
    150 C                    -0.021390
    151 C                    -0.018005
    152 C                     0.007684
    153 C                     0.005507
    154 C                     0.006509
    155 C                    -0.014698
    156 C                    -0.011067
    157 C                    -0.011656
    158 C                     0.033074
    159 C                     0.011774
    160 C                     0.021894
    161 C                    -0.008426
    162 C                     0.008931
    163 C                    -0.015805
    164 C                    -0.023137
    165 C                     0.024900
    166 C                    -0.018513
    167 C                    -0.000197
    168 C                     0.012442
    169 C                     0.013381
    170 C                     0.007361
    171 C                    -0.007505
    172 C                     0.003183
    173 C                     0.030531
    174 C                    -0.001712
    175 C                     0.001160
    176 C                    -0.006212
  ----------------------------------------
  Sum of atomic charges =     0.000000

                    Cartesian Multipole Moments
 -----------------------------------------------------------------
    Charge (ESU x 10^10)
                 0.0000
    Dipole Moment (Debye)
         X       2.5760      Y       0.0661      Z      -0.6719
       Tot       2.6631
    Quadrupole Moments (Debye-Ang)
        XX    -801.2048     XY      16.1905     YY    -807.0106
        XZ      -2.6558     YZ       6.9197     ZZ    -803.7109

 Total job time:  918.08s(wall), 7816.33s(cpu)
        *  Thank you very much for using Q-Chem.  Have a nice day.  *
