 Q-Chem 4.4, Q-Chem, Inc., Pleasanton, CA (2016)
 Q-Chem 4.4.2 for Intel X86 Linux

User input:
--------------------------------------------------------------
$comment
SP
$end

$rem
MEM_STATIC 5000
MEM_TOTAL 20000
JOBTYPE SP
EXCHANGE B3LYP
BASIS 6-31g(d,p)
$end

$molecule
0 1
O          -9.273000     33.045000    -13.414000
C          -8.391000     33.976000    -14.116000
H          -7.338000     33.697000    -14.244000
H          -8.582000     34.916000    -13.585000
H          -8.705000     34.191000    -15.145000
O          -8.228000     33.576000    -11.549000
C          -9.066000     32.971000    -12.093000
C         -10.130000     32.205000    -11.372000
H         -11.109000     32.552000    -11.724000
H         -10.044000     32.554000    -10.336000
C          -9.946000     30.717000    -11.639000
H          -9.846000     30.621000    -12.727000
H          -8.976000     30.334000    -11.298000
C         -11.155000     29.944000    -10.998000
H         -11.184000     30.303000     -9.962000
H         -12.112000     30.139000    -11.499000
C         -10.977000     28.483000    -11.089000
C         -11.061000     27.930000    -12.446000
C          -9.870000     27.568000    -13.223000
H          -8.951000     27.721000    -12.665000
C          -9.897000     27.261000    -14.594000
H          -8.963000     26.905000    -15.019000
C         -11.076000     27.304000    -15.260000
H         -11.101000     27.174000    -16.338000
C         -12.243000     27.663000    -14.591000
H         -13.105000     27.789000    -15.239000
C         -12.243000     27.932000    -13.194000
H         -13.089000     28.408000    -12.706000
C         -12.579000     23.691000     -8.968000
C         -10.266000     23.299000     -9.501000
C          -8.800000     23.169000     -5.272000
C         -13.014000     27.765000     -6.126000
C          -7.605000     26.410000     -5.377000
C         -11.477000     23.938000     -9.833000
C         -10.789000     27.976000     -4.456000
C         -10.803000     22.206000     -6.254000
C          -8.183000     26.643000     -9.288000
C         -12.027000     28.679000     -6.435000
C         -10.107000     27.816000    -10.018000
C          -8.292000     27.817000     -8.540000
C          -9.808000     28.914000     -6.513000
C          -9.569000     27.316000     -4.200000
C          -9.806000     25.326000    -10.344000
C          -9.007000     24.951000     -3.981000
C         -11.592000     27.581000    -10.013000
C         -12.302000     28.080000     -8.861000
C          -7.898000     25.107000     -4.781000
C         -12.898000     24.556000     -4.702000
C         -10.949000     23.539000     -4.200000
C         -11.579000     22.805000     -5.225000
C         -11.281000     22.250000     -7.584000
C         -13.314000     27.182000     -8.455000
C          -9.246000     26.600000    -10.158000
C         -10.172000     22.483000     -8.390000
C         -10.877000     28.791000     -5.603000
C          -9.248000     24.169000     -9.819000
C          -7.789000     27.753000     -7.211000
C         -13.845000     25.748000     -6.609000
C          -9.405000     22.381000     -6.242000
C          -9.417000     28.548000     -8.916000
C         -13.229000     23.445000     -6.884000
C          -8.622000     28.291000     -6.192000
C          -7.550000     25.484000     -8.791000
C         -11.214000     25.885000     -3.575000
C         -11.803000     27.087000     -4.115000
C          -7.034000     25.434000     -7.501000
C         -13.642000     27.066000     -7.160000
C         -11.668000     28.791000     -7.805000
C         -13.445000     25.741000     -5.259000
C         -12.140000     26.241000    -10.164000
C          -7.961000     23.407000     -7.901000
C         -10.280000     28.952000     -7.821000
C          -7.151000     26.585000     -6.704000
C         -13.830000     24.616000     -7.397000
C          -7.740000     24.013000     -5.611000
C         -12.509000     22.846000     -7.897000
C          -9.558000     23.708000     -4.211000
C          -8.143000     24.262000     -9.001000
C          -7.306000     24.155000     -6.917000
C         -11.215000     25.162000    -10.406000
C         -13.201000     26.043000     -9.277000
C         -11.737000     24.651000     -3.910000
C          -8.999000     22.465000     -7.586000
C          -8.467000     27.484000     -5.051000
C         -12.913000     26.992000     -4.959000
C          -9.851000     26.027000     -3.689000
C         -13.484000     24.744000     -8.727000
C         -12.798000     23.416000     -5.534000
O          -9.946000     16.055000     -1.397000
C          -8.511000     15.828000     -1.695000
H          -8.062000     15.345000     -0.818000
H          -8.077000     16.814000     -1.901000
H          -8.321000     15.210000     -2.582000
O         -10.237000     13.789000     -1.543000
C         -10.678000     14.905000     -1.296000
C         -12.154000     15.201000     -1.018000
H         -12.618000     14.207000     -1.021000
H         -12.522000     15.782000     -1.873000
C         -12.366000     15.824000      0.331000
H         -13.269000     15.373000      0.761000
H         -11.536000     15.671000      1.031000
C         -12.725000     17.335000      0.207000
H         -12.027000     17.767000     -0.521000
H         -13.686000     17.540000     -0.281000
C         -12.576000     18.168000      1.486000
C         -13.424000     17.557000      2.569000
C         -12.934000     16.542000      3.391000
H         -11.910000     16.207000      3.253000
C         -13.590000     16.086000      4.548000
H         -13.037000     15.339000      5.112000
C         -14.898000     16.519000      4.742000
H         -15.448000     16.137000      5.597000
C         -15.488000     17.505000      3.898000
H         -16.459000     17.923000      4.147000
C         -14.698000     18.046000      2.901000
H         -15.081000     18.891000      2.336000
C         -12.403000     22.883000      3.848000
C         -10.977000     21.579000      5.284000
C          -7.071000     23.686000      4.002000
C         -11.003000     22.720000     -0.928000
C          -6.262000     21.168000      1.753000
C         -12.072000     21.678000      4.522000
C          -8.253000     22.409000     -0.992000
C          -9.289000     24.574000      4.448000
C          -9.254000     18.693000      3.117000
C         -10.409000     21.469000     -1.137000
C         -11.212000     18.625000      1.779000
C          -8.828000     18.739000      1.772000
C          -8.706000     20.122000     -0.656000
C          -7.091000     22.347000     -0.216000
C         -11.249000     19.647000      4.138000
C          -6.478000     23.588000      1.829000
C         -12.288000     19.563000      1.510000
C         -12.121000     20.450000      0.386000
C          -6.124000     22.377000      2.470000
C          -9.998000     25.381000      1.096000
C          -8.197000     25.121000      2.398000
C          -9.264000     25.302000      3.254000
C         -10.512000     23.924000      4.910000
C         -12.690000     21.661000      0.589000
C         -10.652000     18.811000      3.164000
C         -10.169000     22.710000      5.412000
C          -9.006000     21.325000     -1.256000
C         -10.383000     20.324000      5.019000
C          -7.652000     19.417000      1.410000
C         -12.023000     24.051000      0.555000
C          -8.203000     23.773000      4.820000
C          -9.960000     18.676000      0.927000
C         -11.638000     24.791000      2.895000
C          -7.578000     19.998000      0.174000
C          -8.413000     19.353000      4.057000
C          -8.048000     24.396000      0.069000
C          -8.814000     23.681000     -0.794000
C          -7.285000     20.068000      3.695000
C         -12.148000     22.823000     -0.073000
C         -10.965000     20.390000     -0.439000
C         -10.810000     24.667000      0.185000
C         -12.862000     20.507000      2.591000
C          -8.172000     21.354000      5.238000
C          -9.893000     19.536000     -0.148000
C          -6.898000     20.073000      2.369000
C         -12.409000     24.074000      1.931000
C          -6.471000     22.435000      3.800000
C         -11.692000     24.096000      4.095000
C          -7.123000     24.353000      2.802000
C          -9.000000     20.189000      5.076000
C          -7.046000     21.228000      4.386000
C         -12.263000     20.485000      3.868000
C         -13.095000     21.707000      1.913000
C          -8.645000     25.222000      1.046000
C          -8.764000     22.600000      5.359000
C          -6.751000     21.136000      0.405000
C         -10.192000     23.841000     -0.767000
C          -7.004000     23.528000      0.506000
C         -12.857000     22.872000      2.548000
C         -10.439000     25.406000      2.472000
$end

--------------------------------------------------------------

             Standard Nuclear Orientation (Angstroms)
    I     Atom           X                Y                Z
 ----------------------------------------------------------------
    1      O     -13.6337667246     2.6188848298     0.0886203023
    2      C     -14.7343614196     3.3282745091    -0.5617231456
    3      H     -14.7060680126     3.4421319195    -1.6522596985
    4      H     -14.7844011010     4.2555997208     0.0210340783
    5      H     -15.7157051062     2.8658511107    -0.3980430631
    6      O     -12.3517530280     4.3553453423    -0.3511032137
    7      C     -12.4794125282     3.2967241796     0.1255825170
    8      C     -11.4486371073     2.6573652238     1.0016048667
    9      H     -11.9200430951     2.3854030648     1.9537429758
   10      H     -10.7595464271     3.4783895906     1.2330482152
   11      C     -10.8829325897     1.4306107079     0.2985111628
   12      H     -11.7531157600     0.8513032381    -0.0333684922
   13      H     -10.4015237789     1.6655778356    -0.6590409275
   14      C      -9.9143989449     0.6914568306     1.2913279258
   15      H      -9.2293032904     1.4770866537     1.6325723035
   16      H     -10.4310101579     0.2347621674     2.1453875485
   17      C      -9.2141661889    -0.4287978881     0.6362024016
   18      C     -10.0659699021    -1.5683698801     0.2754807512
   19      C     -10.5439325151    -1.7907477636    -1.0939548324
   20      H     -10.1642858693    -1.0479710640    -1.7892858320
   21      C     -11.5394530851    -2.7236186831    -1.4305698087
   22      H     -11.7199046176    -2.8625661748    -2.4925716161
   23      C     -12.1119616366    -3.4646943161    -0.4515463847
   24      H     -12.9540966342    -4.1125607538    -0.6766835087
   25      C     -11.7240240164    -3.2894303295     0.8740168684
   26      H     -12.3292694852    -3.8375655832     1.5895933256
   27      C     -10.6859299328    -2.3834537492     1.2283290322
   28      H     -10.5172237933    -2.0862819606     2.2596695029
   29      C      -4.8456170259    -3.7195049716     0.9758111490
   30      C      -5.1142665005    -3.4222321585    -1.3963562848
   31      C      -1.4851312393    -0.8668394902    -1.9878311925
   32      C      -4.6098080746     0.7163980964     3.2409431781
   33      C      -3.3165450646     2.0628133489    -2.0664991207
   34      C      -5.7218034929    -3.5431981301    -0.1309187966
   35      C      -3.3357789704     2.5490241134     1.5669127951
   36      C      -1.7787347790    -2.8611191734    -0.6312371093
   37      C      -6.7419941780     0.0799463065    -2.2037239871
   38      C      -5.3701606524     1.6476791960     2.5629863424
   39      C      -7.9626829627    -0.0897987248    -0.1809262920
   40      C      -6.7342627805     1.3290321190    -1.5797160877
   41      C      -5.5873105855     2.6262547378     0.5678658409
   42      C      -2.7814260503     2.6191094720     0.2718001040
   43      C      -6.9137928307    -2.0850687464    -1.3279677176
   44      C      -1.3412895992     1.0910234829    -0.9723824437
   45      C      -7.8158210324    -0.8289387708     1.1200650861
   46      C      -7.0993588397    -0.1320009245     2.1598557211
   47      C      -2.1140431240     1.2312130616    -2.1026106826
   48      C      -1.6951227144    -1.0387547439     2.3674669289
   49      C      -0.7507736908    -0.8512479308     0.3283641564
   50      C      -1.2188751548    -2.1720844406     0.4785404982
   51      C      -2.9215447209    -3.6687116170    -0.4285060516
   52      C      -6.2652073361    -1.0118622803     2.8847138200
   53      C      -7.4425242062    -0.7863530258    -1.3990494278
   54      C      -3.7404434825    -3.4713323864    -1.5349653856
   55      C      -4.7395870358     2.5816682334     1.6927510914
   56      C      -5.8591232756    -2.5181727641    -2.1189993474
   57      C      -5.5819220209     2.1298893769    -1.8122766742
   58      C      -3.9328191646    -1.4127337290     3.2658968458
   59      C      -1.8782024140    -2.1930936474    -1.8677730312
   60      C      -7.4290871099     1.2903671402    -0.3726178437
   61      C      -2.9442032768    -3.1181007936     1.8972289528
   62      C      -4.9973204062     2.7448534397    -0.6713322612
   63      C      -5.7108132178    -0.3404852189    -3.0702585563
   64      C      -1.4703834368     1.1939186562     1.4526512394
   65      C      -2.5613812304     1.6430732395     2.2841011625
   66      C      -4.5990771211     0.4567749636    -3.3177965389
   67      C      -5.1042133641    -0.5808156348     3.3988702033
   68      C      -6.5928165287     1.1878022087     2.0044608151
   69      C      -2.7919204506    -0.5955716600     3.1512439890
   70      C      -7.2224233091    -2.1572956494     1.1653656942
   71      C      -3.8454358827    -1.6749066744    -3.1912411045
   72      C      -6.7083826160     1.8271841540     0.7673043142
   73      C      -4.5375408857     1.7092830482    -2.6844437228
   74      C      -3.9956900686    -2.6842357441     2.7349327462
   75      C      -2.2343706875     0.0222225221    -2.7618247244
   76      C      -3.4898782605    -3.8202083958     0.8424049263
   77      C      -0.8664127961    -0.2019963916    -0.9080269776
   78      C      -5.2297326215    -1.6229133898    -2.9563619077
   79      C      -3.4197703705    -0.3541544422    -3.3678973045
   80      C      -6.8623540408    -2.7735319518    -0.0872447567
   81      C      -6.3542424447    -2.2689456522     2.2541679093
   82      C      -1.0894414052    -0.1338397189     1.4738848401
   83      C      -3.0644800944    -2.6442450768    -2.4739377389
   84      C      -3.6036341639     2.7406478247    -0.8578154265
   85      C      -3.2116375509     0.7314233907     3.1204756424
   86      C      -1.6584120076     1.7602513503     0.2137640226
   87      C      -5.1928969712    -3.1165717246     2.2012837678
   88      C      -1.7919310363    -2.3064845160     1.7467307743
   89      O       5.6001465468    -4.9273821442    -2.4865987225
   90      C       5.4524719390    -4.7140180777    -3.9468130853
   91      H       6.4466299019    -4.4860203918    -4.3513943502
   92      H       4.7472704628    -3.8829529296    -4.0693267474
   93      H       5.0296713880    -5.5673642615    -4.4925538523
   94      O       6.6886937561    -6.8803811641    -2.9781399737
   95      C       6.3074836841    -6.0508810209    -2.1610999541
   96      C       6.4019163150    -6.2356853162    -0.6443910662
   97      H       6.9349631853    -7.1883626702    -0.5366511328
   98      H       5.3731513233    -6.3457016762    -0.2789475106
   99      C       7.2130628432    -5.1566088227     0.0117409563
  100      H       7.8278223487    -5.6342181270     0.7848322206
  101      H       7.8770634648    -4.6157010404    -0.6729713523
  102      C       6.3064224224    -4.1723621354     0.8096379459
  103      H       5.4521371736    -3.9350404634     0.1633507514
  104      H       5.7955192691    -4.6162700858     1.6731272044
  105      C       6.9421503223    -2.8283849302     1.1858111896
  106      C       8.1939141782    -3.0851612561     1.9810892337
  107      C       9.4248358012    -3.2849238793     1.3558406012
  108      H       9.4748783157    -3.2307088303     0.2721425458
  109      C      10.6542788570    -3.3115673177     2.0375156702
  110      H      11.5233056451    -3.4066995870     1.3912523393
  111      C      10.6026355469    -3.3680123827     3.4268089881
  112      H      11.5359444996    -3.4473988134     3.9764281229
  113      C       9.3697387347    -3.2394445251     4.1311297648
  114      H       9.3686915575    -3.1535973746     5.2138093897
  115      C       8.2287251684    -3.0163376995     3.3833989402
  116      H       7.3046019760    -2.7812380832     3.9036522397
  117      C       6.4230016654     2.0978741240     3.0031318556
  118      C       8.3164916673     2.3297289921     1.5344838608
  119      C       6.0628737076     4.8055729645    -1.6484725819
  120      C       2.4541330292     0.1179363538     0.7393577559
  121      C       5.4943229144     2.0215872390    -3.6432105286
  122      C       7.6319395605     1.6161703411     2.4354236283
  123      C       2.5338694317     0.8762856033    -1.9218197131
  124      C       5.9922752921     4.8883057528     0.7795214769
  125      C       8.0029402670    -0.3575971961    -1.4106099369
  126      C       2.9377087541    -0.7406574145    -0.2558755128
  127      C       6.9303326450    -1.8127971547     0.1257942969
  128      C       6.8358525030    -0.8314300424    -2.0477956124
  129      C       4.0431762937    -0.9139456214    -2.1778254904
  130      C       3.2097474925     1.6509076908    -2.8701938315
  131      C       8.3808739574     0.1468721489     0.9421031365
  132      C       4.2703315573     3.8695808884    -2.6454146429
  133      C       6.2150275805    -1.6179852620     1.3749412023
  134      C       4.7893005666    -1.4218031970     1.2921820388
  135      C       5.4542907906     3.3753949731    -3.2426908060
  136      C       2.7349883157     3.5832129465     1.0563758066
  137      C       3.9539246635     4.7051511894    -0.4475702559
  138      C       4.5938036971     4.8720078104     0.7635035199
  139      C       6.7439687359     4.1508727570     1.7908683725
  140      C       4.3216943454    -0.5880653563     2.2501573176
  141      C       7.9960285884    -0.7672507509    -0.0679732795
  142      C       7.8120908276     3.5809832574     1.1762220063
  143      C       2.8975330168    -0.3853029629    -1.6253334800
  144      C       8.7548364661     1.4401195408     0.5272426476
  145      C       6.1543508921    -0.0399710889    -2.9873978044
  146      C       3.0103874733     1.5134757825     2.3989663533
  147      C       6.7215072687     4.8556177381    -0.4148541835
  148      C       6.1679382585    -1.7268351865    -1.1808710541
  149      C       4.5903598226     3.4018524065     2.7293390237
  150      C       4.7981927757    -0.1736599793    -3.1044253393
  151      C       8.4361631657     0.9423543854    -1.7965177053
  152      C       2.3690386070     3.0346198001    -1.2658172023
  153      C       2.0294047578     1.7582125441    -0.9524749530
  154      C       7.7354851965     1.7446945398    -2.6796675568
  155      C       3.1356781822     0.1940280505     1.9972787622
  156      C       4.1100657113    -1.4452151459     0.0437218303
  157      C       2.3547584983     2.2663979433     1.4034846272
  158      C       6.6324997948    -0.5575261549     2.4191233858
  159      C       8.3649411445     3.1849199122    -1.1463867325
  160      C       4.7992206552    -1.5649248459    -1.1703276131
  161      C       6.6067902385     1.2336277152    -3.2903461895
  162      C       4.1664257659     2.0717025833     3.0273446668
  163      C       6.5523001392     3.9527198182    -2.6479265722
  164      C       5.9766421604     3.4360326144     2.7840564197
  165      C       4.6927601137     4.7096817082    -1.6140254209
  166      C       8.8589528418     1.8826459185    -0.7870987028
  167      C       7.6984223702     3.0852080886    -2.3935700694
  168      C       7.7173395875     0.2863287442     2.1012467850
  169      C       5.4217047459    -0.0448998315     2.8936364016
  170      C       2.7617551854     3.9424214824    -0.2584027917
  171      C       7.8095791885     3.9965310502    -0.1714603463
  172      C       4.3769538328     1.1415008885    -3.4583231276
  173      C       1.9829422899     1.3789374520     0.3813933477
  174      C       3.1894727853     2.9661600941    -2.4305188927
  175      C       5.3346221902     1.2712560676     3.1715649491
  176      C       3.8906001394     4.1223372294     1.7363672186
 ----------------------------------------------------------------

    9   -5804.2307573825      8.25E-06 Convergence criterion met
 Total energy in the final basis set = -5804.2307573825

                    Orbital Energies (a.u.)
 --------------------------------------------------------------

 Alpha MOs
 -- Occupied --
-19.195 -19.190 -19.135 -19.129 -10.314 -10.304 -10.245 -10.245
-10.239 -10.234 -10.233 -10.233 -10.230 -10.229 -10.228 -10.226
-10.226 -10.223 -10.223 -10.222 -10.222 -10.222 -10.221 -10.220
-10.220 -10.220 -10.219 -10.219 -10.219 -10.218 -10.218 -10.218
-10.218 -10.218 -10.218 -10.218 -10.217 -10.217 -10.217 -10.217
-10.217 -10.216 -10.216 -10.216 -10.216 -10.216 -10.216 -10.216
-10.216 -10.216 -10.216 -10.216 -10.216 -10.215 -10.215 -10.215
-10.215 -10.215 -10.215 -10.214 -10.214 -10.214 -10.214 -10.214
-10.214 -10.214 -10.214 -10.214 -10.214 -10.214 -10.214 -10.214
-10.213 -10.213 -10.213 -10.213 -10.213 -10.213 -10.212 -10.212
-10.212 -10.212 -10.212 -10.212 -10.212 -10.212 -10.212 -10.211
-10.211 -10.211 -10.211 -10.211 -10.211 -10.211 -10.211 -10.211
-10.211 -10.211 -10.211 -10.211 -10.210 -10.210 -10.210 -10.210
-10.210 -10.210 -10.210 -10.210 -10.210 -10.209 -10.209 -10.209
-10.209 -10.209 -10.208 -10.208 -10.208 -10.208 -10.208 -10.207
-10.207 -10.207 -10.207 -10.207 -10.207 -10.206 -10.205 -10.205
-10.205 -10.204 -10.203 -10.203 -10.202 -10.201 -10.201 -10.201
-10.201 -10.200 -10.200 -10.199 -10.199 -10.199 -10.197 -10.197
-10.197 -10.197 -10.195 -10.194  -1.111  -1.087  -1.023  -1.003
 -0.988  -0.985  -0.974  -0.969  -0.967  -0.964  -0.962  -0.961
 -0.946  -0.938  -0.932  -0.928  -0.925  -0.925  -0.924  -0.924
 -0.922  -0.921  -0.904  -0.899  -0.891  -0.890  -0.888  -0.887
 -0.878  -0.878  -0.857  -0.854  -0.845  -0.843  -0.840  -0.840
 -0.839  -0.838  -0.825  -0.823  -0.811  -0.810  -0.803  -0.800
 -0.799  -0.798  -0.796  -0.794  -0.792  -0.790  -0.786  -0.784
 -0.775  -0.771  -0.770  -0.769  -0.767  -0.767  -0.767  -0.764
 -0.752  -0.749  -0.742  -0.740  -0.734  -0.734  -0.719  -0.719
 -0.718  -0.715  -0.714  -0.713  -0.712  -0.711  -0.710  -0.709
 -0.707  -0.706  -0.705  -0.705  -0.703  -0.702  -0.674  -0.674
 -0.661  -0.661  -0.660  -0.659  -0.649  -0.649  -0.634  -0.632
 -0.631  -0.630  -0.627  -0.626  -0.620  -0.620  -0.618  -0.618
 -0.617  -0.615  -0.615  -0.613  -0.613  -0.610  -0.610  -0.610
 -0.608  -0.606  -0.604  -0.604  -0.570  -0.567  -0.564  -0.562
 -0.561  -0.560  -0.560  -0.560  -0.559  -0.556  -0.556  -0.554
 -0.541  -0.538  -0.535  -0.532  -0.531  -0.528  -0.526  -0.525
 -0.523  -0.523  -0.520  -0.519  -0.516  -0.514  -0.513  -0.513
 -0.512  -0.508  -0.502  -0.498  -0.496  -0.492  -0.490  -0.487
 -0.485  -0.485  -0.482  -0.482  -0.481  -0.479  -0.478  -0.474
 -0.473  -0.473  -0.472  -0.472  -0.471  -0.469  -0.467  -0.466
 -0.466  -0.466  -0.464  -0.463  -0.462  -0.461  -0.460  -0.458
 -0.458  -0.455  -0.454  -0.452  -0.451  -0.449  -0.447  -0.444
 -0.443  -0.443  -0.442  -0.440  -0.439  -0.436  -0.435  -0.433
 -0.431  -0.430  -0.428  -0.428  -0.427  -0.427  -0.425  -0.424
 -0.424  -0.422  -0.421  -0.421  -0.421  -0.420  -0.419  -0.418
 -0.418  -0.417  -0.416  -0.416  -0.415  -0.414  -0.414  -0.413
 -0.412  -0.412  -0.410  -0.409  -0.405  -0.401  -0.400  -0.399
 -0.394  -0.393  -0.391  -0.391  -0.390  -0.388  -0.387  -0.384
 -0.383  -0.382  -0.374  -0.374  -0.370  -0.368  -0.368  -0.367
 -0.365  -0.365  -0.364  -0.363  -0.361  -0.361  -0.360  -0.359
 -0.357  -0.357  -0.356  -0.355  -0.353  -0.353  -0.351  -0.351
 -0.350  -0.349  -0.349  -0.348  -0.347  -0.346  -0.345  -0.345
 -0.344  -0.341  -0.341  -0.340  -0.339  -0.338  -0.337  -0.335
 -0.334  -0.331  -0.330  -0.329  -0.329  -0.328  -0.327  -0.322
 -0.313  -0.306  -0.304  -0.301  -0.290  -0.288  -0.274  -0.272
 -0.270  -0.268  -0.268  -0.266  -0.266  -0.265  -0.264  -0.263
 -0.262  -0.261  -0.260  -0.259  -0.258  -0.257  -0.255  -0.255
 -0.249  -0.248  -0.244  -0.242  -0.224  -0.221  -0.213  -0.211
 -0.210  -0.209  -0.207  -0.205  -0.198  -0.196

          Ground-State Mulliken Net Atomic Charges

     Atom                 Charge (a.u.)
  ----------------------------------------
      1 O                    -0.463919
      2 C                    -0.087253
      3 H                     0.130334
      4 H                     0.130358
      5 H                     0.116978
      6 O                    -0.446844
      7 C                     0.569108
      8 C                    -0.235987
      9 H                     0.123116
     10 H                     0.130229
     11 C                    -0.205834
     12 H                     0.134419
     13 H                     0.115945
     14 C                    -0.173761
     15 H                     0.115306
     16 H                     0.106177
     17 C                     0.000316
     18 C                     0.110396
     19 C                    -0.114228
     20 H                     0.085293
     21 C                    -0.082119
     22 H                     0.095164
     23 C                    -0.075911
     24 H                     0.090398
     25 C                    -0.089904
     26 H                     0.091354
     27 C                    -0.122305
     28 H                     0.083247
     29 C                     0.013108
     30 C                    -0.011164
     31 C                     0.010852
     32 C                     0.001708
     33 C                    -0.006433
     34 C                    -0.004651
     35 C                     0.016464
     36 C                    -0.007961
     37 C                     0.020943
     38 C                    -0.035197
     39 C                    -0.078357
     40 C                     0.009366
     41 C                     0.014927
     42 C                    -0.017059
     43 C                    -0.003313
     44 C                     0.037132
     45 C                    -0.078549
     46 C                     0.035381
     47 C                    -0.026191
     48 C                    -0.026728
     49 C                     0.010823
     50 C                    -0.012029
     51 C                    -0.008705
     52 C                    -0.001693
     53 C                     0.019459
     54 C                     0.025604
     55 C                    -0.013299
     56 C                     0.010106
     57 C                    -0.025928
     58 C                     0.004795
     59 C                     0.000523
     60 C                    -0.010499
     61 C                     0.000337
     62 C                    -0.000066
     63 C                     0.013320
     64 C                    -0.009024
     65 C                    -0.013047
     66 C                    -0.021291
     67 C                     0.017093
     68 C                    -0.004700
     69 C                    -0.001656
     70 C                     0.022429
     71 C                    -0.005854
     72 C                     0.012290
     73 C                    -0.004666
     74 C                    -0.006139
     75 C                     0.012542
     76 C                     0.007476
     77 C                    -0.019201
     78 C                     0.006629
     79 C                     0.007690
     80 C                    -0.004619
     81 C                     0.013599
     82 C                     0.024981
     83 C                    -0.035804
     84 C                     0.004050
     85 C                     0.004578
     86 C                     0.013339
     87 C                    -0.030167
     88 C                     0.000023
     89 O                    -0.463235
     90 C                    -0.091945
     91 H                     0.132227
     92 H                     0.125450
     93 H                     0.139032
     94 O                    -0.474622
     95 C                     0.584535
     96 C                    -0.249778
     97 H                     0.133042
     98 H                     0.133265
     99 C                    -0.181662
    100 H                     0.122700
    101 H                     0.113300
    102 C                    -0.184419
    103 H                     0.115137
    104 H                     0.104477
    105 C                     0.004351
    106 C                     0.112527
    107 C                    -0.126737
    108 H                     0.083380
    109 C                    -0.070895
    110 H                     0.095823
    111 C                    -0.105414
    112 H                     0.087475
    113 C                    -0.083336
    114 H                     0.096103
    115 C                    -0.119600
    116 H                     0.084126
    117 C                     0.002598
    118 C                    -0.015267
    119 C                    -0.005610
    120 C                    -0.017212
    121 C                    -0.001544
    122 C                     0.012523
    123 C                     0.032084
    124 C                    -0.012446
    125 C                     0.000288
    126 C                    -0.032323
    127 C                    -0.073524
    128 C                    -0.025778
    129 C                    -0.013653
    130 C                    -0.003415
    131 C                     0.025857
    132 C                    -0.021041
    133 C                    -0.110344
    134 C                     0.068092
    135 C                    -0.006679
    136 C                    -0.003369
    137 C                     0.021407
    138 C                    -0.007560
    139 C                    -0.017155
    140 C                    -0.003080
    141 C                     0.038003
    142 C                     0.037695
    143 C                    -0.004181
    144 C                    -0.001016
    145 C                     0.036734
    146 C                    -0.021019
    147 C                    -0.006193
    148 C                     0.026185
    149 C                     0.020383
    150 C                    -0.018981
    151 C                    -0.021730
    152 C                    -0.026320
    153 C                     0.029924
    154 C                     0.038342
    155 C                     0.010188
    156 C                     0.007625
    157 C                     0.001745
    158 C                     0.010919
    159 C                    -0.023607
    160 C                     0.014790
    161 C                    -0.007061
    162 C                    -0.019913
    163 C                     0.010496
    164 C                    -0.039234
    165 C                     0.018250
    166 C                    -0.034278
    167 C                    -0.007201
    168 C                     0.012979
    169 C                    -0.014319
    170 C                     0.010876
    171 C                     0.015420
    172 C                    -0.032827
    173 C                     0.001122
    174 C                     0.006825
    175 C                     0.033878
    176 C                    -0.010307
  ----------------------------------------
  Sum of atomic charges =     0.000000

                    Cartesian Multipole Moments
 -----------------------------------------------------------------
    Charge (ESU x 10^10)
                 0.0000
    Dipole Moment (Debye)
         X      -3.3437      Y      -1.5995      Z       2.3175
       Tot       4.3715
    Quadrupole Moments (Debye-Ang)
        XX    -728.4619     XY      15.2139     YY    -836.0209
        XZ       9.1174     YZ      -8.8504     ZZ    -798.7845

 Total job time:  854.65s(wall), 7281.17s(cpu)
        *  Thank you very much for using Q-Chem.  Have a nice day.  *
