 Q-Chem 4.4, Q-Chem, Inc., Pleasanton, CA (2016)
 Q-Chem 4.4.2 for Intel X86 Linux

User input:
--------------------------------------------------------------
$comment
SP
$end

$rem
MEM_STATIC 5000
MEM_TOTAL 20000
JOBTYPE SP
EXCHANGE B3LYP
BASIS 6-31g(d,p)
$end

$molecule
0 1
O          10.085000     13.057000      9.012000
C          11.326000     13.725000      9.059000
H          11.725000     13.615000      8.043000
H          11.994000     13.295000      9.817000
H          11.139000     14.763000      9.359000
O           8.853000     14.785000      8.139000
C           8.948000     13.680000      8.584000
C           7.718000     12.846000      8.828000
H           7.348000     12.523000      7.847000
H           7.056000     13.535000      9.368000
C           7.761000     11.554000      9.719000
H           8.522000     10.857000      9.346000
H           8.048000     11.795000     10.751000
C           6.386000     10.929000      9.805000
H           5.624000     11.648000     10.130000
H           6.016000     10.684000      8.802000
C           6.375000      9.658000     10.740000
C           6.289000     10.036000     12.194000
C           5.075000     10.171000     12.901000
H           4.073000     10.158000     12.482000
C           5.173000     10.486000     14.254000
H           4.272000     10.743000     14.803000
C           6.374000     10.710000     14.930000
H           6.413000     11.087000     15.948000
C           7.561000     10.430000     14.258000
H           8.519000     10.407000     14.769000
C           7.525000     10.144000     12.889000
H           8.437000     10.064000     12.306000
C           8.257000      4.559000     11.767000
C           5.932000      4.474000     12.573000
C           4.438000      1.796000      9.138000
C           8.553000      6.268000      7.079000
C           3.105000      4.529000      7.250000
C           7.177000      5.139000     12.438000
C           6.256000      5.323000      5.741000
C           6.552000      1.727000     10.442000
C           3.698000      6.956000     10.365000
C           7.494000      7.145000      6.841000
C           5.540000      8.480000     10.361000
C           3.647000      7.555000      9.086000
C           5.208000      7.260000      6.806000
C           5.064000      4.606000      5.865000
C           5.465000      6.615000     12.125000
C           4.578000      2.589000      6.973000
C           7.063000      8.333000     10.402000
C           7.727000      8.014000      9.116000
C           3.449000      3.152000      7.556000
C           8.551000      2.912000      7.790000
C           6.628000      1.705000      7.992000
C           7.267000      1.653000      9.184000
C           6.964000      2.539000     11.442000
C           8.776000      7.197000      9.343000
C           4.790000      7.484000     11.203000
C           5.867000      3.188000     12.043000
C           6.317000      6.631000      6.224000
C           4.893000      5.342000     12.391000
C           3.251000      6.641000      8.087000
C           9.632000      4.988000      8.569000
C           5.120000      1.797000     10.396000
C           4.823000      8.266000      8.974000
C           8.912000      3.244000     10.119000
C           3.993000      6.546000      6.927000
C           3.140000      5.709000     10.668000
C           6.844000      3.180000      6.106000
C           7.370000      4.466000      5.945000
C           2.689000      4.927000      9.630000
C           9.217000      6.323000      8.327000
C           7.062000      8.036000      7.861000
C           9.149000      4.179000      7.526000
C           7.674000      7.288000     11.341000
C           3.622000      3.587000     11.191000
C           5.646000      8.084000      7.831000
C           2.668000      5.382000      8.285000
C           9.550000      4.516000      9.862000
C           3.415000      2.710000      8.905000
C           8.224000      3.238000     11.300000
C           5.178000      1.760000      7.923000
C           3.700000      4.882000     11.684000
C           3.058000      3.629000      9.883000
C           6.852000      6.500000     12.174000
C           8.738000      6.718000     10.655000
C           7.406000      2.443000      7.122000
C           4.694000      2.703000     11.376000
C           3.919000      5.278000      6.377000
C           8.522000      5.005000      6.576000
C           5.412000      3.296000      6.063000
C           9.021000      5.353000     10.887000
C           8.435000      2.467000      9.070000
O          11.773000      9.361000      7.158000
C          11.800000      9.509000      8.616000
H          11.075000      8.934000      9.205000
H          11.653000     10.578000      8.813000
H          12.833000      9.424000      8.975000
O           9.554000      9.301000      7.004000
C          10.623000      9.264000      6.492000
C          10.847000      9.002000      4.916000
H          11.870000      8.683000      4.682000
H          10.638000      9.998000      4.506000
C           9.848000      8.011000      4.332000
H           9.819000      7.006000      4.771000
H           8.873000      8.436000      4.600000
C           9.937000      7.814000      2.828000
H          10.017000      8.808000      2.371000
H          10.897000      7.381000      2.521000
C           8.651000      7.260000      2.073000
C           7.541000      8.243000      1.991000
C           7.572000      9.211000      1.002000
H           8.336000      9.106000      0.238000
C           6.533000     10.150000      0.915000
H           6.552000     11.012000      0.254000
C           5.626000     10.229000      1.962000
H           4.981000     11.099000      2.048000
C           5.547000      9.220000      2.891000
H           4.719000      9.230000      3.594000
C           6.474000      8.201000      2.927000
H           6.505000      7.394000      3.654000
C           5.176000      3.295000      1.238000
C           5.358000      4.445000     -0.920000
C           7.655000      1.185000     -3.230000
C           9.826000      1.976000      2.748000
C          10.721000      2.806000     -2.766000
C           5.318000      4.446000      0.462000
C          11.395000      1.451000      0.522000
C           5.807000      1.063000     -1.565000
C           8.874000      6.205000     -1.484000
C          10.694000      2.979000      2.276000
C           8.919000      6.431000      0.816000
C          10.175000      5.822000     -1.080000
C          11.601000      3.969000      0.441000
C          11.394000      1.481000     -0.900000
C           6.773000      6.036000     -0.304000
C           9.688000      0.656000     -2.413000
C           8.294000      5.805000      2.074000
C           9.079000      4.710000      2.728000
C           9.855000      1.793000     -3.211000
C           7.798000     -0.306000      1.019000
C           7.809000     -0.360000     -1.297000
C           6.507000      0.004000     -0.863000
C           5.115000      2.016000     -0.895000
C           8.136000      3.722000      3.196000
C           8.083000      6.441000     -0.386000
C           5.263000      3.228000     -1.575000
C          11.520000      2.734000      1.179000
C           6.149000      5.478000     -1.415000
C          10.884000      4.822000     -1.757000
C           7.681000      1.333000      2.795000
C           6.384000      1.627000     -2.750000
C          10.172000      5.938000      0.325000
C           5.854000      1.084000      1.200000
C          11.653000      3.879000     -0.978000
C           8.297000      5.553000     -2.614000
C           9.974000     -0.134000     -0.142000
C          10.540000      0.510000      0.973000
C           9.039000      4.516000     -3.217000
C           8.580000      2.367000      3.215000
C          10.268000      4.306000      2.214000
C           8.388000      0.257000      2.168000
C           6.947000      5.355000      2.085000
C           6.899000      3.931000     -3.229000
C          10.792000      4.910000      1.075000
C          10.315000      4.163000     -2.794000
C           6.412000      1.684000      2.360000
C           8.600000      2.133000     -3.684000
C           5.083000      2.041000      0.518000
C           8.352000      0.256000     -2.472000
C           6.983000      5.158000     -2.539000
C           8.186000      3.505000     -3.660000
C           6.190000      5.509000      0.833000
C           6.857000      4.053000      2.738000
C           8.606000     -0.478000     -0.120000
C           6.075000      2.979000     -2.629000
C          11.549000      2.627000     -1.647000
C           9.700000      0.728000      2.103000
C          10.530000      0.480000     -1.279000
C           6.006000      3.037000      2.328000
C           6.514000      0.009000      0.547000
$end

--------------------------------------------------------------

             Standard Nuclear Orientation (Angstroms)
    I     Atom           X                Y                Z
 ----------------------------------------------------------------
    1      O      -6.1891146926    -6.4685946845    -1.0485790378
    2      C      -6.3220371146    -7.5176669908    -1.9814739546
    3      H      -5.2998632365    -7.8979149372    -2.1003396869
    4      H      -6.7493159449    -7.1694105897    -2.9311256172
    5      H      -7.0286276231    -8.2478852985    -1.5692554733
    6      O      -6.2457184202    -7.7545765191     0.8511535063
    7      C      -6.2027754367    -6.6964049281     0.2975256673
    8      C      -6.2676073412    -5.4166906131     1.0888031763
    9      H      -5.3003205566    -5.3005027620     1.5932302371
   10      H      -7.1211592858    -5.5836427113     1.7582365745
   11      C      -6.5638083662    -4.0363584375     0.4018227997
   12      H      -5.8451684794    -3.8488212144    -0.4059181879
   13      H      -7.5567536747    -4.0331007216    -0.0667100183
   14      C      -6.5872878367    -2.9302130704     1.4335868915
   15      H      -7.2710805029    -3.1514593675     2.2622651558
   16      H      -5.6306564500    -2.8883907274     1.9684151646
   17      C      -6.9392357496    -1.5330706236     0.7902264561
   18      C      -8.4214108256    -1.3696490574     0.5881214441
   19      C      -9.2856959091    -0.7888092426     1.5407527495
   20      H      -9.0388495406    -0.5166476456     2.5628725739
   21      C     -10.6257544441    -0.6747007115     1.1792830193
   22      H     -11.3509012916    -0.3716000590     1.9286447771
   23      C     -11.1615023505    -1.1265811493    -0.0283308473
   24      H     -12.2296045611    -1.1481885708    -0.2249644835
   25      C     -10.2757974810    -1.5604529467    -1.0113034551
   26      H     -10.5982335567    -1.7553518748    -2.0298629207
   27      C      -8.9239827381    -1.7289532000    -0.6927794131
   28      H      -8.2359620847    -2.2001145926    -1.3875221876
   29      C      -5.6075871806     2.4619770055    -2.7962426334
   30      C      -6.6296726359     3.6993757941    -0.9289795132
   31      C      -2.6622829436     5.5218308213     0.5343802179
   32      C      -1.9767274465    -0.6042504793    -1.2468080258
   33      C      -2.2052349067     3.0874984941     3.1181478570
   34      C      -6.5954230746     2.5941729501    -1.8165766297
   35      C      -0.7080609943     0.6925936955     0.9137841661
   36      C      -3.5269603866     5.1629260955    -1.7672916348
   37      C      -5.9082126543     1.7345605223     2.4835474746
   38      C      -2.2520869593    -1.0226100356     0.0556536513
   39      C      -6.2477252634    -0.3062446648     1.2854650998
   40      C      -4.9880881356     0.8348317430     3.0675868515
   41      C      -2.5828883030    -0.2375740696     2.1803971660
   42      C      -0.7045167072     1.8185513758     1.7399413787
   43      C      -7.1286819793     1.8900257816     0.2875385539
   44      C      -0.9865055251     4.1012535082     1.2481057543
   45      C      -6.0157484370    -0.7628359687    -0.1569391893
   46      C      -4.6292133755    -1.1509377111    -0.5081521744
   47      C      -1.8944726484     4.2397090857     2.2911420702
   48      C      -1.3044225949     2.5221764097    -2.4884690481
   49      C      -1.2807171339     4.3827450346    -1.1719188426
   50      C      -2.2550786164     4.5517580250    -2.0960093741
   51      C      -4.6978591375     4.6133538395    -2.1623289121
   52      C      -4.3688229348    -0.7840049694    -1.7797559576
   53      C      -6.7258228349     1.1133485284     1.4256716543
   54      C      -5.6515421457     4.6705523469    -1.1264582394
   55      C      -1.6526698263    -0.3108027016     1.1346547727
   56      C      -6.9496220002     3.2985522723     0.3371333999
   57      C      -3.7757915569     1.4666625252     3.4159255774
   58      C      -2.6782803764     0.5479962836    -3.0364705314
   59      C      -3.7114960749     5.6488916345    -0.4303458338
   60      C      -5.0024041237    -0.2759007302     2.2508191824
   61      C      -3.5018249536     2.8250775544    -3.3512898698
   62      C      -2.5809896594     0.8938566399     3.0292333956
   63      C      -5.7710594063     3.1267374940     2.5183937911
   64      C      -0.1160174163     2.4302080550    -0.3906692594
   65      C      -0.4020183735     1.0614340202    -0.4231360743
   66      C      -4.5828238303     3.6537081773     2.9686904877
   67      C      -3.0405715367    -0.5199796824    -2.1755486702
   68      C      -3.5894055125    -1.3036066338     0.4474763141
   69      C      -1.4793323930     1.1092821327    -2.5641349210
   70      C      -6.3737807252     0.1964596656    -1.2965144463
   71      C      -5.3456089118     4.9373341433     1.2736172447
   72      C      -3.7776176706    -0.7998576694     1.7586106185
   73      C      -3.5419490179     2.8460346715     3.4985339862
   74      C      -3.6795084995     1.3943885568    -3.4636933835
   75      C      -2.9517293607     5.0589409586     1.8142894907
   76      C      -4.6685254848     3.4706727139    -3.0510270510
   77      C      -1.4409503870     4.8815107033     0.1830144075
   78      C      -6.2918382970     3.9416616960     1.4722232065
   79      C      -4.2514596598     4.7111595966     2.1581546881
   80      C      -6.9354371293     1.4615471092    -1.0233609294
   81      C      -5.3784614594     0.0571722413    -2.2543926080
   82      C      -0.6718878452     3.1665146316    -1.4105367467
   83      C      -5.0175164638     5.3400101031    -0.0283322232
   84      C      -1.5930027578     1.8467107688     2.8510455982
   85      C      -1.0274576376     0.3421959774    -1.4754232806
   86      C      -0.3213577133     2.8773338486     0.9598280146
   87      C      -5.0136194147     1.1996600390    -3.0018883703
   88      C      -2.3091655872     3.3544543481    -2.8727683489
   89      O      -2.8169487502    -4.5156948417    -3.2307236391
   90      C      -4.1966811392    -4.1963723849    -3.6085710996
   91      H      -4.6067803924    -3.2301193441    -3.2902243335
   92      H      -4.8162734266    -5.0014169530    -3.1948228176
   93      H      -4.3461699613    -4.4147680120    -4.6730669626
   94      O      -2.9615025489    -3.6429328117    -1.1889921096
   95      C      -2.3331191618    -4.1904844791    -2.0325533050
   96      C      -0.7664714204    -4.5465984379    -1.8862874422
   97      H      -0.2863530858    -4.7449429058    -2.8523060015
   98      H      -0.8142226905    -5.4548556320    -1.2726216654
   99      C       0.0151219674    -3.4816331368    -1.1272757931
  100      H       0.0070017695    -2.4632544325    -1.5352290713
  101      H      -0.5308943710    -3.3830849289    -0.1811106865
  102      C       1.4720320076    -3.8184658310    -0.8576410940
  103      H       1.5079186712    -4.8529624296    -0.4945792055
  104      H       2.0545603680    -3.9164677414    -1.7819756302
  105      C       2.1974753142    -3.0727072032     0.3458177038
  106      C       1.7315734412    -3.5137674951     1.6850392179
  107      C       2.2544607976    -4.6736617106     2.2303283353
  108      H       3.0962843129    -5.1220712972     1.7119857733
  109      C       1.8202542412    -5.1060524710     3.4925937181
  110      H       2.0849811941    -6.0665644044     3.9257939792
  111      C       0.7115459018    -4.4902630993     4.0553265747
  112      H       0.2019079770    -4.9629889165     4.8902639899
  113      C       0.2526460337    -3.2949516399     3.5573261470
  114      H      -0.5052811248    -2.7584707638     4.1209108275
  115      C       0.7490990613    -2.7655186110     2.3859077506
  116      H       0.4097064604    -1.8514305761     1.9063300958
  117      C       4.0321796326     1.4553276420     2.4963607758
  118      C       5.5671279545    -0.2882459513     3.2815185775
  119      C       9.2670151244     0.9058208669     0.8066552754
  120      C       3.8236241514     1.2487347137    -2.5589517737
  121      C       8.6339297399    -1.5513653117    -1.6026458638
  122      C       4.3049458894     0.1605829928     2.9395039383
  123      C       6.2712370230     0.3890636642    -3.5400832215
  124      C       7.5448750713     2.2581391860     1.9931129449
  125      C       5.8763511000    -3.3647679234     0.7880580100
  126      C       3.9790264914    -0.1069352086    -2.9056882363
  127      C       3.7030886520    -2.8555180183     0.1874784012
  128      C       5.8402819936    -3.4162956683    -0.6256427755
  129      C       5.3839169843    -1.8946974046    -2.9184567021
  130      C       7.5519032072    -0.0830763385    -3.1401295463
  131      C       4.5784152775    -2.0250134610     2.3228487389
  132      C       9.0145484932     0.8235199079    -1.4316266890
  133      C       2.7187979703    -1.6742282478     0.2156090266
  134      C       2.6636403674    -0.8293573382    -1.0197519671
  135      C       9.3162859551    -0.4758195429    -1.0095680488
  136      C       6.0104905071     3.4736791431    -0.9536521665
  137      C       8.1384782287     2.7887180067    -0.3458779501
  138      C       7.4201352140     3.1202476925     0.8331586824
  139      C       6.4652379804     1.9154524689     2.7367005764
  140      C       2.4955650287     0.5414633526    -0.5990165227
  141      C       4.6756913522    -2.9141791806     1.2803657950
  142      C       6.6276010930     0.5957525301     3.1671402251
  143      C       5.1871740865    -0.5631368431    -3.4329163246
  144      C       5.7209556685    -1.6469210739     3.0204937788
  145      C       6.9471132087    -3.0418199238    -1.3974604859
  146      C       3.7357511950     2.6598267772    -0.8217757516
  147      C       8.4805093663     1.1721973564     1.9692632310
  148      C       4.5171365715    -3.0741920411    -0.9716793346
  149      C       5.0297696703     3.0899304321     1.1992343997
  150      C       6.7163744805    -2.2828777491    -2.6050272189
  151      C       7.0796298413    -2.9297601807     1.4187889626
  152      C       7.3003905125     2.1079179104    -2.5609278838
  153      C       6.1123632669     1.6794268996    -3.1800431536
  154      C       8.1383181249    -2.5129727459     0.5851167535
  155      C       3.0724493095     1.5453413963    -1.4314559499
  156      C       3.4547322672    -1.1071536091    -2.0865864613
  157      C       4.8267221782     3.1165153865    -1.6292234763
  158      C       2.6986077291    -0.7539495704     1.2971401219
  159      C       8.0819767943    -1.1725283860     2.3520359855
  160      C       4.3254736923    -2.1924804404    -2.0623369317
  161      C       8.0697169405    -2.5746850428    -0.8016779213
  162      C       3.8170183197     2.7167579828     0.5613155296
  163      C       9.4383618701    -0.4267935285     0.3677655785
  164      C       5.1665560248     2.3501275573     2.3864139142
  165      C       9.0398659153     1.6742645157    -0.3252950748
  166      C       6.9842314148    -2.0498741928     2.4699529786
  167      C       8.8198754746    -1.4436209355     1.1664473692
  168      C       3.6710390542    -0.9837944444     2.3768704826
  169      C       2.6042103857     0.6123850110     0.7932235087
  170      C       7.2256282297     2.9482060551    -1.4301889948
  171      C       7.7962897837     0.1619987272     2.6396126118
  172      C       7.8020786011    -1.3694816769    -2.7183196630
  173      C       4.8828855526     2.1748267662    -2.6575610754
  174      C       8.1698273815     1.0020357576    -2.5632071478
  175      C       3.2580134778     1.6956413262     1.3621297156
  176      C       6.1374554244     3.5559998341     0.4419725014
 ----------------------------------------------------------------

    9   -5804.2584535428      8.99E-06 Convergence criterion met
 Total energy in the final basis set = -5804.2584535428

                    Orbital Energies (a.u.)
 --------------------------------------------------------------

 Alpha MOs
 -- Occupied --
-19.202 -19.195 -19.143 -19.139 -10.324 -10.320 -10.255 -10.251
-10.239 -10.239 -10.239 -10.234 -10.233 -10.231 -10.231 -10.228
-10.228 -10.227 -10.225 -10.222 -10.221 -10.220 -10.220 -10.220
-10.219 -10.219 -10.219 -10.219 -10.219 -10.219 -10.218 -10.218
-10.218 -10.218 -10.218 -10.217 -10.217 -10.217 -10.217 -10.217
-10.217 -10.217 -10.217 -10.217 -10.217 -10.217 -10.216 -10.216
-10.216 -10.216 -10.216 -10.216 -10.215 -10.215 -10.215 -10.215
-10.215 -10.215 -10.215 -10.214 -10.214 -10.214 -10.214 -10.214
-10.214 -10.214 -10.214 -10.214 -10.214 -10.214 -10.214 -10.214
-10.213 -10.213 -10.213 -10.213 -10.213 -10.213 -10.213 -10.213
-10.212 -10.212 -10.212 -10.212 -10.212 -10.212 -10.212 -10.212
-10.212 -10.212 -10.212 -10.212 -10.212 -10.212 -10.212 -10.212
-10.212 -10.211 -10.211 -10.211 -10.211 -10.211 -10.211 -10.210
-10.210 -10.210 -10.210 -10.210 -10.210 -10.210 -10.209 -10.209
-10.209 -10.209 -10.209 -10.208 -10.208 -10.208 -10.208 -10.208
-10.208 -10.207 -10.207 -10.207 -10.207 -10.207 -10.207 -10.206
-10.206 -10.206 -10.204 -10.204 -10.202 -10.202 -10.202 -10.202
-10.201 -10.199 -10.199 -10.198 -10.196 -10.195 -10.194 -10.194
-10.192 -10.191 -10.191 -10.190  -1.112  -1.104  -1.029  -1.028
 -0.982  -0.982  -0.965  -0.963  -0.963  -0.962  -0.960  -0.958
 -0.931  -0.931  -0.926  -0.926  -0.925  -0.925  -0.922  -0.921
 -0.920  -0.919  -0.898  -0.895  -0.890  -0.887  -0.887  -0.885
 -0.874  -0.872  -0.854  -0.854  -0.840  -0.839  -0.838  -0.837
 -0.834  -0.834  -0.818  -0.817  -0.805  -0.803  -0.798  -0.796
 -0.795  -0.794  -0.792  -0.791  -0.791  -0.789  -0.785  -0.782
 -0.770  -0.770  -0.767  -0.766  -0.764  -0.764  -0.761  -0.761
 -0.753  -0.750  -0.747  -0.747  -0.732  -0.731  -0.717  -0.715
 -0.714  -0.714  -0.713  -0.712  -0.711  -0.710  -0.708  -0.707
 -0.706  -0.705  -0.704  -0.703  -0.702  -0.702  -0.672  -0.672
 -0.658  -0.657  -0.655  -0.654  -0.645  -0.644  -0.634  -0.631
 -0.629  -0.625  -0.622  -0.621  -0.620  -0.618  -0.616  -0.615
 -0.614  -0.614  -0.613  -0.611  -0.609  -0.608  -0.608  -0.606
 -0.605  -0.604  -0.601  -0.600  -0.571  -0.570  -0.563  -0.562
 -0.562  -0.559  -0.558  -0.556  -0.556  -0.555  -0.552  -0.550
 -0.534  -0.534  -0.534  -0.530  -0.528  -0.527  -0.526  -0.524
 -0.522  -0.522  -0.518  -0.517  -0.516  -0.514  -0.511  -0.510
 -0.507  -0.507  -0.503  -0.500  -0.498  -0.493  -0.488  -0.487
 -0.484  -0.483  -0.482  -0.481  -0.480  -0.479  -0.477  -0.477
 -0.475  -0.474  -0.471  -0.470  -0.469  -0.468  -0.467  -0.467
 -0.465  -0.464  -0.463  -0.462  -0.461  -0.460  -0.460  -0.458
 -0.458  -0.455  -0.452  -0.450  -0.447  -0.445  -0.443  -0.442
 -0.441  -0.440  -0.439  -0.437  -0.437  -0.436  -0.433  -0.432
 -0.431  -0.430  -0.428  -0.428  -0.427  -0.426  -0.425  -0.425
 -0.424  -0.423  -0.422  -0.421  -0.420  -0.419  -0.418  -0.417
 -0.416  -0.415  -0.415  -0.415  -0.414  -0.414  -0.413  -0.411
 -0.410  -0.409  -0.409  -0.407  -0.404  -0.400  -0.396  -0.395
 -0.393  -0.393  -0.392  -0.389  -0.388  -0.387  -0.386  -0.384
 -0.382  -0.378  -0.375  -0.371  -0.370  -0.369  -0.366  -0.365
 -0.364  -0.364  -0.362  -0.362  -0.360  -0.359  -0.357  -0.357
 -0.356  -0.355  -0.355  -0.354  -0.353  -0.351  -0.350  -0.348
 -0.348  -0.348  -0.347  -0.345  -0.345  -0.345  -0.344  -0.343
 -0.341  -0.341  -0.339  -0.338  -0.337  -0.336  -0.332  -0.331
 -0.330  -0.329  -0.329  -0.327  -0.326  -0.325  -0.323  -0.322
 -0.315  -0.309  -0.307  -0.304  -0.285  -0.282  -0.279  -0.275
 -0.271  -0.270  -0.270  -0.266  -0.265  -0.265  -0.263  -0.262
 -0.261  -0.259  -0.258  -0.257  -0.256  -0.255  -0.254  -0.250
 -0.247  -0.246  -0.246  -0.241  -0.218  -0.215  -0.211  -0.210
 -0.207  -0.207  -0.205  -0.204  -0.201  -0.198

          Ground-State Mulliken Net Atomic Charges

     Atom                 Charge (a.u.)
  ----------------------------------------
      1 O                    -0.466599
      2 C                    -0.084453
      3 H                     0.126790
      4 H                     0.119144
      5 H                     0.132140
      6 O                    -0.452938
      7 C                     0.589612
      8 C                    -0.264167
      9 H                     0.141618
     10 H                     0.137251
     11 C                    -0.187589
     12 H                     0.129635
     13 H                     0.101838
     14 C                    -0.183130
     15 H                     0.109820
     16 H                     0.107156
     17 C                     0.008154
     18 C                     0.069266
     19 C                    -0.096356
     20 H                     0.098700
     21 C                    -0.098142
     22 H                     0.084060
     23 C                    -0.074995
     24 H                     0.092729
     25 C                    -0.095517
     26 H                     0.089023
     27 C                    -0.092749
     28 H                     0.090267
     29 C                     0.015262
     30 C                    -0.002454
     31 C                    -0.010850
     32 C                     0.009723
     33 C                    -0.020457
     34 C                    -0.025915
     35 C                    -0.000164
     36 C                    -0.013499
     37 C                     0.002304
     38 C                     0.000725
     39 C                    -0.101394
     40 C                    -0.014698
     41 C                    -0.008464
     42 C                     0.029102
     43 C                     0.004848
     44 C                     0.004994
     45 C                    -0.098436
     46 C                     0.087804
     47 C                    -0.006770
     48 C                     0.022952
     49 C                     0.031555
     50 C                    -0.014831
     51 C                     0.017308
     52 C                     0.007056
     53 C                     0.031576
     54 C                     0.013255
     55 C                    -0.027413
     56 C                    -0.002301
     57 C                     0.015772
     58 C                    -0.007659
     59 C                    -0.008119
     60 C                     0.033258
     61 C                     0.012681
     62 C                     0.002100
     63 C                     0.003343
     64 C                    -0.011166
     65 C                    -0.009365
     66 C                     0.000686
     67 C                    -0.006323
     68 C                     0.011556
     69 C                    -0.019756
     70 C                     0.025061
     71 C                    -0.011597
     72 C                    -0.006029
     73 C                    -0.021354
     74 C                    -0.023598
     75 C                     0.013552
     76 C                    -0.024998
     77 C                    -0.010436
     78 C                    -0.013539
     79 C                     0.018802
     80 C                     0.016825
     81 C                    -0.016823
     82 C                    -0.004689
     83 C                    -0.007391
     84 C                    -0.003872
     85 C                     0.005055
     86 C                    -0.002664
     87 C                     0.012761
     88 C                    -0.003771
     89 O                    -0.454941
     90 C                    -0.107436
     91 H                     0.142366
     92 H                     0.130837
     93 H                     0.127098
     94 O                    -0.452790
     95 C                     0.586289
     96 C                    -0.258709
     97 H                     0.120300
     98 H                     0.133805
     99 C                    -0.182780
    100 H                     0.110624
    101 H                     0.125848
    102 C                    -0.184642
    103 H                     0.101789
    104 H                     0.105242
    105 C                     0.003806
    106 C                     0.083756
    107 C                    -0.106557
    108 H                     0.090408
    109 C                    -0.099314
    110 H                     0.088783
    111 C                    -0.076429
    112 H                     0.089421
    113 C                    -0.104271
    114 H                     0.089670
    115 C                    -0.078031
    116 H                     0.096902
    117 C                    -0.018334
    118 C                     0.007358
    119 C                    -0.015875
    120 C                     0.005840
    121 C                    -0.002355
    122 C                     0.026436
    123 C                     0.008943
    124 C                     0.010059
    125 C                    -0.026153
    126 C                    -0.005539
    127 C                    -0.095215
    128 C                     0.011385
    129 C                    -0.018536
    130 C                     0.020577
    131 C                     0.046387
    132 C                     0.003763
    133 C                    -0.061418
    134 C                     0.014429
    135 C                    -0.012133
    136 C                     0.019159
    137 C                    -0.021223
    138 C                    -0.020657
    139 C                     0.002744
    140 C                    -0.017356
    141 C                     0.058003
    142 C                     0.014042
    143 C                    -0.037459
    144 C                    -0.039709
    145 C                    -0.008407
    146 C                    -0.020810
    147 C                    -0.012279
    148 C                     0.012031
    149 C                     0.006916
    150 C                    -0.033230
    151 C                    -0.017824
    152 C                    -0.030897
    153 C                     0.001672
    154 C                     0.011123
    155 C                     0.007118
    156 C                     0.034824
    157 C                    -0.022686
    158 C                    -0.008920
    159 C                    -0.028678
    160 C                     0.021928
    161 C                     0.021521
    162 C                     0.015442
    163 C                    -0.005629
    164 C                    -0.023618
    165 C                     0.019189
    166 C                     0.008166
    167 C                    -0.001582
    168 C                    -0.019392
    169 C                     0.018873
    170 C                     0.027930
    171 C                     0.021009
    172 C                     0.001609
    173 C                     0.013452
    174 C                    -0.001386
    175 C                     0.007696
    176 C                    -0.013062
  ----------------------------------------
  Sum of atomic charges =     0.000000

                    Cartesian Multipole Moments
 -----------------------------------------------------------------
    Charge (ESU x 10^10)
                 0.0000
    Dipole Moment (Debye)
         X      -4.9577      Y      -3.3036      Z      -1.9484
       Tot       6.2681
    Quadrupole Moments (Debye-Ang)
        XX    -793.7949     XY       8.1382     YY    -812.1079
        XZ      14.0669     YZ      17.3014     ZZ    -797.4535

 Total job time:  882.45s(wall), 7574.14s(cpu)
        *  Thank you very much for using Q-Chem.  Have a nice day.  *
