 Q-Chem 4.4, Q-Chem, Inc., Pleasanton, CA (2016)
 Q-Chem 4.4.2 for Intel X86 Linux

User input:
--------------------------------------------------------------
$comment
SP
$end

$rem
MEM_STATIC 5000
MEM_TOTAL 20000
JOBTYPE SP
EXCHANGE B3LYP
BASIS 6-31g(d,p)
$end

$molecule
0 1
O         -13.800000     -2.268000      5.677000
C         -14.965000     -1.792000      6.366000
H         -15.552000     -2.682000      6.624000
H         -15.498000     -1.012000      5.809000
H         -14.636000     -1.423000      7.345000
O         -14.955000     -2.324000      3.692000
C         -13.906000     -2.422000      4.329000
C         -12.520000     -2.787000      3.731000
H         -11.863000     -2.247000      4.423000
H         -12.384000     -2.357000      2.731000
C         -12.086000     -4.329000      3.682000
H         -11.010000     -4.305000      3.468000
H         -12.126000     -4.838000      4.653000
C         -12.895000     -5.089000      2.576000
H         -13.898000     -5.309000      2.963000
H         -13.120000     -4.390000      1.761000
C         -12.260000     -6.412000      2.074000
C         -12.207000     -7.368000      3.213000
C         -13.380000     -8.093000      3.623000
H         -14.298000     -7.845000      3.099000
C         -13.460000     -8.911000      4.769000
H         -14.406000     -9.309000      5.124000
C         -12.269000     -9.205000      5.412000
H         -12.280000     -9.860000      6.278000
C         -11.059000     -8.659000      4.938000
H         -10.155000     -8.798000      5.523000
C         -11.015000     -7.745000      3.866000
H         -10.086000     -7.229000      3.643000
C          -8.306000     -8.575000     -1.118000
C         -10.029000    -10.246000     -1.340000
C         -11.211000     -9.193000     -5.774000
C          -9.990000     -3.847000     -2.216000
C         -13.847000     -7.084000     -4.694000
C          -9.340000     -9.299000     -0.545000
C         -11.973000     -4.157000     -4.158000
C          -9.052000     -9.361000     -4.549000
C         -13.567000     -8.432000     -0.885000
C         -11.365000     -3.803000     -1.822000
C         -12.573000     -6.895000      0.658000
C         -13.962000     -7.154000     -1.220000
C         -13.400000     -4.642000     -2.188000
C         -12.671000     -5.006000     -4.989000
C         -11.477000     -9.135000      0.036000
C         -12.003000     -7.060000     -6.185000
C         -11.204000     -6.357000      0.946000
C         -10.815000     -5.123000      0.150000
C         -13.088000     -7.818000     -5.627000
C          -8.363000     -5.935000     -4.628000
C          -9.602000     -7.400000     -5.875000
C          -8.742000     -8.087000     -5.111000
C          -8.653000     -9.761000     -3.267000
C          -9.519000     -5.258000     -0.292000
C         -12.615000     -8.352000      0.174000
C          -9.736000    -10.433000     -2.733000
C         -12.405000     -3.953000     -2.775000
C         -11.402000    -10.083000     -1.004000
C         -14.354000     -6.832000     -2.518000
C          -8.197000     -5.252000     -2.327000
C         -10.327000     -9.915000     -4.928000
C         -13.445000     -6.186000     -0.291000
C          -7.626000     -7.597000     -3.001000
C         -14.047000     -5.574000     -3.026000
C         -13.478000     -9.316000     -1.910000
C         -10.493000     -5.170000     -5.602000
C         -10.624000     -4.162000     -4.573000
C         -13.870000     -9.001000     -3.245000
C          -9.132000     -4.617000     -1.415000
C         -11.802000     -4.425000     -0.656000
C          -8.550000     -4.921000     -3.620000
C         -10.070000     -7.243000      0.647000
C         -12.104000    -10.430000     -3.336000
C         -13.102000     -4.905000     -0.832000
C         -14.287000     -7.702000     -3.531000
C          -7.748000     -6.577000     -2.017000
C         -12.569000     -9.111000     -5.375000
C          -7.996000     -8.826000     -2.450000
C         -10.888000     -7.921000     -6.158000
C         -12.411000    -10.182000     -2.011000
C         -12.930000     -9.684000     -4.101000
C         -10.215000     -8.647000      0.301000
C          -9.037000     -6.553000      0.012000
C          -9.362000     -6.017000     -5.619000
C         -10.752000    -10.505000     -3.676000
C         -13.701000     -5.741000     -4.389000
C          -9.646000     -4.030000     -3.545000
C         -11.801000     -5.649000     -5.882000
C          -8.081000     -7.205000     -0.805000
C          -8.023000     -7.237000     -4.304000
O          -2.225000     -4.653000    -12.247000
C          -0.885000     -4.314000    -11.864000
H          -0.348000     -3.909000    -12.730000
H          -0.292000     -5.157000    -11.488000
H          -0.902000     -3.566000    -11.062000
O          -2.871000     -2.446000    -12.329000
C          -3.137000     -3.652000    -12.446000
C          -4.557000     -4.210000    -12.773000
H          -4.675000     -4.796000    -13.693000
H          -5.291000     -3.423000    -12.986000
C          -5.063000     -5.038000    -11.614000
H          -6.008000     -5.472000    -11.963000
H          -4.457000     -5.932000    -11.424000
C          -5.232000     -4.221000    -10.293000
H          -4.382000     -3.529000    -10.291000
H          -6.096000     -3.590000    -10.536000
C          -5.439000     -5.207000     -9.179000
C          -6.777000     -5.910000     -9.311000
C          -6.984000     -7.218000     -9.856000
H          -6.128000     -7.858000    -10.048000
C          -8.319000     -7.701000     -9.997000
H          -8.358000     -8.700000    -10.422000
C          -9.399000     -6.953000     -9.602000
H         -10.400000     -7.358000     -9.722000
C          -9.188000     -5.679000     -9.100000
H          -9.977000     -4.954000     -8.924000
C          -7.894000     -5.182000     -8.952000
H          -7.893000     -4.208000     -8.473000
C          -4.884000     -6.001000     -3.788000
C          -4.294000     -8.231000     -4.676000
C           0.175000     -7.711000     -3.790000
C          -2.348000     -2.268000     -5.811000
C           0.944000     -6.688000     -6.992000
C          -5.020000     -7.004000     -4.738000
C           0.207000     -3.204000     -6.439000
C          -1.784000     -7.184000     -2.409000
C          -2.620000     -7.649000     -8.423000
C          -2.013000     -2.631000     -7.130000
C          -4.175000     -5.875000     -8.636000
C          -1.917000     -6.569000     -9.022000
C          -0.860000     -4.102000     -8.435000
C           1.025000     -4.317000     -6.388000
C          -4.628000     -7.610000     -6.909000
C           1.392000     -5.998000     -4.702000
C          -4.959000     -4.819000     -7.798000
C          -4.280000     -3.553000     -7.411000
C           1.175000     -6.982000     -5.644000
C          -1.262000     -3.618000     -2.685000
C          -0.044000     -5.577000     -2.749000
C          -1.232000     -5.907000     -2.189000
C          -3.168000     -7.309000     -2.753000
C          -4.507000     -3.264000     -6.049000
C          -3.935000     -7.230000     -8.094000
C          -3.346000     -8.382000     -3.659000
C          -0.758000     -3.124000     -7.463000
C          -3.979000     -8.551000     -6.058000
C          -0.537000     -6.429000     -8.756000
C          -3.326000     -2.923000     -3.909000
C          -1.059000     -8.100000     -3.227000
C          -2.801000     -5.512000     -9.006000
C          -3.377000     -4.941000     -2.533000
C          -0.031000     -5.196000     -8.390000
C          -2.041000     -8.539000     -7.624000
C           0.576000     -3.761000     -4.265000
C          -0.137000     -2.882000     -5.132000
C          -0.703000     -8.395000     -7.293000
C          -3.549000     -2.606000     -5.253000
C          -2.957000     -3.328000     -7.879000
C          -1.948000     -2.695000     -3.545000
C          -5.462000     -5.309000     -6.480000
C          -1.751000     -9.148000     -5.378000
C          -2.228000     -4.296000     -8.694000
C           0.006000     -7.297000     -7.851000
C          -4.010000     -3.997000     -3.362000
C           0.456000     -8.023000     -5.099000
C          -3.940000     -6.181000     -2.791000
C           0.701000     -6.408000     -3.543000
C          -2.702000     -8.994000     -6.463000
C          -0.461000     -8.808000     -5.934000
C          -5.311000     -6.676000     -6.095000
C          -5.193000     -4.336000     -5.506000
C          -0.026000     -4.195000     -3.084000
C          -2.041000     -8.787000     -4.031000
C           0.873000     -5.339000     -7.352000
C          -1.376000     -2.356000     -4.792000
C           1.295000     -4.622000     -5.101000
C          -4.971000     -4.670000     -4.143000
C          -2.031000     -4.699000     -2.122000
$end

--------------------------------------------------------------

             Standard Nuclear Orientation (Angstroms)
    I     Atom           X                Y                Z
 ----------------------------------------------------------------
    1      O      10.8277964117    -4.3335689513    -4.1230778717
    2      C      12.1304353328    -4.2693577301    -4.7210166312
    3      H      12.8218463628    -3.9885567506    -3.9170672563
    4      H      12.1553110160    -3.6366694725    -5.6164633181
    5      H      12.4318217667    -5.2974376910    -4.9556670340
    6      O      10.5491969023    -2.0708267458    -4.4055066676
    7      C      10.1097491078    -3.1778814574    -4.0939147846
    8      C       8.6780736465    -3.4617702020    -3.5633136594
    9      H       8.5325203366    -4.4821405392    -3.9371740731
   10      H       7.9323468547    -2.8163492962    -4.0436462592
   11      C       8.4256375139    -3.4357198540    -1.9808730197
   12      H       7.4411465917    -3.9029332419    -1.8518874608
   13      H       9.0839301791    -4.1022037359    -1.4099334413
   14      C       8.4589822838    -1.9629589428    -1.4468501506
   15      H       9.5055012541    -1.6450737451    -1.3578274233
   16      H       8.0901283087    -1.2941499879    -2.2343095635
   17      C       7.7562794736    -1.7303649684    -0.0838876406
   18      C       8.4774718981    -2.5144956938     0.9549032394
   19      C       9.7124473815    -2.0353758637     1.5160928185
   20      H      10.1044540741    -1.1186223131     1.0863281383
   21      C      10.5324855710    -2.7685046374     2.3986456889
   22      H      11.5284790305    -2.4307804211     2.6693565724
   23      C       9.9994712782    -3.9330434909     2.9260080144
   24      H      10.5828318074    -4.5103503010     3.6369998146
   25      C       8.7105813708    -4.3550192988     2.5418319817
   26      H       8.3579453368    -5.3290600201     2.8668773642
   27      C       7.9562367671    -3.6744972226     1.5649133962
   28      H       7.0441709846    -4.1254685785     1.1857210379
   29      C       2.8626548085    -1.1852414116     2.4174773757
   30      C       4.2265186145     0.2675679785     3.7737496178
   31      C       2.4027874061     4.3140230973     2.2032419129
   32      C       3.1628706923    -0.0672556352    -2.5880617788
   33      C       4.9796892958     4.6768419712    -0.2031487694
   34      C       4.0857721346    -0.9173457281     3.0123529168
   35      C       3.5868930258     2.6885670835    -2.7474330541
   36      C       1.4437137514     2.0984757641     2.8046217757
   37      C       7.1644641472     1.7032466290     1.4667238573
   38      C       4.4878624387     0.4224472732    -2.8169393302
   39      C       7.1872146163    -0.3471857474     0.2312225478
   40      C       7.1747995862     2.0003240166     0.1201830282
   41      C       5.9467060929     2.0421731750    -2.3401110640
   42      C       3.7053196393     3.8919117107    -2.0867494343
   43      C       6.1185905299    -0.1464381198     2.5600512130
   44      C       2.6147773261     4.7704859070    -0.0534317403
   45      C       6.2331272151    -1.4658005147    -0.0602688473
   46      C       5.3467033851    -1.2575218993    -1.2762317628
   47      C       3.8719563451     5.0856368330     0.5657078304
   48      C       0.5799531148     1.2167541148    -0.4656874598
   49      C       0.9246305036     3.1652724904     0.6835856311
   50      C       0.7581371977     2.1613652055     1.5552020275
   51      C       1.9331252244     0.9098693013     3.3617717435
   52      C       4.0625320103    -1.6483546390    -0.9739758290
   53      C       7.0428360695     0.2905847282     1.6209249100
   54      C       3.1674533733     1.2293489412     3.8946842884
   55      C       4.7488163861     1.8138356929    -2.9077705081
   56      C       5.5055254516     0.7833735037     3.4234923254
   57      C       6.6763106154     3.2097710078    -0.3603361925
   58      C       1.7844253661    -0.8132725725    -0.9313957859
   59      C       2.2695453527     3.2364656164     3.1195237641
   60      C       7.2497478958     0.8070439249    -0.6784529176
   61      C       1.1090150826    -0.2458366210     1.4140635273
   62      C       6.0269900270     3.2341157709    -1.5902415165
   63      C       6.5443199068     2.6028559438     2.2705436143
   64      C       1.6206565601     3.1222570636    -1.6305032613
   65      C       2.2667671729     2.2246834260    -2.5626881363
   66      C       6.0240327275     3.8427484876     1.7940126806
   67      C       3.0268445471    -1.0862737522    -1.6321517594
   68      C       5.5876812503    -0.1473035156    -2.1819656140
   69      C       1.2573186575     0.3678440851    -1.4142425100
   70      C       5.2229110731    -1.7565790058     0.9669916919
   71      C       4.6809695472     3.1005329773     3.4716227157
   72      C       6.5501338741     0.8327588163    -1.9279207903
   73      C       6.0797604270     4.1106065342     0.4271796658
   74      C       1.7198623876    -1.1149047960     0.4679524994
   75      C       3.7143266419     4.7837793415     1.9400254543
   76      C       1.8319899076    -0.2717746828     2.6088759057
   77      C       1.8145756453     4.2284071662     0.9718013594
   78      C       5.7052631348     2.1913245027     3.2831005788
   79      C       4.8152513723     4.0759452001     2.5472005248
   80      C       5.2394034917    -1.1759834204     2.2991304858
   81      C       3.9658127114    -1.9693660567     0.4005648386
   82      C       0.7800867379     2.6034570072    -0.6199846442
   83      C       3.4092755712     2.5864137961     3.7316321367
   84      C       4.9424391748     4.1377705728    -1.4782975669
   85      C       2.1017021471     0.8131278809    -2.4580149295
   86      C       2.5265559440     4.1893511122    -1.3868609053
   87      C       2.7654598040    -1.7813915170     1.1288144318
   88      C       0.6084807743     0.9645402628     0.8949573673
   89      O      -8.9908828688     3.4458139821    -1.3590629024
   90      C      -9.8489276248     2.3002247939    -1.4517700152
   91      H     -10.8297667769     2.6073404313    -1.8338492517
   92      H     -10.0257586945     1.7856903011    -0.4990586064
   93      H      -9.4098798614     1.5565014142    -2.1278688216
   94      O      -8.7017786167     3.5437967974    -3.6397880282
   95      C      -8.4665845470     3.9828281910    -2.5036471104
   96      C      -7.4940339346     5.1655300664    -2.2035561572
   97      H      -7.9100422483     6.0567932917    -1.7174420284
   98      H      -7.1025165425     5.6425697561    -3.1105518938
   99      C      -6.3275099382     4.6743388892    -1.3772063565
  100      H      -5.7547132408     5.5754742489    -1.1261266740
  101      H      -6.6229867801     4.3076925038    -0.3868347777
  102      C      -5.4598548364     3.5975892666    -2.1044448831
  103      H      -6.1872125347     2.9869724850    -2.6516796816
  104      H      -4.9710827662     4.1994589374    -2.8806927576
  105      C      -4.5452048525     2.9909990549    -1.0790158401
  106      C      -3.5084887394     3.9936060038    -0.6079786792
  107      C      -3.5705830738     4.7534082765     0.6042848235
  108      H      -4.3150551943     4.5026567159     1.3540080502
  109      C      -2.5589959840     5.7267796713     0.8585183531
  110      H      -2.7061596633     6.2439447361     1.8024622854
  111      C      -1.5227582859     5.9313544035    -0.0168613428
  112      H      -0.7695093178     6.6792623703     0.2148187496
  113      C      -1.4871337589     5.2086498328    -1.1983984758
  114      H      -0.8121509137     5.4192941985    -2.0225035115
  115      C      -2.4630786760     4.2516504341    -1.4723193941
  116      H      -2.2511934128     3.7179518139    -2.3933994221
  117      C      -1.6665472537    -1.4862370164     0.2128934409
  118      C      -2.4953384038    -0.7783503806     2.4313491516
  119      C      -5.5453065301    -4.1925608815     2.6925350709
  120      C      -5.1934959889    -1.9613281311    -3.2213510251
  121      C      -8.1697856207    -2.2665182757     1.5553616524
  122      C      -2.0535841931    -0.4949911458     1.1043187219
  123      C      -7.5254508381    -2.8194847838    -1.9469653924
  124      C      -3.1989977257    -4.2179718170     1.9736746681
  125      C      -6.1320332265     1.1167639378     1.8280237945
  126      C      -6.2273210001    -1.0552638981    -2.9147430478
  127      C      -5.1670829305     1.9216470709    -0.1798367754
  128      C      -7.1363667047     1.0082595550     0.8285484003
  129      C      -7.8142208446    -0.4673466405    -1.3875308222
  130      C      -8.0557830870    -3.1661895994    -0.7185365273
  131      C      -3.6281235998     1.0914722781     1.5922741104
  132      C      -7.1961534088    -4.4548617069     1.1262959896
  133      C      -4.1222468718     1.5522532418    -1.2770613693
  134      C      -4.5266114092     0.6466235743    -2.3860655291
  135      C      -7.5156149652    -3.4252859490     1.9868929177
  136      C      -4.0603277570    -4.8672085589    -1.4761975368
  137      C      -4.9107716184    -5.2249994117     0.6389932215
  138      C      -3.6043814010    -4.9181539433     0.8207470616
  139      C      -2.2993422473    -3.1110861230     1.8518506937
  140      C      -3.5466406860    -0.3454540315    -2.5994511090
  141      C      -4.9233991532     1.5637204848     1.2343399376
  142      C      -2.6209842221    -2.1190102174     2.8090240519
  143      C      -7.3849635348    -1.4521008902    -2.2579727960
  144      C      -3.5547399564     0.1826830811     2.6875366526
  145      C      -8.0811446928    -0.0367708865     0.9288575691
  146      C      -3.2174652538    -2.7912579929    -2.5813260580
  147      C      -4.1959799715    -3.8517452751     2.9253623907
  148      C      -6.5088149803     1.3494734868    -0.3498882276
  149      C      -2.1870616153    -3.5350912760    -0.4948741921
  150      C      -8.3583962671    -0.8187546057    -0.1765446326
  151      C      -6.0385580447     0.2823833998     2.8579818074
  152      C      -6.4610973950    -4.6731781804    -1.1700107351
  153      C      -6.4885099635    -3.7042862896    -2.2155708984
  154      C      -6.9110800980    -0.7901128230     2.9528402199
  155      C      -3.8773743788    -1.6439883074    -3.0339254566
  156      C      -5.8762316305     0.2038920058    -2.4359856308
  157      C      -4.1083876325    -3.9266777542    -2.5602718211
  158      C      -2.8886612919     0.8800246251    -0.7704961673
  159      C      -4.8639699022    -1.5737458786     3.6793366621
  160      C      -6.8704817594     0.5735656077    -1.4322435777
  161      C      -7.8968233279    -0.9374961572     1.9398064408
  162      C      -2.2600817702    -2.6536370330    -1.5888451581
  163      C      -6.5342792374    -3.2706746769     2.9412212385
  164      C      -1.7988191549    -2.8041192975     0.6169174964
  165      C      -5.9158078184    -4.9029471288     1.5120376440
  166      C      -4.7772549889    -0.1778624305     3.2929017735
  167      C      -6.2496237914    -1.9453575079     3.5041108181
  168      C      -2.6682828402     0.7008721272     0.6291654777
  169      C      -2.5902445831    -0.2037984477    -1.6095676866
  170      C      -5.2361573445    -5.1873071949    -0.7449057726
  171      C      -3.8487626713    -2.5281817770     3.3839785843
  172      C      -8.4370921105    -2.1514365571     0.1879752993
  173      C      -5.3419253235    -3.3276071597    -2.9017585524
  174      C      -7.4685221618    -4.2977973771    -0.2748221563
  175      C      -1.9167279636    -1.3628741747    -1.1389002644
  176      C      -3.0253182390    -4.6911586471    -0.4889525184
 ----------------------------------------------------------------

    9   -5804.2504979154      9.18E-06 Convergence criterion met
 Total energy in the final basis set = -5804.2504979154

                    Orbital Energies (a.u.)
 --------------------------------------------------------------

 Alpha MOs
 -- Occupied --
-19.198 -19.196 -19.138 -19.137 -10.324 -10.321 -10.247 -10.244
-10.243 -10.242 -10.241 -10.241 -10.239 -10.238 -10.231 -10.229
-10.228 -10.228 -10.226 -10.225 -10.225 -10.224 -10.223 -10.223
-10.223 -10.222 -10.222 -10.221 -10.221 -10.221 -10.221 -10.221
-10.221 -10.220 -10.220 -10.220 -10.220 -10.219 -10.219 -10.219
-10.219 -10.219 -10.219 -10.219 -10.219 -10.219 -10.218 -10.218
-10.218 -10.218 -10.218 -10.218 -10.218 -10.218 -10.217 -10.217
-10.217 -10.217 -10.217 -10.217 -10.217 -10.217 -10.217 -10.217
-10.216 -10.216 -10.216 -10.215 -10.215 -10.215 -10.215 -10.215
-10.215 -10.214 -10.214 -10.214 -10.214 -10.214 -10.214 -10.213
-10.213 -10.213 -10.213 -10.213 -10.212 -10.212 -10.212 -10.212
-10.212 -10.212 -10.212 -10.212 -10.212 -10.212 -10.212 -10.211
-10.211 -10.211 -10.211 -10.211 -10.211 -10.211 -10.210 -10.210
-10.210 -10.210 -10.209 -10.209 -10.209 -10.209 -10.209 -10.209
-10.209 -10.209 -10.209 -10.209 -10.208 -10.208 -10.208 -10.208
-10.208 -10.208 -10.208 -10.208 -10.207 -10.206 -10.206 -10.206
-10.206 -10.205 -10.205 -10.205 -10.204 -10.204 -10.204 -10.203
-10.202 -10.202 -10.201 -10.200 -10.200 -10.199 -10.199 -10.199
-10.196 -10.195 -10.194 -10.191  -1.097  -1.090  -1.008  -1.002
 -0.984  -0.983  -0.965  -0.965  -0.964  -0.963  -0.961  -0.958
 -0.935  -0.934  -0.927  -0.925  -0.924  -0.924  -0.923  -0.922
 -0.922  -0.919  -0.899  -0.892  -0.891  -0.890  -0.887  -0.884
 -0.875  -0.874  -0.856  -0.853  -0.841  -0.839  -0.839  -0.837
 -0.836  -0.833  -0.823  -0.818  -0.807  -0.800  -0.798  -0.798
 -0.795  -0.794  -0.794  -0.793  -0.791  -0.789  -0.784  -0.783
 -0.771  -0.770  -0.769  -0.768  -0.767  -0.766  -0.766  -0.764
 -0.750  -0.750  -0.742  -0.742  -0.733  -0.732  -0.718  -0.717
 -0.714  -0.712  -0.712  -0.712  -0.711  -0.710  -0.710  -0.708
 -0.708  -0.704  -0.704  -0.702  -0.702  -0.701  -0.674  -0.672
 -0.660  -0.658  -0.656  -0.655  -0.647  -0.646  -0.632  -0.632
 -0.631  -0.626  -0.625  -0.624  -0.620  -0.620  -0.619  -0.618
 -0.616  -0.614  -0.614  -0.612  -0.610  -0.609  -0.608  -0.607
 -0.606  -0.605  -0.602  -0.601  -0.571  -0.568  -0.565  -0.564
 -0.563  -0.562  -0.559  -0.557  -0.556  -0.556  -0.554  -0.553
 -0.539  -0.536  -0.534  -0.533  -0.529  -0.529  -0.527  -0.523
 -0.521  -0.521  -0.519  -0.519  -0.515  -0.515  -0.513  -0.512
 -0.508  -0.505  -0.505  -0.499  -0.493  -0.492  -0.488  -0.484
 -0.484  -0.483  -0.483  -0.480  -0.480  -0.477  -0.476  -0.475
 -0.474  -0.472  -0.472  -0.470  -0.468  -0.468  -0.467  -0.466
 -0.465  -0.464  -0.463  -0.462  -0.459  -0.458  -0.458  -0.458
 -0.456  -0.455  -0.453  -0.452  -0.449  -0.448  -0.446  -0.444
 -0.442  -0.441  -0.440  -0.439  -0.437  -0.437  -0.434  -0.432
 -0.429  -0.429  -0.428  -0.425  -0.424  -0.423  -0.423  -0.422
 -0.422  -0.421  -0.420  -0.419  -0.418  -0.418  -0.418  -0.417
 -0.416  -0.416  -0.415  -0.414  -0.414  -0.413  -0.412  -0.411
 -0.411  -0.409  -0.408  -0.406  -0.403  -0.401  -0.400  -0.398
 -0.394  -0.393  -0.392  -0.390  -0.387  -0.387  -0.384  -0.384
 -0.380  -0.377  -0.375  -0.371  -0.370  -0.369  -0.368  -0.367
 -0.365  -0.364  -0.364  -0.363  -0.362  -0.360  -0.358  -0.357
 -0.356  -0.356  -0.355  -0.355  -0.354  -0.352  -0.352  -0.352
 -0.350  -0.349  -0.348  -0.347  -0.347  -0.345  -0.344  -0.343
 -0.342  -0.342  -0.340  -0.340  -0.338  -0.337  -0.335  -0.333
 -0.332  -0.331  -0.330  -0.329  -0.328  -0.327  -0.325  -0.323
 -0.311  -0.310  -0.300  -0.299  -0.287  -0.284  -0.273  -0.271
 -0.269  -0.268  -0.267  -0.267  -0.266  -0.264  -0.263  -0.263
 -0.263  -0.261  -0.259  -0.259  -0.257  -0.255  -0.254  -0.253
 -0.252  -0.247  -0.246  -0.242  -0.221  -0.221  -0.214  -0.213
 -0.211  -0.208  -0.205  -0.201  -0.198  -0.197

          Ground-State Mulliken Net Atomic Charges

     Atom                 Charge (a.u.)
  ----------------------------------------
      1 O                    -0.453099
      2 C                    -0.086161
      3 H                     0.125615
      4 H                     0.140942
      5 H                     0.121070
      6 O                    -0.476259
      7 C                     0.585248
      8 C                    -0.258791
      9 H                     0.122663
     10 H                     0.133073
     11 C                    -0.190439
     12 H                     0.111188
     13 H                     0.123872
     14 C                    -0.184492
     15 H                     0.123714
     16 H                     0.117294
     17 C                     0.007249
     18 C                     0.097560
     19 C                    -0.119998
     20 H                     0.084504
     21 C                    -0.075725
     22 H                     0.098008
     23 C                    -0.084800
     24 H                     0.090357
     25 C                    -0.088724
     26 H                     0.089525
     27 C                    -0.122064
     28 H                     0.091831
     29 C                     0.007089
     30 C                    -0.022391
     31 C                    -0.013126
     32 C                     0.015994
     33 C                     0.037892
     34 C                    -0.006626
     35 C                     0.016346
     36 C                    -0.018376
     37 C                     0.012181
     38 C                    -0.035080
     39 C                    -0.092223
     40 C                     0.015151
     41 C                     0.002141
     42 C                    -0.019383
     43 C                     0.018544
     44 C                    -0.026654
     45 C                    -0.093108
     46 C                     0.017853
     47 C                    -0.020917
     48 C                     0.001863
     49 C                     0.021468
     50 C                     0.012950
     51 C                    -0.005655
     52 C                     0.036419
     53 C                     0.020077
     54 C                     0.016185
     55 C                     0.016518
     56 C                    -0.006850
     57 C                     0.024554
     58 C                    -0.008229
     59 C                    -0.017719
     60 C                     0.047738
     61 C                    -0.004492
     62 C                    -0.026236
     63 C                    -0.000095
     64 C                    -0.001695
     65 C                    -0.028744
     66 C                    -0.023369
     67 C                    -0.024375
     68 C                     0.011769
     69 C                     0.005429
     70 C                     0.035956
     71 C                    -0.006612
     72 C                    -0.029708
     73 C                    -0.022478
     74 C                     0.005327
     75 C                    -0.010407
     76 C                     0.009647
     77 C                     0.038111
     78 C                    -0.000116
     79 C                     0.017324
     80 C                     0.001726
     81 C                     0.005142
     82 C                    -0.022084
     83 C                     0.006865
     84 C                     0.007351
     85 C                    -0.003384
     86 C                    -0.002203
     87 C                    -0.029768
     88 C                     0.012214
     89 O                    -0.457161
     90 C                    -0.089394
     91 H                     0.122088
     92 H                     0.124049
     93 H                     0.134576
     94 O                    -0.483804
     95 C                     0.598031
     96 C                    -0.246095
     97 H                     0.124378
     98 H                     0.126813
     99 C                    -0.199104
    100 H                     0.109745
    101 H                     0.114314
    102 C                    -0.197210
    103 H                     0.129462
    104 H                     0.114789
    105 C                     0.035993
    106 C                     0.092287
    107 C                    -0.119040
    108 H                     0.095259
    109 C                    -0.090061
    110 H                     0.091986
    111 C                    -0.076869
    112 H                     0.093524
    113 C                    -0.092468
    114 H                     0.095090
    115 C                    -0.101625
    116 H                     0.093679
    117 C                     0.005233
    118 C                     0.000606
    119 C                    -0.015759
    120 C                    -0.001087
    121 C                    -0.012041
    122 C                     0.011390
    123 C                    -0.009230
    124 C                    -0.009521
    125 C                     0.021776
    126 C                     0.006566
    127 C                    -0.087091
    128 C                    -0.005085
    129 C                    -0.005006
    130 C                     0.018971
    131 C                    -0.016223
    132 C                    -0.005971
    133 C                    -0.102090
    134 C                     0.017938
    135 C                     0.018063
    136 C                    -0.004374
    137 C                     0.046485
    138 C                     0.007336
    139 C                    -0.001687
    140 C                    -0.007658
    141 C                     0.010620
    142 C                    -0.019355
    143 C                    -0.010276
    144 C                    -0.023584
    145 C                    -0.017909
    146 C                    -0.007879
    147 C                    -0.006889
    148 C                     0.079376
    149 C                     0.017053
    150 C                    -0.006157
    151 C                     0.010947
    152 C                     0.000570
    153 C                     0.013104
    154 C                    -0.015962
    155 C                     0.027925
    156 C                    -0.008623
    157 C                    -0.020909
    158 C                     0.045267
    159 C                    -0.014604
    160 C                    -0.018733
    161 C                     0.017834
    162 C                    -0.013388
    163 C                     0.007957
    164 C                     0.019066
    165 C                    -0.009529
    166 C                     0.002130
    167 C                    -0.022202
    168 C                    -0.001627
    169 C                     0.014179
    170 C                    -0.009737
    171 C                     0.016851
    172 C                     0.005203
    173 C                    -0.010366
    174 C                    -0.019641
    175 C                    -0.002971
    176 C                    -0.041396
  ----------------------------------------
  Sum of atomic charges =     0.000000

                    Cartesian Multipole Moments
 -----------------------------------------------------------------
    Charge (ESU x 10^10)
                 0.0000
    Dipole Moment (Debye)
         X       3.4190      Y      -0.9019      Z       1.4556
       Tot       3.8238
    Quadrupole Moments (Debye-Ang)
        XX    -772.6540     XY     -43.7847     YY    -781.7741
        XZ     -11.7476     YZ      11.0622     ZZ    -821.7398

 Total job time:  880.86s(wall), 7485.28s(cpu)
        *  Thank you very much for using Q-Chem.  Have a nice day.  *
