 Q-Chem 4.4, Q-Chem, Inc., Pleasanton, CA (2016)
 Q-Chem 4.4.2 for Intel X86 Linux

User input:
--------------------------------------------------------------
$comment
SP
$end

$rem
MEM_STATIC 5000
MEM_TOTAL 20000
JOBTYPE SP
EXCHANGE B3LYP
BASIS 6-31g(d,p)
$end

$molecule
0 1
O          -4.457000      6.272000    -12.995000
C          -3.364000      7.198000    -12.896000
H          -2.882000      7.458000    -13.846000
H          -2.544000      6.733000    -12.336000
H          -3.554000      8.193000    -12.475000
O          -5.785000      7.667000    -14.301000
C          -5.490000      6.551000    -13.873000
C          -6.415000      5.309000    -14.086000
H          -5.900000      4.341000    -14.127000
H          -6.754000      5.463000    -15.118000
C          -7.553000      5.260000    -13.105000
H          -8.021000      6.253000    -13.108000
H          -8.383000      4.596000    -13.377000
C          -7.082000      4.988000    -11.621000
H          -6.629000      3.989000    -11.596000
H          -6.356000      5.724000    -11.254000
C          -8.173000      5.082000    -10.513000
C          -8.589000      6.482000    -10.356000
C          -9.658000      6.937000    -11.112000
H         -10.345000      6.206000    -11.527000
C         -10.038000      8.307000    -11.169000
H         -10.949000      8.532000    -11.716000
C          -9.259000      9.209000    -10.389000
H          -9.462000     10.276000    -10.385000
C          -8.178000      8.720000     -9.624000
H          -7.558000      9.503000     -9.198000
C          -7.838000      7.377000     -9.613000
H          -7.047000      7.006000     -8.968000
C          -8.935000      3.759000     -5.390000
C         -11.261000      3.958000     -6.166000
C         -12.028000     -0.585000     -6.052000
C          -6.144000      0.635000     -8.180000
C         -11.415000     -1.029000     -9.554000
C          -9.925000      4.423000     -6.185000
C          -7.800000     -1.330000     -9.182000
C         -10.855000      0.850000     -4.459000
C         -11.378000      2.991000    -10.101000
C          -6.628000      0.717000     -9.515000
C          -9.193000      3.936000    -10.306000
C         -10.548000      2.126000    -10.865000
C          -8.463000      0.328000    -10.883000
C          -9.126000     -1.756000     -9.141000
C         -10.681000      4.475000     -8.340000
C         -10.762000     -1.961000     -7.405000
C          -8.041000      4.150000     -9.325000
C          -7.060000      3.094000     -9.194000
C         -11.764000     -1.385000     -8.211000
C          -7.682000     -0.452000     -5.203000
C          -9.779000     -1.140000     -5.309000
C          -9.783000     -0.045000     -4.494000
C         -10.603000      2.231000     -4.630000
C          -6.554000      2.955000     -7.927000
C         -10.540000      4.046000     -9.666000
C         -11.588000      2.842000     -5.396000
C          -7.466000     -0.303000    -10.079000
C         -11.757000      3.966000     -7.532000
C         -10.873000      0.754000    -10.941000
C          -6.343000      1.433000     -6.038000
C         -12.026000      0.614000     -5.252000
C          -9.226000      2.606000    -10.964000
C          -8.244000      1.836000     -4.486000
C          -9.778000     -0.158000    -10.939000
C         -12.324000      2.428000     -9.238000
C          -8.341000     -1.980000     -7.047000
C          -7.333000     -1.374000     -7.875000
C         -12.708000      1.056000     -9.267000
C          -6.035000      1.776000     -7.376000
C          -7.103000      1.945000     -9.976000
C          -6.675000      0.081000     -6.069000
C          -8.205000      4.577000     -7.940000
C         -12.949000      1.857000     -7.149000
C          -8.205000      1.707000    -10.820000
C         -11.869000      0.178000    -10.110000
C          -7.219000      2.293000     -5.266000
C         -12.514000     -0.552000     -7.387000
C          -9.276000      2.686000     -4.597000
C         -10.909000     -1.362000     -6.141000
C         -12.579000      2.916000     -7.983000
C         -12.976000      0.687000     -7.900000
C          -9.550000      4.770000     -7.498000
C          -7.285000      3.862000     -7.162000
C          -8.503000     -1.424000     -5.758000
C         -12.454000      1.798000     -5.837000
C         -10.118000     -1.238000    -10.026000
C          -6.579000     -0.347000     -7.397000
C          -9.423000     -2.213000     -7.855000
C          -7.640000      3.491000     -5.814000
C          -8.484000      0.453000     -4.487000
O          -2.225000     -4.653000    -12.247000
C          -0.885000     -4.314000    -11.864000
H          -0.348000     -3.909000    -12.730000
H          -0.292000     -5.157000    -11.488000
H          -0.902000     -3.566000    -11.062000
O          -2.871000     -2.446000    -12.329000
C          -3.137000     -3.652000    -12.446000
C          -4.557000     -4.210000    -12.773000
H          -4.675000     -4.796000    -13.693000
H          -5.291000     -3.423000    -12.986000
C          -5.063000     -5.038000    -11.614000
H          -6.008000     -5.472000    -11.963000
H          -4.457000     -5.932000    -11.424000
C          -5.232000     -4.221000    -10.293000
H          -4.382000     -3.529000    -10.291000
H          -6.096000     -3.590000    -10.536000
C          -5.439000     -5.207000     -9.179000
C          -6.777000     -5.910000     -9.311000
C          -6.984000     -7.218000     -9.856000
H          -6.128000     -7.858000    -10.048000
C          -8.319000     -7.701000     -9.997000
H          -8.358000     -8.700000    -10.422000
C          -9.399000     -6.953000     -9.602000
H         -10.400000     -7.358000     -9.722000
C          -9.188000     -5.679000     -9.100000
H          -9.977000     -4.954000     -8.924000
C          -7.894000     -5.182000     -8.952000
H          -7.893000     -4.208000     -8.473000
C          -4.884000     -6.001000     -3.788000
C          -4.294000     -8.231000     -4.676000
C           0.175000     -7.711000     -3.790000
C          -2.348000     -2.268000     -5.811000
C           0.944000     -6.688000     -6.992000
C          -5.020000     -7.004000     -4.738000
C           0.207000     -3.204000     -6.439000
C          -1.784000     -7.184000     -2.409000
C          -2.620000     -7.649000     -8.423000
C          -2.013000     -2.631000     -7.130000
C          -4.175000     -5.875000     -8.636000
C          -1.917000     -6.569000     -9.022000
C          -0.860000     -4.102000     -8.435000
C           1.025000     -4.317000     -6.388000
C          -4.628000     -7.610000     -6.909000
C           1.392000     -5.998000     -4.702000
C          -4.959000     -4.819000     -7.798000
C          -4.280000     -3.553000     -7.411000
C           1.175000     -6.982000     -5.644000
C          -1.262000     -3.618000     -2.685000
C          -0.044000     -5.577000     -2.749000
C          -1.232000     -5.907000     -2.189000
C          -3.168000     -7.309000     -2.753000
C          -4.507000     -3.264000     -6.049000
C          -3.935000     -7.230000     -8.094000
C          -3.346000     -8.382000     -3.659000
C          -0.758000     -3.124000     -7.463000
C          -3.979000     -8.551000     -6.058000
C          -0.537000     -6.429000     -8.756000
C          -3.326000     -2.923000     -3.909000
C          -1.059000     -8.100000     -3.227000
C          -2.801000     -5.512000     -9.006000
C          -3.377000     -4.941000     -2.533000
C          -0.031000     -5.196000     -8.390000
C          -2.041000     -8.539000     -7.624000
C           0.576000     -3.761000     -4.265000
C          -0.137000     -2.882000     -5.132000
C          -0.703000     -8.395000     -7.293000
C          -3.549000     -2.606000     -5.253000
C          -2.957000     -3.328000     -7.879000
C          -1.948000     -2.695000     -3.545000
C          -5.462000     -5.309000     -6.480000
C          -1.751000     -9.148000     -5.378000
C          -2.228000     -4.296000     -8.694000
C           0.006000     -7.297000     -7.851000
C          -4.010000     -3.997000     -3.362000
C           0.456000     -8.023000     -5.099000
C          -3.940000     -6.181000     -2.791000
C           0.701000     -6.408000     -3.543000
C          -2.702000     -8.994000     -6.463000
C          -0.461000     -8.808000     -5.934000
C          -5.311000     -6.676000     -6.095000
C          -5.193000     -4.336000     -5.506000
C          -0.026000     -4.195000     -3.084000
C          -2.041000     -8.787000     -4.031000
C           0.873000     -5.339000     -7.352000
C          -1.376000     -2.356000     -4.792000
C           1.295000     -4.622000     -5.101000
C          -4.971000     -4.670000     -4.143000
C          -2.031000     -4.699000     -2.122000
$end

--------------------------------------------------------------

             Standard Nuclear Orientation (Angstroms)
    I     Atom           X                Y                Z
 ----------------------------------------------------------------
    1      O      -6.7116877120    -6.7562181593    -0.6365234016
    2      C      -6.7918261684    -7.8068076730    -1.6121080988
    3      H      -6.9779509578    -8.8090219868    -1.2079447258
    4      H      -5.8159248361    -7.9266472264    -2.0973709874
    5      H      -7.5630628310    -7.7448618615    -2.3897472997
    6      O      -8.9005761086    -7.0090890532     0.1118541088
    7      C      -7.7477986143    -6.6064819230     0.2689418146
    8      C      -7.3567171827    -5.6431892142     1.4362808703
    9      H      -6.3212932995    -5.7285915290     1.7891743767
   10      H      -7.9451139664    -6.0545026768     2.2659021456
   11      C      -7.6970427204    -4.2089109553     1.1416108779
   12      H      -8.7372893448    -4.1923555854     0.7913325881
   13      H      -7.7196042298    -3.5403957055     2.0112995228
   14      C      -6.8207527437    -3.5887048547    -0.0183638069
   15      H      -5.7783768972    -3.5792318297     0.3239779178
   16      H      -6.8875837273    -4.1481111402    -0.9596709977
   17      C      -7.2121665577    -2.1609155639    -0.5031255701
   18      C      -8.4979977802    -2.2217634411    -1.2106851810
   19      C      -9.6591226339    -2.0311975663    -0.4780217374
   20      H      -9.5870807471    -1.5305409675     0.4825551396
   21      C     -10.9586468545    -2.2352602945    -1.0203723647
   22      H     -11.7949553844    -1.9618591278    -0.3835090789
   23      C     -11.0143973620    -2.6439864010    -2.3837064584
   24      H     -11.9610945889    -2.8427471922    -2.8776421914
   25      C      -9.8175369138    -2.8268938205    -3.1096382344
   26      H      -9.9650249808    -3.2887944983    -4.0811628269
   27      C      -8.5740025383    -2.6294532201    -2.5317027134
   28      H      -7.6650576888    -2.7085553787    -3.1206926192
   29      C      -5.2340064168     1.8647619469    -3.4112014006
   30      C      -6.9095293902     3.0532463522    -2.0576207478
   31      C      -3.7636586230     5.1782773695     0.5553993998
   32      C      -1.9688496432    -0.8139880295    -0.6732812396
   33      C      -4.0109236091     2.8016338788     3.2251062647
   34      C      -6.5242595512     1.9054123620    -2.7894173602
   35      C      -1.6371512117     0.4585433771     1.7512197337
   36      C      -3.7952746445     4.7850988580    -1.8564907480
   37      C      -7.2762732844     1.1299303931     1.4919366383
   38      C      -2.6641071299    -1.2740670844     0.4791723562
   39      C      -6.8369323505    -0.9108172302     0.3293517246
   40      C      -6.3376391607     0.3511297819     2.2221808371
   41      C      -3.7623627580    -0.6040485705     2.4117560585
   42      C      -2.0413345920     1.5992095412     2.4418350370
   43      C      -7.5695408561     1.1705243566    -0.8958515142
   44      C      -2.3381058620     3.8979840465     1.8420187424
   45      C      -6.0910753207    -1.2492639293    -0.9607692477
   46      C      -4.6779454830    -1.5471781420    -0.8660634736
   47      C      -3.5693549493     3.9698817886     2.5233941159
   48      C      -1.1885312702     2.4363902554    -1.7848954898
   49      C      -1.8624000219     4.1439571805    -0.5552186616
   50      C      -2.5010990534     4.2690953380    -1.7550811490
   51      C      -4.7775289918     4.0446095440    -2.5541711713
   52      C      -3.9440129715    -1.1247857827    -1.9447542371
   53      C      -7.5108123384     0.4234442776     0.2876265450
   54      C      -6.0157895568     4.1161446944    -1.9281556001
   55      C      -2.4915179451    -0.6553745218     1.7629840582
   56      C      -7.5620830778     2.6079859627    -0.8378040114
   57      C      -5.4698670173     0.9963374343     3.1301806126
   58      C      -2.1294928947     0.3371461264    -2.6515766930
   59      C      -4.4842179612     5.2559521141    -0.6905403556
   60      C      -5.9934473003    -0.8386371669     1.5484809255
   61      C      -3.0999209258     2.5224541528    -3.3353985018
   62      C      -4.1395143198     0.4908657591     3.2038900814
   63      C      -7.1385642866     2.5219349726     1.4882647882
   64      C      -0.8617421502     2.3331845725     0.6751773664
   65      C      -0.9886717164     0.9020945710     0.6062259858
   66      C      -6.2914562756     3.2383854687     2.3825732944
   67      C      -2.5826916729    -0.7936814871    -1.9314400559
   68      C      -4.0147278520    -1.6004456746     0.3549520644
   69      C      -1.2692123412     1.0075502568    -1.7858026628
   70      C      -6.1453817148    -0.4496964081    -2.1794540283
   71      C      -6.4845709107     4.4052676984     0.4366291535
   72      C      -4.6768784507    -1.2099075122     1.5349607628
   73      C      -5.3587929525     2.4105072992     3.1764315074
   74      C      -3.0880197595     1.1561944090    -3.3680584864
   75      C      -4.4217773981     4.7357722346     1.7346274878
   76      C      -4.3755717337     2.9374425579    -3.3168340245
   77      C      -2.5496179013     4.5569533862     0.6176298880
   78      C      -7.3267182171     3.2915843995     0.3700376833
   79      C      -5.7876104694     4.3654525352     1.6392475037
   80      C      -6.9360851298     0.7387184878    -2.1154528977
   81      C      -4.8593422218    -0.4320961238    -2.7350632906
   82      C      -1.0414246517     3.0321145791    -0.5397761489
   83      C      -5.8072432245     4.8360863333    -0.7146625165
   84      C      -3.2428475651     1.6360801318     3.2103531793
   85      C      -1.2371817292     0.2920957361    -0.5845188210
   86      C      -1.5068569827     2.7286432011     1.8176817760
   87      C      -4.4081015693     0.7484560611    -3.4303678369
   88      C      -2.1554919286     3.1530405000    -2.5103501831
   89      O       3.2798126881    -4.3675305659     3.7635952714
   90      C       3.8736133561    -5.2391576616     2.7915474472
   91      H       3.6278115983    -6.2798400605     3.0342646500
   92      H       4.9673103358    -5.1764511651     2.7318079129
   93      H       3.4950846420    -4.9981124743     1.7907426559
   94      O       1.1698961838    -4.6655364837     2.8950713408
   95      C       1.9303042421    -4.1425699805     3.7240264792
   96      C       1.4774392481    -3.1069510161     4.7997121479
   97      H       1.6216480012    -3.3716048074     5.8546444710
   98      H       0.3916910675    -2.9510260775     4.8179412959
   99      C       2.1496935957    -1.7768155303     4.5472944750
  100      H       1.8619895435    -1.1447328340     5.3963409068
  101      H       3.2406391254    -1.8169270432     4.6512219395
  102      C       1.7708212180    -1.1395689040     3.1719896148
  103      H       1.7103430150    -1.9916948077     2.4852641738
  104      H       0.7255306836    -0.8543965347     3.3444727109
  105      C       2.7230284455    -0.0043059807     2.9259804875
  106      C       2.4819774528     1.1339025412     3.8997632043
  107      C       3.2404674875     1.3938132484     5.0863032548
  108      H       4.1715445145     0.8602231047     5.2523668824
  109      C       2.8268836299     2.4521989446     5.9489521467
  110      H       3.4710133922     2.5578322900     6.8173330803
  111      C       1.7396003352     3.2353068977     5.6548671744
  112      H       1.4591152919     4.0345318362     6.3353035330
  113      C       0.9983799122     2.9581920107     4.5175894494
  114      H       0.0344167063     3.4050516080     4.2935058979
  115      C       1.3797845958     1.9295373732     3.6575027654
  116      H       0.7482370765     1.8920377396     2.7755393261
  117      C       5.1027762821     3.0362351367    -0.9590229807
  118      C       6.9387758135     2.8093619370     0.6802385213
  119      C       9.2909756269    -0.1283835429    -1.9397165420
  120      C       3.0749337275    -1.2542995002    -2.3512446237
  121      C       8.0665401897    -2.9245261548    -0.3356472312
  122      C       5.5544402072     2.9041178476     0.3469439869
  123      C       5.0784205166    -3.1995883613    -2.3313214536
  124      C       8.1451100369     1.9577563605    -2.5376992785
  125      C       6.4229181764    -0.8306137638     2.5947820166
  126      C       3.1934148570    -2.1617841779    -1.2806425587
  127      C       4.1033200699    -0.3944463859     2.3955518911
  128      C       5.8152458441    -2.0574283982     2.2139012093
  129      C       4.6423061018    -3.2992623126     0.0621651915
  130      C       6.4226641618    -3.4060564339    -2.0845949706
  131      C       5.6662115018     1.5306214827     2.1731849111
  132      C       8.3948667402    -2.1268103103    -2.6108955929
  133      C       3.0613256133     0.3314839936     1.4903951993
  134      C       2.5594478800    -0.3556396807     0.2699257008
  135      C       8.7881548354    -2.2007930013    -1.2908349748
  136      C       5.5805775689     0.2383658776    -4.4170304329
  137      C       7.7802505710    -0.0526745317    -3.7829680037
  138      C       7.5181994719     1.2617715330    -3.5895648894
  139      C       7.3698345077     2.8145299323    -1.6925342647
  140      C       2.5712087734     0.5220631817    -0.8344263113
  141      C       5.4423164604     0.1946172337     2.6134548933
  142      C       7.8642841123     2.7623644848    -0.3671485267
  143      C       4.1968934053    -3.1208821475    -1.2345460510
  144      C       6.9954900941     1.8652159793     1.7833798997
  145      C       6.5556201428    -2.9623158704     1.4215751649
  146      C       3.5452526418     0.8059815976    -3.0841531559
  147      C       9.0498615531     1.2410972521    -1.7000660555
  148      C       4.4954903223    -1.7443331793     1.9706364429
  149      C       5.4616951988     2.3204309941    -3.0395218730
  150      C       5.9763056243    -3.5236223449     0.2992513567
  151      C       7.6589337942    -0.4919848543     2.2435871217
  152      C       6.3049116554    -2.0025447816    -3.8264776846
  153      C       4.9836622905    -2.2791008801    -3.3676576325
  154      C       8.3899384540    -1.3288167847     1.4154050721
  155      C       2.8112614910     0.0711654004    -2.1472133784
  156      C       3.0043276204    -1.6805838956     0.0118891838
  157      C       4.2420728203    -0.0683906866    -3.9969941866
  158      C       3.5139765263     1.6423803813     0.9364179328
  159      C       8.9007988910     0.8229014803     0.7508239092
  160      C       3.9527497785    -2.3813273139     0.8733670254
  161      C       7.7825951350    -2.5417163237     0.9915444803
  162      C       4.1450014275     1.9860798340    -2.6740183650
  163      C       9.3418552605    -1.0069480281    -0.8836286156
  164      C       6.0433093117     2.9898841266    -1.9743033381
  165      C       8.6363414313    -0.7977977876    -3.0162074332
  166      C       7.9530082591     0.8309059614     1.8494461584
  167      C       9.2136424290    -0.5675753732     0.5109509411
  168      C       4.7700176871     2.2080723577     1.3133372743
  169      C       3.1671942607     1.7006113169    -0.4215648427
  170      C       6.6212293384    -0.7181724076    -4.2690290694
  171      C       8.8167735887     1.7144660223    -0.3568233342
  172      C       6.8763852819    -3.5284282046    -0.7519111016
  173      C       3.9653147833    -1.3384886769    -3.4425845148
  174      C       7.1584964833    -2.7435038574    -3.0021290997
  175      C       3.9189961693     2.4529869224    -1.3635488331
  176      C       6.1421460527     1.4928190288    -3.9835801711
 ----------------------------------------------------------------

    9   -5804.2660811760      7.89E-06 Convergence criterion met
 Total energy in the final basis set = -5804.2660811760

                    Orbital Energies (a.u.)
 --------------------------------------------------------------

 Alpha MOs
 -- Occupied --
-19.202 -19.197 -19.146 -19.138 -10.328 -10.325 -10.247 -10.242
-10.242 -10.240 -10.238 -10.237 -10.237 -10.232 -10.230 -10.229
-10.228 -10.228 -10.226 -10.224 -10.224 -10.224 -10.224 -10.224
-10.224 -10.224 -10.223 -10.223 -10.223 -10.223 -10.223 -10.222
-10.222 -10.222 -10.222 -10.222 -10.222 -10.221 -10.221 -10.221
-10.220 -10.220 -10.220 -10.220 -10.220 -10.220 -10.220 -10.219
-10.219 -10.219 -10.219 -10.219 -10.219 -10.219 -10.219 -10.218
-10.218 -10.218 -10.218 -10.218 -10.218 -10.218 -10.218 -10.218
-10.218 -10.218 -10.218 -10.217 -10.217 -10.217 -10.217 -10.217
-10.217 -10.217 -10.217 -10.217 -10.217 -10.216 -10.216 -10.216
-10.216 -10.216 -10.216 -10.216 -10.215 -10.215 -10.215 -10.215
-10.214 -10.214 -10.214 -10.214 -10.214 -10.214 -10.214 -10.213
-10.212 -10.212 -10.212 -10.212 -10.212 -10.212 -10.211 -10.211
-10.211 -10.210 -10.210 -10.210 -10.210 -10.209 -10.209 -10.209
-10.209 -10.209 -10.209 -10.209 -10.209 -10.209 -10.208 -10.208
-10.208 -10.208 -10.207 -10.207 -10.207 -10.206 -10.206 -10.206
-10.206 -10.205 -10.205 -10.205 -10.204 -10.204 -10.204 -10.203
-10.203 -10.202 -10.200 -10.198 -10.198 -10.198 -10.197 -10.196
-10.195 -10.192 -10.191 -10.190  -1.091  -1.091  -1.014  -1.003
 -0.988  -0.983  -0.970  -0.966  -0.965  -0.965  -0.963  -0.958
 -0.938  -0.934  -0.932  -0.928  -0.924  -0.924  -0.924  -0.923
 -0.922  -0.919  -0.897  -0.895  -0.893  -0.892  -0.891  -0.884
 -0.877  -0.874  -0.854  -0.854  -0.845  -0.841  -0.840  -0.839
 -0.838  -0.835  -0.823  -0.821  -0.807  -0.805  -0.801  -0.799
 -0.797  -0.797  -0.796  -0.794  -0.793  -0.791  -0.786  -0.784
 -0.774  -0.772  -0.770  -0.769  -0.767  -0.766  -0.765  -0.765
 -0.751  -0.748  -0.741  -0.739  -0.732  -0.732  -0.719  -0.718
 -0.716  -0.716  -0.715  -0.713  -0.712  -0.712  -0.710  -0.710
 -0.710  -0.708  -0.707  -0.707  -0.704  -0.702  -0.673  -0.671
 -0.662  -0.661  -0.659  -0.656  -0.646  -0.646  -0.636  -0.632
 -0.630  -0.628  -0.626  -0.624  -0.623  -0.620  -0.619  -0.618
 -0.618  -0.617  -0.616  -0.615  -0.613  -0.611  -0.610  -0.607
 -0.607  -0.606  -0.603  -0.600  -0.574  -0.571  -0.568  -0.567
 -0.565  -0.562  -0.562  -0.559  -0.556  -0.556  -0.556  -0.552
 -0.538  -0.538  -0.533  -0.533  -0.531  -0.530  -0.528  -0.527
 -0.522  -0.522  -0.520  -0.519  -0.518  -0.517  -0.515  -0.512
 -0.507  -0.507  -0.505  -0.504  -0.493  -0.491  -0.489  -0.487
 -0.486  -0.484  -0.483  -0.482  -0.479  -0.477  -0.476  -0.475
 -0.473  -0.473  -0.473  -0.472  -0.469  -0.469  -0.468  -0.467
 -0.467  -0.466  -0.465  -0.463  -0.461  -0.459  -0.458  -0.457
 -0.455  -0.455  -0.453  -0.452  -0.448  -0.448  -0.445  -0.444
 -0.443  -0.442  -0.441  -0.440  -0.438  -0.437  -0.435  -0.434
 -0.432  -0.431  -0.429  -0.428  -0.427  -0.425  -0.425  -0.424
 -0.423  -0.423  -0.422  -0.422  -0.421  -0.421  -0.420  -0.419
 -0.418  -0.418  -0.417  -0.416  -0.415  -0.414  -0.413  -0.412
 -0.411  -0.411  -0.410  -0.406  -0.402  -0.402  -0.400  -0.398
 -0.396  -0.394  -0.393  -0.391  -0.391  -0.389  -0.386  -0.384
 -0.378  -0.376  -0.373  -0.371  -0.370  -0.369  -0.368  -0.367
 -0.366  -0.365  -0.364  -0.363  -0.362  -0.361  -0.360  -0.359
 -0.357  -0.356  -0.356  -0.355  -0.355  -0.354  -0.353  -0.352
 -0.350  -0.349  -0.349  -0.348  -0.347  -0.347  -0.346  -0.344
 -0.343  -0.343  -0.343  -0.342  -0.340  -0.337  -0.334  -0.334
 -0.333  -0.332  -0.331  -0.330  -0.329  -0.329  -0.326  -0.325
 -0.309  -0.309  -0.302  -0.299  -0.284  -0.284  -0.276  -0.274
 -0.272  -0.271  -0.269  -0.268  -0.266  -0.265  -0.265  -0.264
 -0.263  -0.262  -0.260  -0.260  -0.257  -0.256  -0.255  -0.253
 -0.250  -0.249  -0.248  -0.245  -0.221  -0.221  -0.215  -0.215
 -0.214  -0.211  -0.209  -0.203  -0.202  -0.199

          Ground-State Mulliken Net Atomic Charges

     Atom                 Charge (a.u.)
  ----------------------------------------
      1 O                    -0.451136
      2 C                    -0.096307
      3 H                     0.123213
      4 H                     0.124097
      5 H                     0.129662
      6 O                    -0.456040
      7 C                     0.582583
      8 C                    -0.230925
      9 H                     0.117151
     10 H                     0.130670
     11 C                    -0.199807
     12 H                     0.128840
     13 H                     0.107359
     14 C                    -0.163946
     15 H                     0.103419
     16 H                     0.122231
     17 C                    -0.014327
     18 C                     0.122608
     19 C                    -0.120643
     20 H                     0.089194
     21 C                    -0.085755
     22 H                     0.097169
     23 C                    -0.089619
     24 H                     0.091788
     25 C                    -0.091622
     26 H                     0.091663
     27 C                    -0.102321
     28 H                     0.092533
     29 C                     0.000259
     30 C                    -0.023904
     31 C                    -0.012144
     32 C                    -0.003518
     33 C                     0.018382
     34 C                    -0.006312
     35 C                    -0.003137
     36 C                    -0.021817
     37 C                     0.004546
     38 C                    -0.020746
     39 C                    -0.089503
     40 C                     0.000952
     41 C                     0.015903
     42 C                     0.031305
     43 C                     0.016170
     44 C                    -0.030366
     45 C                    -0.095282
     46 C                     0.068773
     47 C                     0.005533
     48 C                    -0.025501
     49 C                     0.016935
     50 C                     0.007528
     51 C                     0.006604
     52 C                     0.027437
     53 C                     0.015417
     54 C                     0.020530
     55 C                    -0.030025
     56 C                    -0.028402
     57 C                    -0.001496
     58 C                    -0.021842
     59 C                    -0.024089
     60 C                     0.039782
     61 C                     0.006644
     62 C                    -0.036030
     63 C                     0.025749
     64 C                    -0.008766
     65 C                    -0.012937
     66 C                    -0.043732
     67 C                    -0.017271
     68 C                    -0.008488
     69 C                    -0.009934
     70 C                     0.015072
     71 C                     0.003411
     72 C                     0.008514
     73 C                    -0.020796
     74 C                     0.012157
     75 C                    -0.000946
     76 C                     0.016971
     77 C                     0.021827
     78 C                     0.021274
     79 C                    -0.002467
     80 C                     0.010665
     81 C                    -0.023389
     82 C                     0.002649
     83 C                     0.013582
     84 C                     0.002110
     85 C                     0.072155
     86 C                    -0.016689
     87 C                    -0.018964
     88 C                     0.003114
     89 O                    -0.456583
     90 C                    -0.089152
     91 H                     0.121316
     92 H                     0.124253
     93 H                     0.134463
     94 O                    -0.484912
     95 C                     0.597248
     96 C                    -0.245530
     97 H                     0.123841
     98 H                     0.126600
     99 C                    -0.199555
    100 H                     0.110145
    101 H                     0.113757
    102 C                    -0.200049
    103 H                     0.127806
    104 H                     0.117265
    105 C                     0.034354
    106 C                     0.088658
    107 C                    -0.122008
    108 H                     0.094081
    109 C                    -0.089636
    110 H                     0.090115
    111 C                    -0.077828
    112 H                     0.090721
    113 C                    -0.095816
    114 H                     0.091033
    115 C                    -0.087918
    116 H                     0.088079
    117 C                    -0.004248
    118 C                     0.001371
    119 C                    -0.015450
    120 C                    -0.001942
    121 C                    -0.011761
    122 C                     0.011269
    123 C                    -0.009141
    124 C                    -0.010346
    125 C                     0.022033
    126 C                     0.006750
    127 C                    -0.088168
    128 C                    -0.005665
    129 C                    -0.004650
    130 C                     0.017793
    131 C                    -0.011681
    132 C                    -0.005620
    133 C                    -0.099833
    134 C                     0.021772
    135 C                     0.017876
    136 C                    -0.004298
    137 C                     0.046492
    138 C                     0.008140
    139 C                    -0.001618
    140 C                    -0.004614
    141 C                     0.011210
    142 C                    -0.017742
    143 C                    -0.011492
    144 C                    -0.023766
    145 C                    -0.017447
    146 C                    -0.007462
    147 C                    -0.006491
    148 C                     0.078902
    149 C                     0.016687
    150 C                    -0.006437
    151 C                     0.010410
    152 C                    -0.000048
    153 C                     0.012730
    154 C                    -0.016712
    155 C                     0.025588
    156 C                    -0.009743
    157 C                    -0.021583
    158 C                     0.041023
    159 C                    -0.015186
    160 C                    -0.018300
    161 C                     0.017315
    162 C                    -0.010165
    163 C                     0.008227
    164 C                     0.021041
    165 C                    -0.009784
    166 C                     0.003045
    167 C                    -0.021811
    168 C                    -0.002325
    169 C                     0.013707
    170 C                    -0.010714
    171 C                     0.016252
    172 C                     0.005751
    173 C                    -0.009649
    174 C                    -0.019676
    175 C                    -0.008798
    176 C                    -0.040957
  ----------------------------------------
  Sum of atomic charges =     0.000000

                    Cartesian Multipole Moments
 -----------------------------------------------------------------
    Charge (ESU x 10^10)
                 0.0000
    Dipole Moment (Debye)
         X      -1.7299      Y      -1.3086      Z       1.5239
       Tot       2.6509
    Quadrupole Moments (Debye-Ang)
        XX    -818.4584     XY      -6.3999     YY    -804.3057
        XZ      16.6011     YZ       9.2419     ZZ    -787.7427

 Total job time:  850.03s(wall), 7308.84s(cpu)
        *  Thank you very much for using Q-Chem.  Have a nice day.  *
