 Q-Chem 4.4, Q-Chem, Inc., Pleasanton, CA (2016)
 Q-Chem 4.4.2 for Intel X86 Linux

User input:
--------------------------------------------------------------
$comment
SP
$end

$rem
MEM_STATIC 5000
MEM_TOTAL 20000
JOBTYPE SP
EXCHANGE B3LYP
BASIS 6-31g(d,p)
$end

$molecule
0 1
O           3.905000    -10.803000     -6.739000
C           5.307000    -10.935000     -6.534000
H           5.574000    -10.050000     -5.943000
H           5.902000    -10.912000     -7.455000
H           5.509000    -11.826000     -5.926000
O           3.575000    -12.897000     -7.658000
C           3.151000    -11.836000     -7.285000
C           1.684000    -11.457000     -7.488000
H           1.635000    -10.426000     -7.858000
H           1.281000    -11.427000     -6.468000
C           0.703000    -12.340000     -8.326000
H           1.235000    -12.618000     -9.245000
H           0.507000    -13.335000     -7.908000
C          -0.639000    -11.620000     -8.646000
H          -1.150000    -11.336000     -7.718000
H          -0.528000    -10.629000     -9.103000
C          -1.677000    -12.444000     -9.585000
C          -2.260000    -13.623000     -8.809000
C          -3.445000    -13.460000     -7.989000
H          -3.961000    -12.505000     -8.001000
C          -3.991000    -14.578000     -7.299000
H          -4.848000    -14.403000     -6.656000
C          -3.357000    -15.816000     -7.454000
H          -3.774000    -16.651000     -6.899000
C          -2.228000    -15.984000     -8.211000
H          -1.736000    -16.951000     -8.254000
C          -1.713000    -14.883000     -8.950000
H          -0.897000    -15.090000     -9.636000
C          -2.698000    -14.369000    -14.661000
C          -4.874000    -13.850000    -13.773000
C          -5.770000    -10.256000    -16.275000
C           0.313000    -10.359000    -14.281000
C          -4.794000     -7.950000    -13.783000
C          -3.623000    -14.359000    -13.588000
C          -1.236000     -8.057000    -14.493000
C          -4.739000    -12.390000    -16.860000
C          -4.730000    -10.989000    -11.013000
C          -0.075000     -9.639000    -13.131000
C          -2.577000    -11.741000    -10.489000
C          -3.893000     -9.823000    -10.926000
C          -1.706000     -8.497000    -12.138000
C          -2.566000     -7.585000    -14.688000
C          -4.236000    -13.250000    -11.656000
C          -4.350000     -8.408000    -16.135000
C          -1.454000    -12.481000    -11.056000
C          -0.482000    -11.761000    -11.927000
C          -5.179000     -8.453000    -15.053000
C          -1.546000    -11.035000    -17.162000
C          -3.640000    -10.282000    -17.504000
C          -3.677000    -11.675000    -17.496000
C          -4.503000    -13.511000    -16.099000
C          -0.125000    -12.498000    -13.055000
C          -3.934000    -12.112000    -10.859000
C          -5.357000    -13.424000    -14.989000
C          -0.831000     -8.445000    -13.207000
C          -5.277000    -13.207000    -12.588000
C          -4.075000     -8.746000    -11.768000
C          -0.156000    -12.168000    -15.488000
C          -5.774000    -11.642000    -16.253000
C          -2.577000    -10.277000    -10.744000
C          -2.134000    -13.260000    -16.506000
C          -3.018000     -8.039000    -12.381000
C          -5.793000    -10.911000    -11.871000
C          -1.974000     -8.739000    -16.516000
C          -0.878000     -8.760000    -15.615000
C          -6.024000     -9.761000    -12.670000
C           0.263000    -11.763000    -14.252000
C          -0.447000    -10.285000    -11.952000
C          -0.433000    -11.043000    -16.253000
C          -1.886000    -13.543000    -12.087000
C          -6.566000    -11.516000    -13.967000
C          -1.479000     -9.574000    -11.368000
C          -5.115000     -8.683000    -12.649000
C          -1.031000    -13.308000    -15.579000
C          -6.059000     -9.534000    -15.177000
C          -3.158000    -13.964000    -15.919000
C          -4.674000     -9.591000    -16.858000
C          -6.082000    -12.011000    -12.691000
C          -6.476000    -10.155000    -13.942000
C          -3.229000    -13.997000    -12.289000
C          -0.987000    -13.558000    -13.155000
C          -2.320000     -9.913000    -17.284000
C          -6.187000    -12.283000    -15.111000
C          -3.482000     -7.612000    -13.656000
C          -0.120000     -9.879000    -15.507000
C          -3.008000     -7.985000    -15.973000
C          -1.396000    -13.989000    -14.430000
C          -2.370000    -12.156000    -17.339000
O          -2.225000     -4.653000    -12.247000
C          -0.885000     -4.314000    -11.864000
H          -0.348000     -3.909000    -12.730000
H          -0.292000     -5.157000    -11.488000
H          -0.902000     -3.566000    -11.062000
O          -2.871000     -2.446000    -12.329000
C          -3.137000     -3.652000    -12.446000
C          -4.557000     -4.210000    -12.773000
H          -4.675000     -4.796000    -13.693000
H          -5.291000     -3.423000    -12.986000
C          -5.063000     -5.038000    -11.614000
H          -6.008000     -5.472000    -11.963000
H          -4.457000     -5.932000    -11.424000
C          -5.232000     -4.221000    -10.293000
H          -4.382000     -3.529000    -10.291000
H          -6.096000     -3.590000    -10.536000
C          -5.439000     -5.207000     -9.179000
C          -6.777000     -5.910000     -9.311000
C          -6.984000     -7.218000     -9.856000
H          -6.128000     -7.858000    -10.048000
C          -8.319000     -7.701000     -9.997000
H          -8.358000     -8.700000    -10.422000
C          -9.399000     -6.953000     -9.602000
H         -10.400000     -7.358000     -9.722000
C          -9.188000     -5.679000     -9.100000
H          -9.977000     -4.954000     -8.924000
C          -7.894000     -5.182000     -8.952000
H          -7.893000     -4.208000     -8.473000
C          -4.884000     -6.001000     -3.788000
C          -4.294000     -8.231000     -4.676000
C           0.175000     -7.711000     -3.790000
C          -2.348000     -2.268000     -5.811000
C           0.944000     -6.688000     -6.992000
C          -5.020000     -7.004000     -4.738000
C           0.207000     -3.204000     -6.439000
C          -1.784000     -7.184000     -2.409000
C          -2.620000     -7.649000     -8.423000
C          -2.013000     -2.631000     -7.130000
C          -4.175000     -5.875000     -8.636000
C          -1.917000     -6.569000     -9.022000
C          -0.860000     -4.102000     -8.435000
C           1.025000     -4.317000     -6.388000
C          -4.628000     -7.610000     -6.909000
C           1.392000     -5.998000     -4.702000
C          -4.959000     -4.819000     -7.798000
C          -4.280000     -3.553000     -7.411000
C           1.175000     -6.982000     -5.644000
C          -1.262000     -3.618000     -2.685000
C          -0.044000     -5.577000     -2.749000
C          -1.232000     -5.907000     -2.189000
C          -3.168000     -7.309000     -2.753000
C          -4.507000     -3.264000     -6.049000
C          -3.935000     -7.230000     -8.094000
C          -3.346000     -8.382000     -3.659000
C          -0.758000     -3.124000     -7.463000
C          -3.979000     -8.551000     -6.058000
C          -0.537000     -6.429000     -8.756000
C          -3.326000     -2.923000     -3.909000
C          -1.059000     -8.100000     -3.227000
C          -2.801000     -5.512000     -9.006000
C          -3.377000     -4.941000     -2.533000
C          -0.031000     -5.196000     -8.390000
C          -2.041000     -8.539000     -7.624000
C           0.576000     -3.761000     -4.265000
C          -0.137000     -2.882000     -5.132000
C          -0.703000     -8.395000     -7.293000
C          -3.549000     -2.606000     -5.253000
C          -2.957000     -3.328000     -7.879000
C          -1.948000     -2.695000     -3.545000
C          -5.462000     -5.309000     -6.480000
C          -1.751000     -9.148000     -5.378000
C          -2.228000     -4.296000     -8.694000
C           0.006000     -7.297000     -7.851000
C          -4.010000     -3.997000     -3.362000
C           0.456000     -8.023000     -5.099000
C          -3.940000     -6.181000     -2.791000
C           0.701000     -6.408000     -3.543000
C          -2.702000     -8.994000     -6.463000
C          -0.461000     -8.808000     -5.934000
C          -5.311000     -6.676000     -6.095000
C          -5.193000     -4.336000     -5.506000
C          -0.026000     -4.195000     -3.084000
C          -2.041000     -8.787000     -4.031000
C           0.873000     -5.339000     -7.352000
C          -1.376000     -2.356000     -4.792000
C           1.295000     -4.622000     -5.101000
C          -4.971000     -4.670000     -4.143000
C          -2.031000     -4.699000     -2.122000
$end

--------------------------------------------------------------

             Standard Nuclear Orientation (Angstroms)
    I     Atom           X                Y                Z
 ----------------------------------------------------------------
    1      O       1.8859926732     6.7571943763     2.6744127687
    2      C       2.1351045028     7.7978541915     3.6125084170
    3      H       3.1436845307     7.5826876854     3.9870277116
    4      H       1.4547281032     7.8025958971     4.4726598404
    5      H       2.1619930430     8.7643400822     3.0933446380
    6      O      -0.0725597794     7.6361304159     1.8201056059
    7      C       0.7786760915     6.7876988460     1.8337936724
    8      C       0.6615679051     5.5382818939     0.9607633450
    9      H       0.9253788929     4.6615666711     1.5641174539
   10      H       1.4740295236     5.6543408041     0.2326524689
   11      C      -0.6276125444     5.2139573353     0.1378895093
   12      H      -1.4807951321     5.3862841748     0.8066584772
   13      H      -0.8587287521     5.9317991943    -0.6586362994
   14      C      -0.6375513179     3.7644830789    -0.4284051144
   15      H       0.2286857053     3.6045354831    -1.0818660438
   16      H      -0.4501005596     2.9816729131     0.3167938239
   17      C      -1.9833155905     3.3259453902    -1.2251134790
   18      C      -2.0644853600     4.0648673598    -2.5590969089
   19      C      -1.4284605643     3.5273015928    -3.7464003685
   20      H      -0.9633622083     2.5479588005    -3.6916626806
   21      C      -1.5424386905     4.2148335810    -4.9867425600
   22      H      -1.0095181236     3.8059443115    -5.8395779689
   23      C      -2.2896425763     5.3978924987    -5.0128758735
   24      H      -2.3431195712     5.9207204054    -5.9631022628
   25      C      -2.8827124026     5.9279585888    -3.8978816487
   26      H      -3.4024146748     6.8796922324    -3.9536904288
   27      C      -2.8219480959     5.2141625235    -2.6689187216
   28      H      -3.4125876485     5.6031107613    -1.8448039315
   29      C      -7.3468500944     2.0804492396    -0.7834360358
   30      C      -6.5653618678     0.7083411459    -2.5998821624
   31      C      -6.7235136494    -3.2594833026    -0.5478068324
   32      C      -4.4716226871     1.3537015969     3.2780324450
   33      C      -3.2807491058    -3.2841338551     0.2440521495
   34      C      -6.5591281480     1.9054901036    -1.9478833020
   35      C      -3.5347507109    -1.2664256191     3.2505866427
   36      C      -8.2800111449    -1.3793822158    -0.5068501460
   37      C      -2.6842283172    -0.1121636107    -2.3045326965
   38      C      -3.1663921096     1.0561719138     2.8316097450
   39      C      -2.4351591748     1.9413679330    -1.2107037514
   40      C      -1.8717611712    -0.3563739847    -1.1435191609
   41      C      -1.8918861650    -0.3633443385     1.6866284322
   42      C      -3.5784790366    -2.4912074777     2.5241527280
   43      C      -4.4180770837     1.4986692110    -2.7151323499
   44      C      -5.4238419240    -3.5875879915     1.3638167496
   45      C      -3.1908114104     2.9313840439    -0.4497334503
   46      C      -3.4006982251     2.7126327739     1.0096912333
   47      C      -4.6487936040    -3.6617424482     0.2440885601
   48      C      -7.4242778802    -0.4345764247     2.7331406868
   49      C      -7.5164434985    -2.3829570604     1.6088064851
   50      C      -8.2892889612    -1.4494562244     0.9209343459
   51      C      -8.2514221917    -0.1762003655    -1.1724281706
   52      C      -4.7006745722     3.0108628518     1.4148113606
   53      C      -3.0951930802     1.2103431910    -2.2811933918
   54      C      -7.3825838373    -0.3456302307    -2.2611882152
   55      C      -2.6472874799    -0.2604187108     2.8398262334
   56      C      -5.2758141363     0.4674747680    -3.1089332760
   57      C      -1.9856218454    -1.5265970475    -0.4226649939
   58      C      -6.5239492379     1.8416839312     2.5715482128
   59      C      -7.4773144391    -2.3049213035    -1.2127066440
   60      C      -1.8302545607     0.8424379094    -0.4139828397
   61      C      -8.1870425316     0.9716314659     0.9534006904
   62      C      -1.9809606828    -1.5855716650     0.9877843204
   63      C      -3.4639579832    -1.1529016195    -2.7300947308
   64      C      -5.6612380342    -2.0271556341     3.2101081526
   65      C      -4.8107512485    -0.9885670462     3.6699602728
   66      C      -3.5071492454    -2.3872537618    -2.0309729218
   67      C      -5.2347234573     2.2946173841     2.5660551308
   68      C      -2.5958718359     1.7146188318     1.7422543055
   69      C      -6.5581025100     0.6087310658     3.2089176391
   70      C      -4.6783478693     2.9979225016    -0.8500294871
   71      C      -5.6115391644    -2.0158412028    -2.7306827044
   72      C      -1.8323814842     0.8075375876     1.0309968984
   73      C      -2.7901185901    -2.5514900496    -0.8277690816
   74      C      -7.3294059688     2.0429314983     1.3950088503
   75      C      -5.4491332863    -3.5165237264    -0.8946409581
   76      C      -8.2078252579     1.0392139341    -0.4191012908
   77      C      -6.7132483496    -3.2540467507     0.8604527557
   78      C      -4.7832048562    -0.8912312036    -3.1263740281
   79      C      -4.8235173527    -2.8819242931    -2.0307057727
   80      C      -5.2446990112     2.3962253388    -2.0195490074
   81      C      -5.4675871117     3.1620233898     0.2898048502
   82      C      -6.9851050069    -1.7305553276     2.7128954246
   83      C      -6.9389771526    -1.6894626681    -2.3158918660
   84      C      -2.8441282568    -2.6508110847     1.3665411262
   85      C      -5.2615380276     0.2900848004     3.6851172826
   86      C      -4.9077955083    -2.9804853421     2.5348246359
   87      C      -6.8023045440     2.7182979869     0.3072445403
   88      C      -8.2843856128    -0.2472583955     1.6413198937
   89      O       0.1010869834    -3.3588694692     3.1400606532
   90      C       0.7521498417    -2.6115830109     4.1768297228
   91      H       0.3233340538    -2.8835194453     5.1486926739
   92      H       0.6575901859    -1.5227456846     4.0810918074
   93      H       1.8270809284    -2.8295720216     4.1778044143
   94      O       1.1911740316    -5.3026698534     3.7129823702
   95      C       0.3943638215    -4.6871450911     2.9883419380
   96      C      -0.3412580546    -5.3130449371     1.7628612820
   97      H      -1.4379951820    -5.3347660115     1.7832541296
   98      H      -0.1591045223    -6.3893898601     1.6542532832
   99      C       0.0967900590    -4.6210044637     0.4923909623
  100      H      -0.5358299983    -5.0445471653    -0.2972833016
  101      H      -0.1779013453    -3.5598079427     0.4611087607
  102      C       1.6208501242    -4.7837047404     0.1893059284
  103      H       2.1009070183    -4.7276609250     1.1730602011
  104      H       1.6772074632    -5.8455613606    -0.0808613686
  105      C       1.9666886410    -3.8145406699    -0.9048411023
  106      C       1.3199314205    -4.2161049617    -2.2172161316
  107      C       0.1203614717    -3.6565939436    -2.7637665488
  108      H      -0.3001026450    -2.7587601549    -2.3207040087
  109      C      -0.4110211813    -4.2102960555    -3.9664474904
  110      H      -1.3213494501    -3.7121721267    -4.2878848787
  111      C       0.2121593177    -5.2443518942    -4.6178333885
  112      H      -0.2218806535    -5.6356230621    -5.5337712556
  113      C       1.3578325860    -5.7944318577    -4.0660673183
  114      H       1.8197822119    -6.7148298288    -4.4104393817
  115      C       1.8982755764    -5.2731680150    -2.8915229895
  116      H       2.8349891397    -5.7573187093    -2.6340665746
  117      C       6.0250564118    -0.8782869830    -3.1205593434
  118      C       4.1172361729     0.6780203735    -3.3389016160
  119      C       5.6264503029     3.4395951030    -0.0037352448
  120      C       6.7151466101    -2.6236352308     1.4550989713
  121      C       3.6433915954     2.0018495607     2.4234153312
  122      C       4.6695286268    -0.6371725681    -3.2977972148
  123      C       5.9572234100    -0.6315053556     3.2593927342
  124      C       6.8421742065     2.3842805597    -1.8560034773
  125      C       1.5391622508    -0.1016743762    -0.1882477236
  126      C       5.4636468931    -2.6676311197     2.0997444709
  127      C       2.1806559229    -2.3645071313    -0.4685043756
  128      C       1.7241462279    -0.6309360809     1.1175367058
  129      C       3.6966555753    -1.4388664482     2.8508463712
  130      C       5.4694179615     0.6587295369     3.3479013028
  131      C       2.5874047129    -0.8029416919    -2.3642975605
  132      C       5.9623978274     2.6780407742     2.1303632218
  133      C       3.3725488310    -3.2569429071    -0.9321698604
  134      C       4.4703970708    -3.5539894292     0.0270269943
  135      C       4.6151498307     2.8587826180     1.8959187269
  136      C       8.6570585597     0.1634241644     0.3437709785
  137      C       7.6475201724     2.2379749667     0.3924763534
  138      C       7.7946926335     1.9372502104    -0.9196779393
  139      C       6.3375189677     1.4779449928    -2.8425610935
  140      C       5.7279622631    -3.3758035875    -0.5868733176
  141      C       1.8990887893    -1.0818387681    -1.1488504780
  142      C       4.9746548077     1.7575474809    -3.1038516023
  143      C       5.0526555731    -1.6756714642     2.9806900859
  144      C       2.8355975494     0.5682195857    -2.6629613629
  145      C       2.1724795846     0.2330201065     2.1409295470
  146      C       7.8095777868    -2.0615547088    -0.4128943066
  147      C       5.7382072819     3.1517688877    -1.3805839829
  148      C       2.2287160785    -1.8984657137     0.9232716906
  149      C       7.8138470197    -0.1894221223    -1.9824172763
  150      C       3.2156914623    -0.1570702491     2.9593545543
  151      C       1.7652436471     1.1712691442    -0.4952395740
  152      C       7.4779313522     0.8050227858     2.3669129007
  153      C       7.1750325660    -0.5696035874     2.5935263583
  154      C       2.2647240685     2.0310369344     0.4700892070
  155      C       6.8547932774    -2.9277334602     0.1299453669
  156      C       4.3553473039    -3.0624445371     1.3556071274
  157      C       8.3873769541    -1.2218592025     0.6090761329
  158      C       4.1299999151    -2.7340062064    -2.1081962471
  159      C       3.3076341245     2.6215737234    -1.5037757621
  160      C       3.2253452002    -2.2557344880     1.8083809589
  161      C       2.4941485662     1.5087592847     1.7717187458
  162      C       7.5871957739    -1.5443250022    -1.6792120673
  163      C       4.4056506151     3.3308845608     0.6188530143
  164      C       6.8494244021     0.2110053927    -2.8938336576
  165      C       6.6128235953     2.9688426646     0.9133001252
  166      C       2.3955587518     1.5123011589    -1.7110796267
  167      C       3.1805091116     2.9804464872    -0.1095427936
  168      C       3.7027033835    -1.5581336300    -2.7970041725
  169      C       5.5031801630    -2.8627065588    -1.8521137874
  170      C       8.1428764598     1.1759914423     1.1982592909
  171      C       4.5860139692     2.7055755747    -2.1262857313
  172      C       4.0900305734     0.8975755619     3.1552175987
  173      C       7.6119117501    -1.5715361097     1.7375679485
  174      C       6.3890977117     1.5242946360     2.8711621535
  175      C       6.4640387888    -1.9782980121    -2.4117397552
  176      C       8.4346333809     0.6386269898    -0.9984660775
 ----------------------------------------------------------------

    9   -5804.2417738658      9.32E-06 Convergence criterion met
 Total energy in the final basis set = -5804.2417738658

                    Orbital Energies (a.u.)
 --------------------------------------------------------------

 Alpha MOs
 -- Occupied --
-19.197 -19.188 -19.138 -19.138 -10.324 -10.319 -10.246 -10.244
-10.244 -10.243 -10.242 -10.241 -10.240 -10.236 -10.235 -10.233
-10.232 -10.230 -10.228 -10.228 -10.228 -10.227 -10.226 -10.226
-10.226 -10.225 -10.225 -10.225 -10.224 -10.224 -10.223 -10.223
-10.223 -10.223 -10.222 -10.222 -10.222 -10.222 -10.222 -10.222
-10.221 -10.221 -10.221 -10.221 -10.220 -10.220 -10.220 -10.220
-10.220 -10.220 -10.220 -10.220 -10.220 -10.219 -10.219 -10.219
-10.219 -10.219 -10.219 -10.219 -10.218 -10.218 -10.218 -10.218
-10.218 -10.218 -10.218 -10.218 -10.217 -10.217 -10.217 -10.217
-10.217 -10.217 -10.216 -10.216 -10.216 -10.216 -10.216 -10.216
-10.215 -10.215 -10.215 -10.215 -10.215 -10.215 -10.215 -10.215
-10.214 -10.214 -10.214 -10.214 -10.214 -10.214 -10.214 -10.214
-10.213 -10.213 -10.213 -10.213 -10.213 -10.213 -10.213 -10.213
-10.213 -10.213 -10.213 -10.212 -10.212 -10.212 -10.212 -10.212
-10.212 -10.212 -10.211 -10.211 -10.211 -10.211 -10.211 -10.211
-10.211 -10.211 -10.211 -10.210 -10.210 -10.210 -10.210 -10.210
-10.209 -10.209 -10.209 -10.209 -10.208 -10.207 -10.204 -10.204
-10.204 -10.203 -10.199 -10.199 -10.199 -10.199 -10.198 -10.198
-10.196 -10.196 -10.195 -10.189  -1.091  -1.089  -1.018  -1.003
 -0.990  -0.987  -0.975  -0.970  -0.969  -0.967  -0.967  -0.962
 -0.946  -0.938  -0.934  -0.930  -0.930  -0.929  -0.928  -0.927
 -0.926  -0.923  -0.907  -0.897  -0.895  -0.894  -0.894  -0.888
 -0.881  -0.877  -0.857  -0.855  -0.845  -0.844  -0.843  -0.842
 -0.841  -0.839  -0.825  -0.822  -0.808  -0.804  -0.801  -0.801
 -0.799  -0.798  -0.798  -0.797  -0.796  -0.795  -0.787  -0.786
 -0.773  -0.773  -0.772  -0.771  -0.770  -0.770  -0.768  -0.765
 -0.751  -0.748  -0.743  -0.743  -0.738  -0.734  -0.722  -0.720
 -0.718  -0.717  -0.715  -0.715  -0.714  -0.714  -0.713  -0.712
 -0.711  -0.711  -0.708  -0.705  -0.705  -0.701  -0.680  -0.674
 -0.663  -0.662  -0.661  -0.660  -0.651  -0.650  -0.636  -0.635
 -0.633  -0.629  -0.628  -0.626  -0.626  -0.623  -0.622  -0.619
 -0.618  -0.615  -0.615  -0.614  -0.614  -0.612  -0.611  -0.610
 -0.610  -0.607  -0.606  -0.604  -0.573  -0.571  -0.569  -0.569
 -0.566  -0.563  -0.561  -0.560  -0.560  -0.559  -0.557  -0.556
 -0.541  -0.539  -0.537  -0.534  -0.532  -0.532  -0.531  -0.526
 -0.525  -0.524  -0.522  -0.522  -0.519  -0.519  -0.518  -0.516
 -0.510  -0.510  -0.505  -0.499  -0.495  -0.493  -0.490  -0.489
 -0.487  -0.486  -0.486  -0.485  -0.481  -0.479  -0.478  -0.476
 -0.476  -0.475  -0.472  -0.472  -0.471  -0.470  -0.470  -0.469
 -0.468  -0.467  -0.467  -0.466  -0.465  -0.462  -0.461  -0.460
 -0.459  -0.458  -0.456  -0.454  -0.453  -0.451  -0.448  -0.448
 -0.447  -0.444  -0.443  -0.442  -0.441  -0.440  -0.437  -0.436
 -0.435  -0.432  -0.429  -0.429  -0.428  -0.427  -0.427  -0.426
 -0.426  -0.425  -0.424  -0.423  -0.423  -0.422  -0.421  -0.420
 -0.420  -0.419  -0.418  -0.418  -0.417  -0.417  -0.416  -0.415
 -0.414  -0.414  -0.410  -0.408  -0.405  -0.403  -0.402  -0.400
 -0.397  -0.397  -0.396  -0.395  -0.389  -0.387  -0.387  -0.385
 -0.379  -0.378  -0.375  -0.373  -0.371  -0.371  -0.370  -0.368
 -0.367  -0.366  -0.366  -0.365  -0.364  -0.363  -0.362  -0.360
 -0.360  -0.359  -0.358  -0.357  -0.356  -0.355  -0.354  -0.354
 -0.353  -0.352  -0.351  -0.350  -0.348  -0.347  -0.346  -0.345
 -0.345  -0.344  -0.343  -0.340  -0.340  -0.337  -0.336  -0.334
 -0.333  -0.333  -0.331  -0.331  -0.330  -0.329  -0.329  -0.326
 -0.322  -0.312  -0.300  -0.299  -0.292  -0.287  -0.276  -0.274
 -0.272  -0.271  -0.270  -0.269  -0.268  -0.267  -0.266  -0.266
 -0.264  -0.263  -0.263  -0.261  -0.260  -0.260  -0.256  -0.256
 -0.253  -0.250  -0.249  -0.247  -0.225  -0.225  -0.218  -0.215
 -0.213  -0.211  -0.210  -0.206  -0.203  -0.198

          Ground-State Mulliken Net Atomic Charges

     Atom                 Charge (a.u.)
  ----------------------------------------
      1 O                    -0.479501
      2 C                    -0.077283
      3 H                     0.123664
      4 H                     0.124535
      5 H                     0.126305
      6 O                    -0.451902
      7 C                     0.587855
      8 C                    -0.263216
      9 H                     0.132924
     10 H                     0.136999
     11 C                    -0.180521
     12 H                     0.115149
     13 H                     0.120877
     14 C                    -0.188761
     15 H                     0.116390
     16 H                     0.108036
     17 C                    -0.004922
     18 C                     0.087704
     19 C                    -0.116993
     20 H                     0.093450
     21 C                    -0.085880
     22 H                     0.097635
     23 C                    -0.080214
     24 H                     0.086611
     25 C                    -0.084655
     26 H                     0.095090
     27 C                    -0.118008
     28 H                     0.096709
     29 C                    -0.016193
     30 C                     0.029735
     31 C                     0.021113
     32 C                     0.001209
     33 C                    -0.019268
     34 C                     0.003541
     35 C                     0.011187
     36 C                     0.015455
     37 C                    -0.002363
     38 C                    -0.018814
     39 C                    -0.084826
     40 C                    -0.016711
     41 C                    -0.020235
     42 C                    -0.010514
     43 C                    -0.006376
     44 C                     0.005306
     45 C                    -0.066646
     46 C                     0.031345
     47 C                     0.003535
     48 C                     0.008912
     49 C                    -0.001461
     50 C                    -0.009585
     51 C                    -0.017018
     52 C                     0.005441
     53 C                     0.073355
     54 C                     0.003828
     55 C                    -0.020814
     56 C                    -0.014439
     57 C                     0.006818
     58 C                    -0.009635
     59 C                    -0.004394
     60 C                     0.033039
     61 C                     0.017657
     62 C                    -0.015581
     63 C                    -0.003604
     64 C                    -0.006788
     65 C                     0.024968
     66 C                    -0.014341
     67 C                    -0.000108
     68 C                    -0.025971
     69 C                    -0.001512
     70 C                     0.031090
     71 C                    -0.008556
     72 C                     0.022138
     73 C                     0.011854
     74 C                    -0.014786
     75 C                     0.009907
     76 C                    -0.002501
     77 C                    -0.022559
     78 C                    -0.024693
     79 C                    -0.003777
     80 C                    -0.032221
     81 C                     0.023242
     82 C                     0.009123
     83 C                    -0.000093
     84 C                     0.045188
     85 C                    -0.005519
     86 C                    -0.024097
     87 C                     0.011079
     88 C                    -0.019372
     89 O                    -0.455660
     90 C                    -0.090161
     91 H                     0.122717
     92 H                     0.124298
     93 H                     0.133111
     94 O                    -0.484973
     95 C                     0.598236
     96 C                    -0.247937
     97 H                     0.125400
     98 H                     0.124667
     99 C                    -0.208131
    100 H                     0.111648
    101 H                     0.121128
    102 C                    -0.198647
    103 H                     0.128408
    104 H                     0.114649
    105 C                     0.035654
    106 C                     0.089487
    107 C                    -0.113701
    108 H                     0.094803
    109 C                    -0.094196
    110 H                     0.093550
    111 C                    -0.076909
    112 H                     0.091557
    113 C                    -0.091513
    114 H                     0.090880
    115 C                    -0.101381
    116 H                     0.090983
    117 C                    -0.005022
    118 C                     0.000284
    119 C                    -0.015422
    120 C                    -0.000974
    121 C                    -0.010260
    122 C                     0.012771
    123 C                    -0.008541
    124 C                    -0.009826
    125 C                     0.022721
    126 C                     0.007629
    127 C                    -0.086453
    128 C                     0.003117
    129 C                    -0.002955
    130 C                     0.019038
    131 C                    -0.012059
    132 C                    -0.006555
    133 C                    -0.099805
    134 C                     0.018497
    135 C                     0.021843
    136 C                    -0.003696
    137 C                     0.047030
    138 C                     0.007975
    139 C                    -0.001258
    140 C                    -0.004760
    141 C                     0.014009
    142 C                    -0.018182
    143 C                    -0.010633
    144 C                    -0.029135
    145 C                    -0.018378
    146 C                    -0.007531
    147 C                    -0.006272
    148 C                     0.078551
    149 C                     0.016682
    150 C                    -0.006286
    151 C                     0.010125
    152 C                     0.000248
    153 C                     0.013099
    154 C                    -0.019220
    155 C                     0.027511
    156 C                    -0.006844
    157 C                    -0.020889
    158 C                     0.040924
    159 C                    -0.018762
    160 C                    -0.019270
    161 C                     0.014049
    162 C                    -0.009785
    163 C                     0.008541
    164 C                     0.021145
    165 C                    -0.009327
    166 C                     0.000138
    167 C                    -0.024636
    168 C                    -0.002849
    169 C                     0.013390
    170 C                    -0.009123
    171 C                     0.016422
    172 C                     0.005198
    173 C                    -0.009068
    174 C                    -0.019474
    175 C                    -0.008853
    176 C                    -0.039574
  ----------------------------------------
  Sum of atomic charges =     0.000000

                    Cartesian Multipole Moments
 -----------------------------------------------------------------
    Charge (ESU x 10^10)
                 0.0000
    Dipole Moment (Debye)
         X      -0.0704      Y       0.3472      Z      -1.9968
       Tot       2.0279
    Quadrupole Moments (Debye-Ang)
        XX    -821.7611     XY      10.7224     YY    -808.0097
        XZ       3.5368     YZ      16.2801     ZZ    -797.1761

 Total job time:  898.95s(wall), 7756.98s(cpu)
        *  Thank you very much for using Q-Chem.  Have a nice day.  *
