 Q-Chem 4.4, Q-Chem, Inc., Pleasanton, CA (2016)
 Q-Chem 4.4.2 for Intel X86 Linux

User input:
--------------------------------------------------------------
$comment
SP
$end

$rem
MEM_STATIC 5000
MEM_TOTAL 20000
JOBTYPE SP
EXCHANGE B3LYP
BASIS 6-31g(d,p)
$end

$molecule
0 1
O          13.124000     -9.290000     -6.435000
C          11.774000     -9.066000     -5.969000
H          11.737000     -9.091000     -4.873000
H          11.094000     -9.845000     -6.335000
H          11.291000     -8.160000     -6.356000
O          13.913000     -7.450000     -5.424000
C          14.139000     -8.508000     -5.939000
C          15.488000     -9.052000     -6.222000
H          15.449000    -10.096000     -6.556000
H          15.859000     -9.265000     -5.211000
C          16.450000     -8.061000     -6.890000
H          16.108000     -7.869000     -7.914000
H          16.476000     -7.073000     -6.414000
C          17.848000     -8.670000     -6.981000
H          17.784000     -9.681000     -7.402000
H          18.515000     -8.031000     -7.573000
C          18.529000     -8.734000     -5.577000
C          18.623000     -7.397000     -4.949000
C          17.767000     -6.987000     -3.900000
H          16.891000     -7.543000     -3.578000
C          18.041000     -5.807000     -3.184000
H          17.515000     -5.530000     -2.275000
C          19.180000     -5.028000     -3.561000
H          19.421000     -4.108000     -3.037000
C          19.967000     -5.427000     -4.654000
H          20.856000     -4.840000     -4.866000
C          19.690000     -6.611000     -5.355000
H          20.339000     -6.920000     -6.169000
C          22.900000    -10.736000     -2.872000
C          21.200000    -10.785000     -1.179000
C          20.751000    -15.297000     -1.156000
C          21.368000    -13.172000     -7.095000
C          17.837000    -15.280000     -3.162000
C          21.832000    -10.133000     -2.246000
C          19.628000    -15.263000     -6.319000
C          22.785000    -13.979000     -1.204000
C          17.589000    -11.333000     -2.878000
C          19.937000    -13.018000     -7.215000
C          18.352000    -10.060000     -4.743000
C          17.173000    -11.943000     -4.023000
C          17.924000    -13.530000     -6.203000
C          19.093000    -15.840000     -5.197000
C          19.566000     -9.947000     -2.458000
C          20.004000    -16.418000     -2.984000
C          19.642000     -9.764000     -5.334000
C          20.109000    -10.725000     -6.405000
C          18.904000    -15.811000     -2.355000
C          23.281000    -14.807000     -4.599000
C          22.355000    -15.785000     -2.804000
C          23.211000    -14.776000     -2.337000
C          22.888000    -12.573000     -1.261000
C          21.471000    -10.967000     -6.198000
C          18.401000    -10.194000     -3.247000
C          21.750000    -11.977000     -0.690000
C          19.060000    -14.085000     -6.809000
C          19.787000    -10.654000     -1.301000
C          16.924000    -13.376000     -3.991000
C          23.081000    -12.734000     -5.697000
C          21.544000    -14.266000     -0.685000
C          17.669000    -11.322000     -5.171000
C          23.958000    -12.681000     -3.480000
C          17.348000    -14.143000     -5.086000
C          17.848000    -12.077000     -1.673000
C          21.323000    -16.148000     -5.015000
C          21.027000    -15.471000     -6.210000
C          17.644000    -13.436000     -1.616000
C          22.084000    -12.158000     -6.535000
C          19.317000    -11.796000     -6.878000
C          23.005000    -14.123000     -5.767000
C          20.866000     -9.635000     -4.461000
C          19.525000    -12.937000     -0.383000
C          18.110000    -12.103000     -6.234000
C          17.211000    -14.053000     -2.799000
C          23.580000    -12.011000     -4.608000
C          19.352000    -15.138000     -1.229000
C          23.471000    -11.917000     -2.369000
C          21.156000    -16.166000     -2.165000
C          19.012000    -11.744000     -0.926000
C          18.711000    -13.946000     -0.875000
C          20.761000     -9.602000     -3.055000
C          21.937000    -10.301000     -5.015000
C          22.463000    -15.824000     -4.223000
C          20.923000    -13.046000     -0.301000
C          17.972000    -15.318000     -4.554000
C          21.916000    -14.451000     -6.623000
C          20.090000    -16.412000     -4.365000
C          23.017000    -10.797000     -4.246000
C          23.747000    -14.113000     -3.473000
O          28.620000    -29.701000     -7.239000
C          29.481000    -30.269000     -8.203000
H          30.288000    -29.528000     -8.246000
H          28.952000    -30.489000     -9.139000
H          30.078000    -31.125000     -7.865000
O          27.127000    -31.468000     -7.358000
C          27.517000    -30.420000     -6.858000
C          26.809000    -29.632000     -5.774000
H          27.384000    -29.411000     -4.866000
H          26.099000    -30.351000     -5.346000
C          26.010000    -28.471000     -6.298000
H          26.639000    -27.592000     -6.486000
H          25.499000    -28.798000     -7.212000
C          24.843000    -28.081000     -5.369000
H          24.353000    -29.047000     -5.198000
H          25.217000    -27.725000     -4.400000
C          23.849000    -27.080000     -5.888000
C          22.811000    -27.695000     -6.710000
C          21.564000    -28.111000     -6.161000
H          21.348000    -27.982000     -5.105000
C          20.618000    -28.711000     -6.978000
H          19.680000    -29.158000     -6.660000
C          20.782000    -28.820000     -8.310000
H          20.008000    -29.264000     -8.929000
C          21.977000    -28.352000     -8.912000
H          22.033000    -28.442000     -9.992000
C          22.992000    -27.846000     -8.110000
H          23.919000    -27.526000     -8.576000
C          23.479000    -22.036000     -8.205000
C          21.314000    -22.303000     -7.014000
C          22.205000    -19.320000     -3.732000
C          27.323000    -22.838000     -4.918000
C          23.007000    -21.748000     -1.291000
C          22.396000    -22.887000     -7.728000
C          26.457000    -21.981000     -2.335000
C          22.706000    -19.234000     -6.160000
C          21.711000    -24.679000     -3.799000
C          26.906000    -23.791000     -3.964000
C          23.407000    -25.915000     -5.030000
C          22.784000    -24.942000     -2.865000
C          25.309000    -24.083000     -2.287000
C          25.424000    -21.377000     -1.553000
C          21.723000    -24.408000     -6.231000
C          23.850000    -19.620000     -2.243000
C          24.404000    -25.640000     -6.148000
C          25.742000    -25.073000     -5.777000
C          22.760000    -20.443000     -1.858000
C          26.093000    -19.674000     -5.614000
C          24.390000    -18.728000     -4.426000
C          24.002000    -18.821000     -5.807000
C          22.444000    -20.122000     -7.191000
C          26.072000    -24.026000     -6.628000
C          22.158000    -25.124000     -5.075000
C          21.363000    -20.954000     -6.757000
C          26.414000    -23.328000     -2.690000
C          20.912000    -23.248000     -6.115000
C          22.989000    -23.976000     -1.796000
C          26.684000    -21.667000     -6.836000
C          21.810000    -19.453000     -5.102000
C          23.862000    -25.589000     -3.578000
C          24.782000    -20.337000     -7.573000
C          24.288000    -23.589000     -1.450000
C          20.952000    -23.508000     -3.694000
C          26.039000    -19.899000     -3.190000
C          26.812000    -21.084000     -3.343000
C          21.121000    -22.616000     -2.674000
C          26.881000    -22.966000     -6.264000
C          26.100000    -24.870000     -4.406000
C          26.932000    -20.756000     -5.782000
C          23.956000    -24.707000     -7.203000
C          20.443000    -21.481000     -4.562000
C          25.152000    -25.124000     -3.307000
C          22.176000    -22.855000     -1.754000
C          25.619000    -21.479000     -7.697000
C          21.704000    -20.247000     -2.797000
C          23.509000    -20.690000     -7.862000
C          23.458000    -18.929000     -3.379000
C          20.516000    -22.796000     -4.874000
C          20.864000    -21.311000     -3.207000
C          22.649000    -24.185000     -7.244000
C          25.006000    -23.792000     -7.466000
C          25.652000    -19.266000     -4.322000
C          20.921000    -20.531000     -5.460000
C          24.340000    -22.202000     -1.188000
C          27.292000    -21.464000     -4.640000
C          25.163000    -20.088000     -2.096000
C          24.774000    -22.541000     -7.972000
C          25.026000    -19.403000     -6.511000
$end

--------------------------------------------------------------

             Standard Nuclear Orientation (Angstroms)
    I     Atom           X                Y                Z
 ----------------------------------------------------------------
    1      O     -10.8729611024     5.7047841176    -0.1552959496
    2      C     -11.6116719447     6.5218841178    -1.0915041961
    3      H     -11.6953107540     6.0151031380    -2.0607242888
    4      H     -11.1053822332     7.4788609827    -1.2677512046
    5      H     -12.5948131317     6.8602721129    -0.7410459658
    6      O     -12.3786522409     4.0438780288    -0.2225801212
    7      C     -11.2712059693     4.4068550918     0.0557639236
    8      C     -10.2516351386     3.5884017956     0.7532132215
    9      H      -9.2690226772     4.0756299959     0.7629308069
   10      H     -10.0051903615     2.8402925735    -0.0114622415
   11      C     -10.7638656483     2.8540591508     1.9990502032
   12      H     -10.9791719904     3.5905863274     2.7823604210
   13      H     -11.7113627421     2.3225434401     1.8469439687
   14      C      -9.6825299797     1.9179858247     2.5357492807
   15      H      -8.7322123216     2.4598284338     2.6179741901
   16      H      -9.9820866504     1.4861321546     3.4987872907
   17      C      -9.4949622065     0.6784542266     1.6043778469
   18      C     -10.7543748500    -0.0811824806     1.4381825806
   19      C     -11.5355120572    -0.0114526405     0.2608128796
   20      H     -11.3659931256     0.7033777993    -0.5394850488
   21      C     -12.5912978621    -0.9193427021     0.0578745388
   22      H     -13.1170640400    -1.0147120725    -0.8877261219
   23      C     -12.8672711811    -1.8850150490     1.0765043271
   24      H     -13.6775490954    -2.5983807790     0.9598165517
   25      C     -12.1176968368    -1.8791871810     2.2644956311
   26      H     -12.3206094339    -2.6679158264     2.9832220060
   27      C     -11.0605703132    -0.9751680054     2.4521624718
   28      H     -10.4684575887    -1.0192788590     3.3614120272
   29      C      -6.2779110388    -3.7054007972     0.6753638990
   30      C      -6.9952861835    -3.1339134276    -1.5421628964
   31      C      -2.9755686559    -1.5255794845    -2.8895332707
   32      C      -4.2161562518     0.3265855925     3.0432958980
   33      C      -3.8808163350     1.8627720571    -2.4255058251
   34      C      -7.2791736466    -3.3047482777    -0.1808251858
   35      C      -2.9759344318     1.9521463805     1.0884406702
   36      C      -3.4538348073    -3.5402117819    -1.6289373026
   37      C      -7.6562537965     0.8319608629    -1.7895268506
   38      C      -4.8694951637     1.5206561789     2.5603666060
   39      C      -8.4004965228     0.7774609075     0.4741108234
   40      C      -7.1442929519     1.9116922356    -1.1351131768
   41      C      -5.2133038518     2.8160389221     0.6782836815
   42      C      -2.7310008140     1.9950959148    -0.2592242958
   43      C      -8.2582010680    -1.3869810494    -0.9410686772
   44      C      -2.0518989913     0.3071494895    -1.9178476948
   45      C      -8.1552914885    -0.0723273667     1.6224711241
   46      C      -7.0027569709     0.3415617515     2.5107340264
   47      C      -3.0687716498     0.7315279098    -2.7896062352
   48      C      -2.2161388345    -2.0332084610     1.3129455417
   49      C      -1.7988707845    -1.8916199150    -0.8874692051
   50      C      -2.4630546677    -3.1072620368    -0.6639071305
   51      C      -4.7156205341    -3.9862825071    -1.1821580642
   52      C      -6.3003137730    -0.8145549294     2.8662966424
   53      C      -8.3858135965     0.0315479120    -0.8304087107
   54      C      -5.7311771237    -3.4988000549    -2.0231733269
   55      C      -4.2335226804     2.3362164385     1.5589403913
   56      C      -7.6205713622    -1.9472831268    -2.0212672425
   57      C      -5.9084612655     2.4977600861    -1.6308535497
   58      C      -4.1181728063    -1.8980292517     2.6938605831
   59      C      -3.6834239465    -2.6974792340    -2.6914351520
   60      C      -7.4420150400     1.9015398984     0.2290053988
   61      C      -4.0370616910    -3.7348595634     1.1751432318
   62      C      -4.9494721599     2.9051748866    -0.6920015509
   63      C      -6.9745663732     0.2268216800    -2.9038655900
   64      C      -1.6493577919     0.1556470162     0.4806163102
   65      C      -2.2832156395     0.8048258246     1.5533516475
   66      C      -5.7931274610     0.7429521234    -3.3829871426
   67      C      -4.9438440646    -0.8214482615     3.1266068653
   68      C      -6.2572658158     1.5247169224     2.3047709734
   69      C      -2.8515117700    -1.4158270121     2.3728499616
   70      C      -7.9039155796    -1.5483946027     1.4354372575
   71      C      -5.6765355752    -1.5548479136    -3.5011917210
   72      C      -6.4665802631     2.2829624470     1.1441309834
   73      C      -5.2776228293     1.8574743142    -2.7049294305
   74      C      -4.6999728037    -3.0495503841     2.1524191321
   75      C      -3.6259046649    -0.3825531247    -3.3978292634
   76      C      -5.0175559279    -4.0975616242     0.1941925365
   77      C      -1.9362102457    -1.1169655488    -2.0588493677
   78      C      -6.9235083862    -1.1938652567    -2.9571169742
   79      C      -4.9949388620    -0.3613437652    -3.6848075380
   80      C      -8.0925035019    -2.1692206807     0.1832553312
   81      C      -6.8492596558    -1.9698028165     2.2149428698
   82      C      -1.6025185504    -1.2651446498     0.3757491221
   83      C      -5.0737071327    -2.7153763492    -2.9885703996
   84      C      -3.6778667498     2.4533543798    -1.1735645382
   85      C      -2.8706308089    -0.0041055337     2.5542829519
   86      C      -1.9085286022     0.9203853192    -0.6857844867
   87      C      -6.0617113096    -3.1025740920     1.8981245627
   88      C      -2.7862002564    -3.1679163306     0.7178522498
   89      O      13.7663192498    -0.9869354056     2.1916396167
   90      C      14.6885864477    -1.0591934167     3.2581493426
   91      H      14.2985976707    -1.9070504519     3.8336718892
   92      H      14.7798837508    -0.0983504827     3.7804353358
   93      H      15.6710076614    -1.4808888034     3.0123637455
   94      O      14.8721389654     0.7900018832     1.1990895532
   95      C      13.9993992888    -0.0694909471     1.2003271730
   96      C      12.9185254282    -0.2436398402     0.1521631303
   97      H      12.8454245136    -1.2286989056    -0.3255866932
   98      H      13.2906087009     0.3271799886    -0.7080483328
   99      C      11.5955441498     0.3520471788     0.5468471969
  100      H      11.0251351550    -0.3156367630     1.2044623827
  101      H      11.7907641047     1.3168128755     1.0311635394
  102      C      10.7300116735     0.7427326051    -0.6677508560
  103      H      11.4331448931     1.3286225431    -1.2717654719
  104      H      10.4533555383    -0.1446773506    -1.2521633416
  105      C       9.4840532439     1.5406885216    -0.4027000176
  106      C       9.7468000808     2.9731113145    -0.3003181729
  107      C       9.6321247423     3.8416344412    -1.4236984047
  108      H       9.3439166857     3.4592843592    -2.3979558300
  109      C       9.9140100046     5.1917368173    -1.2816798391
  110      H       9.9602069034     5.9293488409    -2.0782797068
  111      C      10.1882564765     5.7483501292    -0.0867022268
  112      H      10.3711669845     6.8154262019    -0.0014649047
  113      C      10.2402925276     4.9345063118     1.0727819216
  114      H      10.4361493099     5.4495833508     2.0076464918
  115      C      10.0719819219     3.5611402948     0.9502979507
  116      H      10.1521873753     2.9412517944     1.8380987912
  117      C       4.8682782430     1.5975829223     2.7019270402
  118      C       4.2266633822     2.8612373362     0.6602358558
  119      C       1.5044533351    -0.3278464996    -1.0377072374
  120      C       6.7309354825    -2.9742567847     1.3407882883
  121      C       3.8404186583    -1.5266408571    -3.4047786552
  122      C       5.2228934658     2.4874932817     1.6033249303
  123      C       5.4008740540    -3.7817824133    -1.0540254740
  124      C       1.8138224041     0.4416500442     1.3001864403
  125      C       6.3010892771     1.5969153570    -2.5393667976
  126      C       7.3818738914    -2.8407675218     0.0955277515
  127      C       8.1695422216     1.1554510317    -1.0448883455
  128      C       6.8559179163     0.3234120588    -2.9433575531
  129      C       6.9287341813    -2.2787245070    -2.1241060140
  130      C       4.3981309221    -3.4876501959    -2.0294338244
  131      C       6.2612641923     2.7193908400    -0.3652757801
  132      C       2.2544653338    -2.3371835310    -1.6805079033
  133      C       8.3725000542     0.8141571578     0.4254465176
  134      C       8.3018595287    -0.6278355864     0.8316987076
  135      C       2.5883993200    -1.4035978810    -2.6956728785
  136      C       3.4079085370    -2.4937102048     2.1979807427
  137      C       1.8095580364    -1.9447719460     0.6648755717
  138      C       1.8722732242    -0.9141783911     1.6650244256
  139      C       2.6299666011     1.4151399732     1.8536979649
  140      C       7.5233001822    -0.7669446013     1.9735410898
  141      C       6.9851984214     1.9860385791    -1.3533702560
  142      C       2.9713493172     2.3194884792     0.7978795047
  143      C       6.6648645521    -3.1968681330    -1.1038883406
  144      C       4.8803249655     3.0074768776    -0.5289531667
  145      C       5.9434470589    -0.6436707712    -3.5350413659
  146      C       5.5756493665    -1.8208620803     3.0120993443
  147      C       1.6007858898     0.7141291536    -0.0601486576
  148      C       7.9090423046    -0.0300790045    -2.0186764778
  149      C       3.7126927574    -0.2589079532     3.1512574474
  150      C       6.0277018804    -1.9912863841    -3.1693648901
  151      C       4.9298061921     1.8446380482    -2.6680647732
  152      C       3.3904650719    -3.5904115888     0.0239846986
  153      C       4.7839170301    -3.8219399757     0.1967540433
  154      C       4.0770475349     0.9520046484    -3.2517027483
  155      C       6.8034832650    -1.9069192058     2.2783336535
  156      C       8.1270502150    -1.6592696416    -0.1453373683
  157      C       4.7311180777    -2.8006283633     2.4383695012
  158      C       7.4339553351     1.4479221050     1.3750221081
  159      C       2.9384057634     2.1325636130    -1.6323731193
  160      C       7.9240629518    -1.3546706514    -1.5725852887
  161      C       4.6042578724    -0.3063917523    -3.6454460135
  162      C       5.0870787670    -0.5693985406     3.3377184134
  163      C       2.1023278541    -0.1230292146    -2.2967350128
  164      C       3.6015070036     1.0295976408     2.7562257242
  165      C       1.5676629672    -1.6422054580    -0.6971722600
  166      C       4.2112626958     2.5918370455    -1.6606776071
  167      C       2.8184930279     1.0663933853    -2.5763370919
  168      C       6.4776737503     2.3987828394     0.9702957879
  169      C       6.9897395768     0.4611745985     2.2903885475
  170      C       2.7589387206    -2.8854591953     0.9915065798
  171      C       2.3076765840     1.9219227878    -0.4095897596
  172      C       4.7378070156    -2.5485163422    -3.0252017473
  173      C       5.4215331803    -3.4675503224     1.4316073214
  174      C       3.1538133738    -3.3605721099    -1.3511890314
  175      C       5.7880693606     0.5565576117     2.9398127328
  176      C       2.8446910168    -1.2457295412     2.5746361403
 ----------------------------------------------------------------

    9   -5804.3282407133      8.22E-06 Convergence criterion met
 Total energy in the final basis set = -5804.3282407133

                    Orbital Energies (a.u.)
 --------------------------------------------------------------

 Alpha MOs
 -- Occupied --
-19.196 -19.184 -19.144 -19.131 -10.322 -10.311 -10.246 -10.243
-10.243 -10.242 -10.242 -10.239 -10.238 -10.237 -10.236 -10.233
-10.231 -10.230 -10.229 -10.229 -10.228 -10.228 -10.225 -10.224
-10.223 -10.222 -10.222 -10.222 -10.222 -10.222 -10.222 -10.222
-10.222 -10.221 -10.221 -10.221 -10.220 -10.220 -10.220 -10.220
-10.220 -10.219 -10.219 -10.219 -10.219 -10.219 -10.219 -10.218
-10.218 -10.218 -10.217 -10.217 -10.217 -10.217 -10.217 -10.217
-10.217 -10.217 -10.217 -10.217 -10.216 -10.216 -10.216 -10.216
-10.216 -10.216 -10.216 -10.216 -10.216 -10.216 -10.216 -10.215
-10.215 -10.215 -10.215 -10.215 -10.215 -10.215 -10.215 -10.214
-10.214 -10.214 -10.214 -10.214 -10.214 -10.213 -10.213 -10.213
-10.213 -10.213 -10.213 -10.213 -10.213 -10.213 -10.213 -10.213
-10.213 -10.212 -10.212 -10.212 -10.212 -10.212 -10.212 -10.212
-10.212 -10.211 -10.211 -10.210 -10.210 -10.210 -10.210 -10.210
-10.210 -10.210 -10.210 -10.210 -10.210 -10.209 -10.209 -10.209
-10.209 -10.209 -10.209 -10.208 -10.208 -10.208 -10.208 -10.207
-10.207 -10.207 -10.207 -10.205 -10.204 -10.202 -10.202 -10.201
-10.201 -10.200 -10.200 -10.200 -10.200 -10.199 -10.199 -10.199
-10.198 -10.197 -10.191 -10.191  -1.098  -1.091  -1.017  -1.009
 -0.982  -0.981  -0.964  -0.963  -0.961  -0.961  -0.960  -0.958
 -0.934  -0.933  -0.925  -0.925  -0.923  -0.922  -0.922  -0.920
 -0.919  -0.915  -0.896  -0.894  -0.888  -0.886  -0.886  -0.884
 -0.873  -0.871  -0.855  -0.851  -0.842  -0.842  -0.839  -0.839
 -0.836  -0.836  -0.825  -0.822  -0.812  -0.808  -0.800  -0.796
 -0.796  -0.793  -0.793  -0.791  -0.790  -0.789  -0.788  -0.782
 -0.771  -0.771  -0.770  -0.768  -0.766  -0.766  -0.765  -0.765
 -0.752  -0.749  -0.748  -0.743  -0.734  -0.733  -0.716  -0.715
 -0.713  -0.712  -0.711  -0.711  -0.711  -0.710  -0.710  -0.708
 -0.707  -0.706  -0.704  -0.704  -0.704  -0.702  -0.673  -0.672
 -0.660  -0.658  -0.657  -0.656  -0.650  -0.648  -0.631  -0.630
 -0.627  -0.627  -0.626  -0.626  -0.622  -0.621  -0.617  -0.616
 -0.616  -0.615  -0.614  -0.614  -0.612  -0.611  -0.610  -0.608
 -0.606  -0.606  -0.603  -0.601  -0.572  -0.565  -0.562  -0.562
 -0.560  -0.559  -0.557  -0.556  -0.556  -0.555  -0.553  -0.553
 -0.538  -0.537  -0.535  -0.530  -0.529  -0.528  -0.526  -0.522
 -0.521  -0.521  -0.520  -0.520  -0.515  -0.514  -0.514  -0.513
 -0.510  -0.506  -0.504  -0.502  -0.496  -0.490  -0.488  -0.487
 -0.484  -0.484  -0.483  -0.482  -0.481  -0.479  -0.478  -0.476
 -0.472  -0.471  -0.471  -0.469  -0.469  -0.467  -0.465  -0.464
 -0.464  -0.463  -0.463  -0.462  -0.462  -0.460  -0.459  -0.458
 -0.458  -0.458  -0.455  -0.452  -0.451  -0.445  -0.443  -0.441
 -0.441  -0.440  -0.439  -0.438  -0.438  -0.437  -0.434  -0.433
 -0.431  -0.429  -0.429  -0.426  -0.425  -0.425  -0.425  -0.424
 -0.423  -0.423  -0.422  -0.420  -0.419  -0.418  -0.418  -0.417
 -0.417  -0.417  -0.416  -0.416  -0.415  -0.415  -0.414  -0.413
 -0.412  -0.410  -0.409  -0.408  -0.403  -0.402  -0.398  -0.396
 -0.396  -0.394  -0.392  -0.391  -0.389  -0.389  -0.385  -0.382
 -0.380  -0.376  -0.374  -0.373  -0.372  -0.368  -0.367  -0.365
 -0.365  -0.363  -0.363  -0.362  -0.360  -0.359  -0.358  -0.357
 -0.357  -0.356  -0.356  -0.355  -0.354  -0.353  -0.351  -0.350
 -0.350  -0.349  -0.348  -0.346  -0.345  -0.344  -0.344  -0.344
 -0.343  -0.343  -0.341  -0.341  -0.339  -0.338  -0.337  -0.335
 -0.334  -0.332  -0.331  -0.330  -0.329  -0.328  -0.326  -0.325
 -0.309  -0.303  -0.302  -0.295  -0.292  -0.287  -0.275  -0.272
 -0.270  -0.269  -0.269  -0.268  -0.266  -0.265  -0.264  -0.263
 -0.262  -0.261  -0.260  -0.260  -0.259  -0.257  -0.255  -0.254
 -0.251  -0.248  -0.246  -0.241  -0.228  -0.221  -0.213  -0.212
 -0.210  -0.207  -0.206  -0.205  -0.200  -0.196

          Ground-State Mulliken Net Atomic Charges

     Atom                 Charge (a.u.)
  ----------------------------------------
      1 O                    -0.472448
      2 C                    -0.081751
      3 H                     0.122633
      4 H                     0.119052
      5 H                     0.125079
      6 O                    -0.461313
      7 C                     0.581557
      8 C                    -0.253028
      9 H                     0.126961
     10 H                     0.138910
     11 C                    -0.184277
     12 H                     0.109702
     13 H                     0.140028
     14 C                    -0.182842
     15 H                     0.107997
     16 H                     0.107193
     17 C                     0.004667
     18 C                     0.085038
     19 C                    -0.104245
     20 H                     0.104460
     21 C                    -0.093643
     22 H                     0.098294
     23 C                    -0.083630
     24 H                     0.090694
     25 C                    -0.090064
     26 H                     0.089291
     27 C                    -0.101621
     28 H                     0.094540
     29 C                     0.035718
     30 C                    -0.013775
     31 C                     0.022538
     32 C                    -0.020793
     33 C                    -0.005150
     34 C                    -0.022295
     35 C                     0.021276
     36 C                    -0.026092
     37 C                    -0.001283
     38 C                    -0.016208
     39 C                    -0.098998
     40 C                     0.007045
     41 C                     0.003839
     42 C                     0.004010
     43 C                     0.028331
     44 C                     0.004986
     45 C                    -0.106009
     46 C                     0.049614
     47 C                    -0.009125
     48 C                    -0.001405
     49 C                     0.014785
     50 C                    -0.019261
     51 C                     0.002142
     52 C                    -0.000563
     53 C                     0.018309
     54 C                     0.020799
     55 C                     0.000555
     56 C                     0.008731
     57 C                    -0.010944
     58 C                     0.021128
     59 C                     0.022907
     60 C                     0.045965
     61 C                    -0.037231
     62 C                    -0.016772
     63 C                    -0.009505
     64 C                     0.003309
     65 C                    -0.009506
     66 C                     0.004007
     67 C                     0.011708
     68 C                    -0.009455
     69 C                     0.003673
     70 C                     0.044603
     71 C                    -0.002349
     72 C                    -0.018273
     73 C                     0.001322
     74 C                     0.015931
     75 C                     0.000888
     76 C                    -0.013189
     77 C                    -0.034542
     78 C                    -0.006378
     79 C                     0.003444
     80 C                    -0.024958
     81 C                     0.005673
     82 C                     0.013290
     83 C                    -0.022163
     84 C                    -0.002565
     85 C                    -0.035169
     86 C                     0.007205
     87 C                    -0.006067
     88 C                     0.010696
     89 O                    -0.446912
     90 C                    -0.085705
     91 H                     0.119004
     92 H                     0.131464
     93 H                     0.120651
     94 O                    -0.467765
     95 C                     0.584552
     96 C                    -0.241545
     97 H                     0.125488
     98 H                     0.122933
     99 C                    -0.183567
    100 H                     0.118992
    101 H                     0.115424
    102 C                    -0.191076
    103 H                     0.115865
    104 H                     0.105629
    105 C                     0.031918
    106 C                     0.070918
    107 C                    -0.109607
    108 H                     0.093401
    109 C                    -0.075502
    110 H                     0.088195
    111 C                    -0.076365
    112 H                     0.088717
    113 C                    -0.091332
    114 H                     0.091320
    115 C                    -0.104174
    116 H                     0.092986
    117 C                    -0.040828
    118 C                     0.025449
    119 C                     0.010979
    120 C                    -0.020209
    121 C                    -0.024265
    122 C                    -0.030354
    123 C                    -0.013656
    124 C                     0.007196
    125 C                    -0.000063
    126 C                    -0.002417
    127 C                    -0.085602
    128 C                    -0.010873
    129 C                     0.023769
    130 C                    -0.005171
    131 C                    -0.010672
    132 C                     0.003524
    133 C                    -0.086329
    134 C                     0.023475
    135 C                    -0.015704
    136 C                     0.007918
    137 C                    -0.008708
    138 C                    -0.013011
    139 C                     0.008134
    140 C                     0.018179
    141 C                     0.041294
    142 C                    -0.008862
    143 C                     0.004238
    144 C                    -0.016294
    145 C                     0.005216
    146 C                    -0.010524
    147 C                     0.004405
    148 C                     0.011864
    149 C                     0.003598
    150 C                    -0.022223
    151 C                     0.001298
    152 C                    -0.009209
    153 C                     0.004401
    154 C                     0.006189
    155 C                    -0.006869
    156 C                    -0.008799
    157 C                    -0.005881
    158 C                     0.025016
    159 C                     0.001440
    160 C                    -0.026164
    161 C                     0.007287
    162 C                    -0.008880
    163 C                     0.008866
    164 C                     0.026174
    165 C                     0.007243
    166 C                     0.019084
    167 C                    -0.024607
    168 C                     0.015839
    169 C                     0.021287
    170 C                     0.026921
    171 C                    -0.019893
    172 C                     0.016327
    173 C                     0.013817
    174 C                    -0.008211
    175 C                     0.013755
    176 C                    -0.009443
  ----------------------------------------
  Sum of atomic charges =     0.000000

                    Cartesian Multipole Moments
 -----------------------------------------------------------------
    Charge (ESU x 10^10)
                 0.0000
    Dipole Moment (Debye)
         X       0.4425      Y       0.7248      Z       1.3531
       Tot       1.5975
    Quadrupole Moments (Debye-Ang)
        XX    -796.3886     XY      -6.6510     YY    -791.6587
        XZ       1.5665     YZ      -8.2394     ZZ    -797.3842

 Total job time:  845.61s(wall), 7206.12s(cpu)
        *  Thank you very much for using Q-Chem.  Have a nice day.  *
