 Q-Chem 4.4, Q-Chem, Inc., Pleasanton, CA (2016)
 Q-Chem 4.4.2 for Intel X86 Linux

User input:
--------------------------------------------------------------
$comment
SP
$end

$rem
MEM_STATIC 5000
MEM_TOTAL 20000
JOBTYPE SP
EXCHANGE B3LYP
BASIS 6-31g(d,p)
$end

$molecule
0 1
O          17.228000    -12.091000    -11.460000
C          18.279000    -11.935000    -12.476000
H          18.295000    -12.843000    -13.091000
H          19.331000    -11.860000    -12.172000
H          17.968000    -11.147000    -13.172000
O          18.660000    -11.581000     -9.792000
C          17.517000    -11.772000    -10.187000
C          16.224000    -11.644000     -9.368000
H          15.655000    -10.908000     -9.949000
H          16.523000    -11.179000     -8.420000
C          15.503000    -12.952000     -9.005000
H          16.191000    -13.585000     -8.430000
H          14.773000    -12.682000     -8.232000
C          14.774000    -13.744000    -10.098000
H          13.775000    -13.320000    -10.256000
H          15.322000    -13.563000    -11.031000
C          14.626000    -15.213000     -9.801000
C          13.327000    -15.538000     -8.976000
C          12.109000    -15.666000     -9.656000
H          12.015000    -15.546000    -10.731000
C          10.943000    -15.891000     -8.913000
H           9.948000    -16.013000     -9.329000
C          11.035000    -15.906000     -7.506000
H          10.104000    -16.039000     -6.962000
C          12.292000    -15.902000     -6.859000
H          12.394000    -16.006000     -5.783000
C          13.404000    -15.724000     -7.632000
H          14.364000    -15.485000     -7.184000
C          17.112000    -19.962000     -8.281000
C          15.265000    -20.671000     -9.768000
C          17.839000    -21.948000    -13.357000
C          19.867000    -16.405000    -10.873000
C          17.069000    -18.973000    -15.172000
C          15.825000    -19.781000     -8.813000
C          19.751000    -17.034000    -13.566000
C          18.254000    -22.172000    -10.992000
C          14.329000    -17.916000    -12.444000
C          18.899000    -15.766000    -11.760000
C          14.996000    -16.207000    -10.891000
C          14.993000    -16.874000    -13.210000
C          17.563000    -15.896000    -13.500000
C          19.241000    -17.989000    -14.511000
C          14.388000    -18.625000    -10.138000
C          19.038000    -20.331000    -14.476000
C          15.854000    -16.118000     -9.687000
C          17.269000    -15.773000     -9.942000
C          17.682000    -20.225000    -14.861000
C          20.724000    -19.767000    -10.857000
C          19.968000    -21.281000    -12.398000
C          19.504000    -21.597000    -11.162000
C          17.459000    -21.833000     -9.888000
C          18.142000    -16.503000     -9.173000
C          14.267000    -17.563000    -11.062000
C          16.131000    -21.710000    -10.294000
C          18.907000    -16.014000    -13.111000
C          14.339000    -19.953000    -10.609000
C          15.692000    -17.305000    -14.364000
C          19.966000    -18.070000     -9.297000
C          17.386000    -22.253000    -12.094000
C          15.502000    -15.944000    -12.306000
C          19.200000    -20.373000     -9.047000
C          17.030000    -16.787000    -14.492000
C          14.301000    -19.221000    -12.935000
C          20.663000    -19.097000    -13.161000
C          20.591000    -17.793000    -12.698000
C          15.033000    -19.625000    -14.054000
C          19.455000    -16.848000     -9.563000
C          17.627000    -15.484000    -11.252000
C          20.733000    -18.430000    -10.400000
C          16.032000    -17.325000     -8.778000
C          15.165000    -21.256000    -12.526000
C          16.813000    -15.582000    -12.404000
C          15.747000    -18.623000    -14.745000
C          19.223000    -19.056000     -8.521000
C          16.965000    -21.230000    -14.177000
C          17.953000    -20.959000     -8.869000
C          19.153000    -21.412000    -13.533000
C          14.276000    -20.251000    -11.968000
C          15.650000    -20.848000    -13.795000
C          15.286000    -18.497000     -9.086000
C          17.401000    -17.429000     -8.427000
C          20.724000    -20.131000    -12.220000
C          16.086000    -21.918000    -11.671000
C          17.896000    -17.825000    -14.995000
C          20.602000    -17.459000    -11.341000
C          19.798000    -19.249000    -14.281000
C          17.920000    -18.774000     -8.107000
C          19.979000    -20.746000    -10.172000
O          28.620000    -29.701000     -7.239000
C          29.481000    -30.269000     -8.203000
H          30.288000    -29.528000     -8.246000
H          28.952000    -30.489000     -9.139000
H          30.078000    -31.125000     -7.865000
O          27.127000    -31.468000     -7.358000
C          27.517000    -30.420000     -6.858000
C          26.809000    -29.632000     -5.774000
H          27.384000    -29.411000     -4.866000
H          26.099000    -30.351000     -5.346000
C          26.010000    -28.471000     -6.298000
H          26.639000    -27.592000     -6.486000
H          25.499000    -28.798000     -7.212000
C          24.843000    -28.081000     -5.369000
H          24.353000    -29.047000     -5.198000
H          25.217000    -27.725000     -4.400000
C          23.849000    -27.080000     -5.888000
C          22.811000    -27.695000     -6.710000
C          21.564000    -28.111000     -6.161000
H          21.348000    -27.982000     -5.105000
C          20.618000    -28.711000     -6.978000
H          19.680000    -29.158000     -6.660000
C          20.782000    -28.820000     -8.310000
H          20.008000    -29.264000     -8.929000
C          21.977000    -28.352000     -8.912000
H          22.033000    -28.442000     -9.992000
C          22.992000    -27.846000     -8.110000
H          23.919000    -27.526000     -8.576000
C          23.479000    -22.036000     -8.205000
C          21.314000    -22.303000     -7.014000
C          22.205000    -19.320000     -3.732000
C          27.323000    -22.838000     -4.918000
C          23.007000    -21.748000     -1.291000
C          22.396000    -22.887000     -7.728000
C          26.457000    -21.981000     -2.335000
C          22.706000    -19.234000     -6.160000
C          21.711000    -24.679000     -3.799000
C          26.906000    -23.791000     -3.964000
C          23.407000    -25.915000     -5.030000
C          22.784000    -24.942000     -2.865000
C          25.309000    -24.083000     -2.287000
C          25.424000    -21.377000     -1.553000
C          21.723000    -24.408000     -6.231000
C          23.850000    -19.620000     -2.243000
C          24.404000    -25.640000     -6.148000
C          25.742000    -25.073000     -5.777000
C          22.760000    -20.443000     -1.858000
C          26.093000    -19.674000     -5.614000
C          24.390000    -18.728000     -4.426000
C          24.002000    -18.821000     -5.807000
C          22.444000    -20.122000     -7.191000
C          26.072000    -24.026000     -6.628000
C          22.158000    -25.124000     -5.075000
C          21.363000    -20.954000     -6.757000
C          26.414000    -23.328000     -2.690000
C          20.912000    -23.248000     -6.115000
C          22.989000    -23.976000     -1.796000
C          26.684000    -21.667000     -6.836000
C          21.810000    -19.453000     -5.102000
C          23.862000    -25.589000     -3.578000
C          24.782000    -20.337000     -7.573000
C          24.288000    -23.589000     -1.450000
C          20.952000    -23.508000     -3.694000
C          26.039000    -19.899000     -3.190000
C          26.812000    -21.084000     -3.343000
C          21.121000    -22.616000     -2.674000
C          26.881000    -22.966000     -6.264000
C          26.100000    -24.870000     -4.406000
C          26.932000    -20.756000     -5.782000
C          23.956000    -24.707000     -7.203000
C          20.443000    -21.481000     -4.562000
C          25.152000    -25.124000     -3.307000
C          22.176000    -22.855000     -1.754000
C          25.619000    -21.479000     -7.697000
C          21.704000    -20.247000     -2.797000
C          23.509000    -20.690000     -7.862000
C          23.458000    -18.929000     -3.379000
C          20.516000    -22.796000     -4.874000
C          20.864000    -21.311000     -3.207000
C          22.649000    -24.185000     -7.244000
C          25.006000    -23.792000     -7.466000
C          25.652000    -19.266000     -4.322000
C          20.921000    -20.531000     -5.460000
C          24.340000    -22.202000     -1.188000
C          27.292000    -21.464000     -4.640000
C          25.163000    -20.088000     -2.096000
C          24.774000    -22.541000     -7.972000
C          25.026000    -19.403000     -6.511000
$end

--------------------------------------------------------------

             Standard Nuclear Orientation (Angstroms)
    I     Atom           X                Y                Z
 ----------------------------------------------------------------
    1      O      -8.8664637753     3.1138154160    -2.6966843426
    2      C      -8.7344645091     2.6668316709    -4.0909492835
    3      H      -8.4464443633     1.6085657686    -4.0830324925
    4      H      -7.9580640033     3.0984271887    -4.7356760191
    5      H      -9.7316198322     2.6683725415    -4.5467561366
    6      O      -7.4940508521     4.8699593130    -3.0507879729
    7      C      -8.2998671245     4.2797948639    -2.3427476786
    8      C      -8.8516397446     4.7450923877    -0.9870046388
    9      H      -9.9333420065     4.7517912015    -1.1683698573
   10      H      -8.5140054905     5.7831987177    -0.8744508378
   11      C      -8.3591679108     3.9880093748     0.2566877687
   12      H      -7.2655414909     4.0666584066     0.3062214292
   13      H      -8.6515933292     4.6067552706     1.1139916186
   14      C      -8.8425245453     2.5546632367     0.5121074477
   15      H      -9.8233859318     2.5784543031     1.0020930859
   16      H      -9.0161073425     2.1048595580    -0.4733364437
   17      C      -7.9081649848     1.7297073003     1.3573848665
   18      C      -8.1845156272     1.8862457757     2.8977669711
   19      C      -9.2059747181     1.1260268249     3.4817160035
   20      H      -9.8244742322     0.4331449119     2.9193691305
   21      C      -9.4936652836     1.3142507389     4.8396688365
   22      H     -10.2546558857     0.7799380882     5.3994619186
   23      C      -8.7911160955     2.3141236143     5.5432431904
   24      H      -9.0714879185     2.4616920481     6.5824742515
   25      C      -7.6833853237     2.9716736057     4.9608047421
   26      H      -7.0689945019     3.6775384922     5.5115085465
   27      C      -7.4156789470     2.7213816629     3.6449611955
   28      H      -6.7345297823     3.3534598407     3.0828775784
   29      C      -2.7042809567    -0.0766627992     2.1941734215
   30      C      -4.1440382987    -1.9067949009     3.0326090399
   31      C      -3.3031987654    -4.9234320769    -0.3333997283
   32      C      -4.2485964731     0.9707500500    -2.6513145735
   33      C      -6.4386816902    -4.2791547327    -1.9118177756
   34      C      -3.8927528229    -0.5300770327     2.7892399354
   35      C      -5.1524938546    -1.3866842240    -3.7856950949
   36      C      -1.8312926505    -3.3389260328     0.7335862066
   37      C      -7.6409545960    -2.0494410723     1.1945868749
   38      C      -5.6687628468     0.6315617251    -2.6651980550
   39      C      -7.5508647508     0.3314656051     0.8774966456
   40      C      -8.1895611225    -1.7697508152    -0.1223110860
   41      C      -7.2431025587    -0.8987262872    -2.5699663841
   42      C      -5.3270112815    -2.7932707942    -3.5486130664
   43      C      -6.1313598607    -0.8965623277     2.6831406480
   44      C      -4.0133317029    -4.4136685873    -2.4641984977
   45      C      -6.5042012491     1.3792891853     0.8613022387
   46      C      -5.9078710565     1.6581117712    -0.4626778469
   47      C      -5.1347727427    -4.8255183909    -1.7085883247
   48      C      -1.6300509849    -1.1997316714    -1.9657654334
   49      C      -1.8917969110    -3.4517525537    -1.6522307207
   50      C      -1.4446366760    -2.8673451580    -0.5114574215
   51      C      -2.0591766909    -2.4485645336     1.7924002908
   52      C      -4.5471486621     1.8362177197    -0.4069747367
   53      C      -7.2747086540    -0.8378724677     1.8551490796
   54      C      -3.1822126882    -2.8591802517     2.5091526057
   55      C      -6.1203502195    -0.4941917082    -3.3098041767
   56      C      -5.5643756656    -2.1524264695     2.9817376670
   57      C      -7.9905471131    -2.7739135956    -1.1011514889
   58      C      -2.4578098026     0.9546648503    -1.2165231715
   59      C      -2.8434339047    -4.3106149004     0.8096113745
   60      C      -8.0188875200    -0.4095605617    -0.3712086469
   61      C      -1.4379204165    -0.5748840131     0.3876497974
   62      C      -7.4928460221    -2.2980905715    -2.3663937874
   63      C      -7.0833393157    -3.3003264733     1.4577235558
   64      C      -3.1162324247    -2.3783747738    -3.4365142785
   65      C      -3.7509889482    -1.1636580980    -3.6402703910
   66      C      -6.8635574385    -4.2559494696     0.4628961259
   67      C      -3.6566904131     1.5281866549    -1.4592555784
   68      C      -6.4409140742     0.9861285754    -1.5545060046
   69      C      -2.2348924978     0.0461588326    -2.2458057814
   70      C      -5.2419267412     1.2190224795     1.6954435034
   71      C      -5.0936455256    -4.2774154537     1.8337790648
   72      C      -7.4300061845    -0.0242005639    -1.5391493324
   73      C      -7.3213983456    -3.9429023647    -0.8346647451
   74      C      -1.9903633304     0.7082559301     0.1425932472
   75      C      -4.6802057456    -5.1460562563    -0.4114397897
   76      C      -1.8123030104    -1.0479107988     1.6391178687
   77      C      -2.8537349807    -4.4729399354    -1.6139883183
   78      C      -6.0352852649    -3.3294069274     2.4050096972
   79      C      -5.5981631025    -4.8185115930     0.6235200088
   80      C      -5.1508867656     0.0768159058     2.5392680502
   81      C      -4.1285454380     1.6102229405     0.9108912279
   82      C      -2.0214159521    -2.4151419484    -2.5656623587
   83      C      -3.7044594296    -3.9840809524     1.8741134300
   84      C      -6.5212760851    -3.2335089167    -2.8777189059
   85      C      -3.3368394110     0.0285620382    -3.0400893285
   86      C      -4.0911662772    -3.4112441137    -3.3447869111
   87      C      -2.8250301497     0.9914392875     1.2251215318
   88      C      -1.2091517897    -1.5060363744    -0.6574412013
   89      O      11.2090547414    -4.2457642614    -1.9778323012
   90      C      11.6828067559    -5.1844590650    -2.9199852052
   91      H      11.7366745088    -4.5780265330    -3.8318606624
   92      H      11.0511277478    -6.0813200857    -2.9509519652
   93      H      12.7466264747    -5.4414205221    -2.8448359179
   94      O      11.2618896196    -5.7810974242    -0.2442061724
   95      C      11.1010940779    -4.6441861867    -0.6707992242
   96      C      10.6466957921    -3.4450425781     0.1371864216
   97      H      11.2951251504    -2.5601045316     0.1183709714
   98      H      10.8159184421    -3.7486449390     1.1780679236
   99      C       9.1812895570    -3.1412503324    -0.0083911781
  100      H       8.9696450690    -2.5702544769    -0.9209679385
  101      H       8.6365822950    -4.0934325299     0.0010460568
  102      C       8.6011313610    -2.3978772092     1.2113804675
  103      H       8.9488023755    -3.0190663044     2.0454943528
  104      H       9.0636415907    -1.4082496650     1.3222615350
  105      C       7.1086475945    -2.2313109813     1.2757691206
  106      C       6.4379121095    -3.3993241114     1.8389850979
  107      C       6.1267475992    -3.4926670033     3.2260430462
  108      H       6.3826863271    -2.6902547053     3.9109246941
  109      C       5.5090374495    -4.6323981511     3.7178276348
  110      H       5.3141039598    -4.8621868021     4.7618463657
  111      C       5.0827498185    -5.6245148963     2.9134743420
  112      H       4.5709703231    -6.4897059719     3.3244477606
  113      C       5.3044226316    -5.5410050958     1.5158548383
  114      H       4.9096295890    -6.3585974675     0.9214499534
  115      C       6.0177322857    -4.4658380056     1.0013938915
  116      H       6.2164215852    -4.4300070673    -0.0654349167
  117      C       2.7442815614    -0.4543624270    -1.6809330903
  118      C       2.0331290397    -0.1344756684     0.6789248615
  119      C       2.2695883866     4.3828478287     0.6393092100
  120      C       7.2181002565     1.9215914735    -2.4317315625
  121      C       5.3737221664     4.5634516674     2.3211548422
  122      C       2.7731781320    -0.8726413623    -0.2849292506
  123      C       7.2935110051     4.2044294308    -0.7173051046
  124      C       1.4503256516     2.8021605747    -1.0880637596
  125      C       5.1901356683     0.5663092253     3.0624977425
  126      C       7.9579089292     1.8749556768    -1.2305978354
  127      C       6.4955690235    -0.8907436726     1.6160145564
  128      C       6.4702568274     1.2142291283     2.8771774326
  129      C       7.8508566494     2.6105498202     0.9819669807
  130      C       6.6037848967     5.0121743423     0.2393845281
  131      C       3.9375366628    -0.9663570032     1.6236999932
  132      C       4.1948085154     5.4876693507     0.3459785774
  133      C       6.4737987642    -1.3363978216     0.1598289792
  134      C       7.1662356748    -0.4736549409    -0.8528801827
  135      C       4.1606264200     5.0224703619     1.6861559854
  136      C       4.1713242308     3.4159845004    -3.1332708201
  137      C       3.0190630287     4.6417308031    -1.5917426420
  138      C       2.2013392011     3.5394970270    -2.0192498873
  139      C       1.3577369540     1.4197076484    -1.1080697520
  140      C       6.3587203308    -0.3029929283    -1.9700656850
  141      C       5.1786049780    -0.5733135297     2.2097744467
  142      C       1.3569745580     0.9843978183     0.2556185447
  143      C       7.9282316634     3.0185145570    -0.3525879567
  144      C       2.7530623726    -0.2121768569     1.8358555083
  145      C       6.4951890839     2.6683816015     2.9297223393
  146      C       5.2232184552     1.2707378408    -3.4589229505
  147      C       1.4766831755     3.2597473568     0.2386090026
  148      C       7.2466219455     0.4327447885     1.9414416631
  149      C       2.8401557924     1.3674395569    -2.9676652548
  150      C       7.2608826760     3.3833226762     2.0026524483
  151      C       4.0278675547     1.3284266986     3.2257668120
  152      C       5.3648698465     4.9680991096    -1.6856154387
  153      C       6.5231972216     4.1645583144    -1.8799421800
  154      C       4.0524755988     2.6912833967     3.3072595395
  155      C       6.4023284037     0.8115596896    -2.7864282257
  156      C       7.8927408757     0.6925800442    -0.4515073476
  157      C       5.3029965211     2.6831204632    -3.4249849443
  158      C       5.1372199587    -1.5105068691    -0.4463567483
  159      C       2.0676772238     2.0307535976     2.3394120335
  160      C       7.9250545921     1.1469285442     0.9497578894
  161      C       5.2999116085     3.3430088239     3.1183061875
  162      C       4.0269743666     0.6240697988    -3.2105069205
  163      C       2.9302432542     4.3275190295     1.8823011126
  164      C       2.0963000036     0.7203344387    -2.0421424126
  165      C       3.0060237698     5.0982936816    -0.2513642195
  166      C       2.7777852208     0.9154851848     2.6289305996
  167      C       2.8481726420     3.1727990974     2.6981946675
  168      C       3.9485400030    -1.3846408454     0.2976941283
  169      C       5.1440893661    -0.9018506874    -1.7263506794
  170      C       4.2165615971     4.5423821314    -2.2618404111
  171      C       1.3946516355     2.1245108431     1.1246552116
  172      C       6.5657285362     4.5323824738     1.5650004138
  173      C       6.4840171381     3.0600193626    -2.7939813613
  174      C       5.4021445139     5.4749638908    -0.3659064962
  175      C       4.0012044156    -0.4345100301    -2.3181848623
  176      C       2.9068845572     2.8007020108    -2.9353850709
 ----------------------------------------------------------------

    9   -5804.3068251195      8.78E-06 Convergence criterion met
 Total energy in the final basis set = -5804.3068251195

                    Orbital Energies (a.u.)
 --------------------------------------------------------------

 Alpha MOs
 -- Occupied --
-19.198 -19.196 -19.143 -19.131 -10.321 -10.315 -10.246 -10.245
-10.242 -10.242 -10.240 -10.238 -10.237 -10.237 -10.235 -10.232
-10.230 -10.229 -10.229 -10.228 -10.228 -10.227 -10.227 -10.226
-10.225 -10.224 -10.224 -10.223 -10.222 -10.222 -10.221 -10.221
-10.221 -10.221 -10.221 -10.220 -10.220 -10.220 -10.220 -10.219
-10.219 -10.219 -10.218 -10.218 -10.218 -10.218 -10.218 -10.218
-10.218 -10.218 -10.217 -10.217 -10.217 -10.217 -10.217 -10.217
-10.216 -10.216 -10.216 -10.216 -10.216 -10.216 -10.216 -10.216
-10.216 -10.215 -10.215 -10.215 -10.215 -10.215 -10.215 -10.215
-10.215 -10.215 -10.215 -10.214 -10.214 -10.214 -10.214 -10.214
-10.214 -10.214 -10.214 -10.214 -10.213 -10.213 -10.213 -10.213
-10.213 -10.213 -10.212 -10.212 -10.212 -10.212 -10.212 -10.212
-10.212 -10.212 -10.212 -10.212 -10.211 -10.211 -10.211 -10.211
-10.211 -10.211 -10.211 -10.211 -10.211 -10.210 -10.210 -10.210
-10.210 -10.209 -10.209 -10.209 -10.209 -10.209 -10.209 -10.209
-10.208 -10.208 -10.208 -10.208 -10.207 -10.207 -10.207 -10.206
-10.206 -10.206 -10.204 -10.203 -10.203 -10.201 -10.201 -10.201
-10.201 -10.200 -10.200 -10.199 -10.199 -10.199 -10.198 -10.198
-10.196 -10.191 -10.190 -10.189  -1.098  -1.096  -1.016  -1.003
 -0.981  -0.980  -0.966  -0.962  -0.960  -0.959  -0.957  -0.955
 -0.933  -0.933  -0.927  -0.924  -0.921  -0.921  -0.920  -0.918
 -0.916  -0.914  -0.895  -0.892  -0.887  -0.885  -0.884  -0.883
 -0.872  -0.870  -0.858  -0.854  -0.841  -0.839  -0.838  -0.838
 -0.835  -0.832  -0.824  -0.821  -0.811  -0.806  -0.798  -0.795
 -0.794  -0.792  -0.792  -0.789  -0.789  -0.788  -0.786  -0.779
 -0.769  -0.769  -0.768  -0.767  -0.765  -0.765  -0.764  -0.762
 -0.757  -0.751  -0.747  -0.744  -0.734  -0.732  -0.715  -0.714
 -0.714  -0.713  -0.711  -0.710  -0.709  -0.709  -0.709  -0.708
 -0.706  -0.705  -0.705  -0.703  -0.702  -0.701  -0.671  -0.670
 -0.658  -0.656  -0.656  -0.654  -0.648  -0.647  -0.631  -0.628
 -0.627  -0.626  -0.625  -0.625  -0.622  -0.621  -0.618  -0.616
 -0.615  -0.615  -0.613  -0.612  -0.610  -0.609  -0.608  -0.606
 -0.605  -0.605  -0.600  -0.600  -0.571  -0.569  -0.565  -0.561
 -0.559  -0.559  -0.557  -0.556  -0.554  -0.553  -0.552  -0.552
 -0.537  -0.536  -0.534  -0.532  -0.528  -0.527  -0.526  -0.521
 -0.520  -0.520  -0.519  -0.519  -0.514  -0.513  -0.512  -0.512
 -0.509  -0.506  -0.501  -0.497  -0.495  -0.490  -0.487  -0.485
 -0.484  -0.483  -0.482  -0.481  -0.479  -0.477  -0.477  -0.475
 -0.473  -0.472  -0.470  -0.470  -0.468  -0.467  -0.465  -0.463
 -0.462  -0.462  -0.461  -0.460  -0.459  -0.459  -0.458  -0.457
 -0.456  -0.454  -0.453  -0.453  -0.451  -0.448  -0.445  -0.441
 -0.441  -0.440  -0.438  -0.437  -0.436  -0.435  -0.434  -0.432
 -0.431  -0.428  -0.427  -0.427  -0.426  -0.425  -0.424  -0.424
 -0.423  -0.422  -0.421  -0.419  -0.418  -0.417  -0.416  -0.416
 -0.416  -0.415  -0.414  -0.413  -0.412  -0.412  -0.411  -0.410
 -0.410  -0.409  -0.408  -0.407  -0.401  -0.401  -0.399  -0.396
 -0.394  -0.393  -0.391  -0.390  -0.390  -0.389  -0.385  -0.384
 -0.377  -0.375  -0.375  -0.371  -0.369  -0.367  -0.367  -0.366
 -0.364  -0.364  -0.362  -0.361  -0.360  -0.360  -0.358  -0.357
 -0.356  -0.355  -0.354  -0.354  -0.352  -0.352  -0.351  -0.350
 -0.349  -0.349  -0.348  -0.347  -0.346  -0.345  -0.344  -0.343
 -0.342  -0.340  -0.340  -0.339  -0.336  -0.336  -0.335  -0.333
 -0.333  -0.332  -0.330  -0.329  -0.327  -0.326  -0.325  -0.323
 -0.308  -0.305  -0.302  -0.298  -0.288  -0.287  -0.275  -0.273
 -0.269  -0.268  -0.266  -0.266  -0.265  -0.264  -0.263  -0.262
 -0.261  -0.260  -0.259  -0.258  -0.257  -0.257  -0.256  -0.254
 -0.250  -0.249  -0.248  -0.245  -0.223  -0.222  -0.213  -0.210
 -0.209  -0.205  -0.205  -0.203  -0.199  -0.199

          Ground-State Mulliken Net Atomic Charges

     Atom                 Charge (a.u.)
  ----------------------------------------
      1 O                    -0.450807
      2 C                    -0.108824
      3 H                     0.124403
      4 H                     0.156180
      5 H                     0.125721
      6 O                    -0.473373
      7 C                     0.582238
      8 C                    -0.249341
      9 H                     0.124506
     10 H                     0.130915
     11 C                    -0.193912
     12 H                     0.115127
     13 H                     0.110886
     14 C                    -0.194146
     15 H                     0.111523
     16 H                     0.129052
     17 C                     0.013058
     18 C                     0.087903
     19 C                    -0.108164
     20 H                     0.093198
     21 C                    -0.088337
     22 H                     0.094220
     23 C                    -0.089872
     24 H                     0.086345
     25 C                    -0.092341
     26 H                     0.094828
     27 C                    -0.097000
     28 H                     0.089513
     29 C                    -0.025279
     30 C                    -0.024378
     31 C                    -0.016626
     32 C                    -0.039188
     33 C                    -0.012472
     34 C                     0.008434
     35 C                    -0.022049
     36 C                    -0.016434
     37 C                     0.003528
     38 C                    -0.018644
     39 C                    -0.093317
     40 C                    -0.005768
     41 C                    -0.015637
     42 C                    -0.001153
     43 C                    -0.002776
     44 C                     0.014284
     45 C                    -0.086088
     46 C                     0.038263
     47 C                     0.006369
     48 C                    -0.013060
     49 C                     0.023042
     50 C                     0.022206
     51 C                    -0.003388
     52 C                     0.033357
     53 C                     0.037535
     54 C                    -0.007918
     55 C                    -0.003082
     56 C                     0.013482
     57 C                     0.000990
     58 C                     0.022689
     59 C                     0.008304
     60 C                     0.006388
     61 C                     0.007970
     62 C                    -0.030817
     63 C                     0.009496
     64 C                    -0.013761
     65 C                     0.021590
     66 C                    -0.003096
     67 C                    -0.013865
     68 C                     0.036040
     69 C                    -0.004652
     70 C                     0.003183
     71 C                    -0.026735
     72 C                     0.032901
     73 C                     0.000865
     74 C                    -0.000823
     75 C                     0.001974
     76 C                    -0.003517
     77 C                    -0.023837
     78 C                    -0.026049
     79 C                     0.019478
     80 C                     0.037444
     81 C                    -0.013070
     82 C                    -0.015370
     83 C                     0.021821
     84 C                    -0.006842
     85 C                     0.028640
     86 C                     0.015455
     87 C                    -0.019294
     88 C                     0.009632
     89 O                    -0.447086
     90 C                    -0.085663
     91 H                     0.118974
     92 H                     0.131496
     93 H                     0.120535
     94 O                    -0.467563
     95 C                     0.584432
     96 C                    -0.241200
     97 H                     0.125258
     98 H                     0.122746
     99 C                    -0.183871
    100 H                     0.119078
    101 H                     0.115466
    102 C                    -0.190563
    103 H                     0.115613
    104 H                     0.105469
    105 C                     0.031250
    106 C                     0.070241
    107 C                    -0.109654
    108 H                     0.093253
    109 C                    -0.075428
    110 H                     0.088021
    111 C                    -0.076329
    112 H                     0.088653
    113 C                    -0.091072
    114 H                     0.091290
    115 C                    -0.103979
    116 H                     0.092989
    117 C                    -0.040662
    118 C                     0.029491
    119 C                     0.005650
    120 C                    -0.020301
    121 C                    -0.024940
    122 C                    -0.031519
    123 C                    -0.014364
    124 C                     0.003965
    125 C                    -0.000199
    126 C                    -0.002956
    127 C                    -0.084337
    128 C                    -0.010727
    129 C                     0.022921
    130 C                    -0.006072
    131 C                    -0.010540
    132 C                     0.010428
    133 C                    -0.085510
    134 C                     0.022676
    135 C                    -0.016789
    136 C                     0.007756
    137 C                    -0.011412
    138 C                    -0.014795
    139 C                     0.017917
    140 C                     0.018853
    141 C                     0.040139
    142 C                    -0.009766
    143 C                     0.005238
    144 C                    -0.017335
    145 C                     0.004687
    146 C                    -0.011194
    147 C                    -0.000102
    148 C                     0.011291
    149 C                     0.004131
    150 C                    -0.022032
    151 C                     0.000911
    152 C                    -0.009784
    153 C                     0.004164
    154 C                     0.005131
    155 C                    -0.006778
    156 C                    -0.008549
    157 C                    -0.006223
    158 C                     0.024890
    159 C                    -0.000056
    160 C                    -0.026625
    161 C                     0.008046
    162 C                    -0.008056
    163 C                     0.010407
    164 C                     0.023706
    165 C                     0.000202
    166 C                     0.018715
    167 C                    -0.024826
    168 C                     0.016668
    169 C                     0.019954
    170 C                     0.030232
    171 C                    -0.013134
    172 C                     0.015294
    173 C                     0.013451
    174 C                    -0.008259
    175 C                     0.014779
    176 C                    -0.006080
  ----------------------------------------
  Sum of atomic charges =     0.000000

                    Cartesian Multipole Moments
 -----------------------------------------------------------------
    Charge (ESU x 10^10)
                 0.0000
    Dipole Moment (Debye)
         X      -2.4810      Y      -0.5700      Z       1.0541
       Tot       2.7552
    Quadrupole Moments (Debye-Ang)
        XX    -754.9825     XY      -8.3019     YY    -823.8944
        XZ     -21.7977     YZ      15.3906     ZZ    -792.5924

 Total job time:  847.22s(wall), 7181.22s(cpu)
        *  Thank you very much for using Q-Chem.  Have a nice day.  *
