 Q-Chem 4.4, Q-Chem, Inc., Pleasanton, CA (2016)
 Q-Chem 4.4.2 for Intel X86 Linux

User input:
--------------------------------------------------------------
$comment
SP
$end

$rem
MEM_STATIC 5000
MEM_TOTAL 20000
JOBTYPE SP
EXCHANGE B3LYP
BASIS 6-31g(d,p)
$end

$molecule
0 1
O          10.938000    -20.335000    -10.813000
C          11.036000    -19.019000    -11.342000
H          10.060000    -18.748000    -11.763000
H          11.772000    -18.813000    -12.130000
H          11.304000    -18.210000    -10.651000
O          10.428000    -21.268000    -12.804000
C          10.604000    -21.415000    -11.626000
C          10.421000    -22.684000    -10.825000
H           9.807000    -23.327000    -11.467000
H           9.847000    -22.441000     -9.923000
C          11.830000    -23.340000    -10.402000
H          12.137000    -23.912000    -11.286000
H          12.620000    -22.617000    -10.168000
C          11.611000    -24.414000     -9.287000
H          10.546000    -24.650000     -9.177000
H          12.250000    -25.303000     -9.345000
C          12.049000    -23.781000     -7.925000
C          11.472000    -22.465000     -7.573000
C          10.256000    -22.377000     -6.927000
H           9.735000    -23.309000     -6.729000
C           9.710000    -21.174000     -6.486000
H           8.744000    -21.151000     -5.990000
C          10.331000    -19.939000     -6.719000
H           9.904000    -18.982000     -6.434000
C          11.485000    -19.998000     -7.558000
H          11.915000    -19.094000     -7.979000
C          12.080000    -21.221000     -7.878000
H          12.979000    -21.271000     -8.485000
C          15.887000    -22.909000     -3.964000
C          13.931000    -23.466000     -2.744000
C          15.371000    -27.597000     -1.367000
C          16.859000    -26.461000     -7.467000
C          13.575000    -29.225000     -3.891000
C          14.512000    -22.848000     -3.833000
C          16.048000    -28.886000     -6.383000
C          16.544000    -25.478000     -1.572000
C          11.455000    -25.989000     -4.841000
C          15.636000    -27.011000     -7.847000
C          12.216000    -24.807000     -6.780000
C          11.755000    -26.966000     -5.786000
C          13.843000    -28.196000     -7.175000
C          15.500000    -29.582000     -5.292000
C          12.480000    -23.767000     -4.504000
C          15.843000    -29.146000     -2.973000
C          13.396000    -24.049000     -7.249000
C          14.595000    -24.746000     -7.895000
C          14.462000    -29.126000     -2.741000
C          18.450000    -26.418000     -4.326000
C          17.467000    -27.487000     -2.572000
C          17.559000    -26.151000     -2.228000
C          16.132000    -24.208000     -1.939000
C          15.812000    -24.270000     -7.383000
C          11.785000    -24.671000     -5.342000
C          14.734000    -24.196000     -1.846000
C          15.235000    -28.261000     -7.339000
C          12.735000    -24.093000     -3.146000
C          12.279000    -28.179000     -5.368000
C          17.836000    -24.915000     -6.081000
C          15.439000    -26.227000     -1.105000
C          12.299000    -26.355000     -6.938000
C          17.754000    -24.185000     -3.721000
C          13.257000    -28.899000     -6.110000
C          11.640000    -26.258000     -3.438000
C          17.538000    -28.704000     -4.644000
C          17.331000    -28.409000     -6.041000
C          12.147000    -27.471000     -3.081000
C          16.974000    -25.050000     -7.155000
C          14.538000    -26.163000     -8.001000
C          18.333000    -26.160000     -5.690000
C          14.115000    -23.114000     -6.278000
C          13.097000    -25.972000     -1.641000
C          13.414000    -26.905000     -7.625000
C          12.443000    -28.423000     -4.029000
C          17.531000    -23.939000     -5.095000
C          14.191000    -28.122000     -1.850000
C          16.709000    -23.533000     -3.000000
C          16.416000    -28.189000     -2.147000
C          12.320000    -25.312000     -2.618000
C          13.026000    -27.321000     -2.001000
C          13.619000    -23.049000     -4.936000
C          15.545000    -23.277000     -6.392000
C          18.061000    -27.671000     -3.805000
C          14.316000    -25.384000     -1.220000
C          14.084000    -29.518000     -5.133000
C          17.727000    -27.159000     -6.589000
C          16.396000    -29.377000     -4.226000
C          16.403000    -23.105000     -5.265000
C          18.174000    -25.455000     -3.334000
O          28.620000    -29.701000     -7.239000
C          29.481000    -30.269000     -8.203000
H          30.288000    -29.528000     -8.246000
H          28.952000    -30.489000     -9.139000
H          30.078000    -31.125000     -7.865000
O          27.127000    -31.468000     -7.358000
C          27.517000    -30.420000     -6.858000
C          26.809000    -29.632000     -5.774000
H          27.384000    -29.411000     -4.866000
H          26.099000    -30.351000     -5.346000
C          26.010000    -28.471000     -6.298000
H          26.639000    -27.592000     -6.486000
H          25.499000    -28.798000     -7.212000
C          24.843000    -28.081000     -5.369000
H          24.353000    -29.047000     -5.198000
H          25.217000    -27.725000     -4.400000
C          23.849000    -27.080000     -5.888000
C          22.811000    -27.695000     -6.710000
C          21.564000    -28.111000     -6.161000
H          21.348000    -27.982000     -5.105000
C          20.618000    -28.711000     -6.978000
H          19.680000    -29.158000     -6.660000
C          20.782000    -28.820000     -8.310000
H          20.008000    -29.264000     -8.929000
C          21.977000    -28.352000     -8.912000
H          22.033000    -28.442000     -9.992000
C          22.992000    -27.846000     -8.110000
H          23.919000    -27.526000     -8.576000
C          23.479000    -22.036000     -8.205000
C          21.314000    -22.303000     -7.014000
C          22.205000    -19.320000     -3.732000
C          27.323000    -22.838000     -4.918000
C          23.007000    -21.748000     -1.291000
C          22.396000    -22.887000     -7.728000
C          26.457000    -21.981000     -2.335000
C          22.706000    -19.234000     -6.160000
C          21.711000    -24.679000     -3.799000
C          26.906000    -23.791000     -3.964000
C          23.407000    -25.915000     -5.030000
C          22.784000    -24.942000     -2.865000
C          25.309000    -24.083000     -2.287000
C          25.424000    -21.377000     -1.553000
C          21.723000    -24.408000     -6.231000
C          23.850000    -19.620000     -2.243000
C          24.404000    -25.640000     -6.148000
C          25.742000    -25.073000     -5.777000
C          22.760000    -20.443000     -1.858000
C          26.093000    -19.674000     -5.614000
C          24.390000    -18.728000     -4.426000
C          24.002000    -18.821000     -5.807000
C          22.444000    -20.122000     -7.191000
C          26.072000    -24.026000     -6.628000
C          22.158000    -25.124000     -5.075000
C          21.363000    -20.954000     -6.757000
C          26.414000    -23.328000     -2.690000
C          20.912000    -23.248000     -6.115000
C          22.989000    -23.976000     -1.796000
C          26.684000    -21.667000     -6.836000
C          21.810000    -19.453000     -5.102000
C          23.862000    -25.589000     -3.578000
C          24.782000    -20.337000     -7.573000
C          24.288000    -23.589000     -1.450000
C          20.952000    -23.508000     -3.694000
C          26.039000    -19.899000     -3.190000
C          26.812000    -21.084000     -3.343000
C          21.121000    -22.616000     -2.674000
C          26.881000    -22.966000     -6.264000
C          26.100000    -24.870000     -4.406000
C          26.932000    -20.756000     -5.782000
C          23.956000    -24.707000     -7.203000
C          20.443000    -21.481000     -4.562000
C          25.152000    -25.124000     -3.307000
C          22.176000    -22.855000     -1.754000
C          25.619000    -21.479000     -7.697000
C          21.704000    -20.247000     -2.797000
C          23.509000    -20.690000     -7.862000
C          23.458000    -18.929000     -3.379000
C          20.516000    -22.796000     -4.874000
C          20.864000    -21.311000     -3.207000
C          22.649000    -24.185000     -7.244000
C          25.006000    -23.792000     -7.466000
C          25.652000    -19.266000     -4.322000
C          20.921000    -20.531000     -5.460000
C          24.340000    -22.202000     -1.188000
C          27.292000    -21.464000     -4.640000
C          25.163000    -20.088000     -2.096000
C          24.774000    -22.541000     -7.972000
C          25.026000    -19.403000     -6.511000
$end

--------------------------------------------------------------

             Standard Nuclear Orientation (Angstroms)
    I     Atom           X                Y                Z
 ----------------------------------------------------------------
    1      O       8.3812465019     5.1406519677     3.9802648492
    2      C       8.2523230236     6.5051424568     4.3582138428
    3      H       9.2458307204     6.8757080332     4.6390725438
    4      H       7.5859522162     6.7688927602     5.1897556184
    5      H       7.8666041512     7.2078146930     3.6090418466
    6      O       9.1432952392     4.4880316283     6.0021546619
    7      C       8.8617750040     4.1878604836     4.8748070487
    8      C       9.0453165050     2.8407136129     4.2137784365
    9      H       9.7592560454     2.3142284379     4.8585362927
   10      H       9.5110034468     2.9995535031     3.2339649024
   11      C       7.6460968859     2.0661713616     4.0219067131
   12      H       7.4647256532     1.5927430726     4.9944596068
   13      H       6.7924894803     2.7133048458     3.7891887492
   14      C       7.8220391245     0.8753420303     3.0240931871
   15      H       8.8838621898     0.6824457351     2.8308477544
   16      H       7.2497295029    -0.0312553318     3.2533286991
   17      C       7.2125670196     1.3120210925     1.6509827947
   18      C       7.6671637280     2.6023015452     1.0877713013
   19      C       8.8055084851     2.6720419335     0.3112254288
   20      H       9.3626984801     1.7506534072     0.1703301025
   21      C       9.2277382315     3.8377577746    -0.3233095342
   22      H      10.1367266136     3.8487958467    -0.9177161981
   23      C       8.5554091756     5.0586243047    -0.1729314892
   24      H       8.8904856876     5.9937160441    -0.6119419333
   25      C       7.4958107988     5.0446341901     0.7842380655
   26      H       7.0527500462     5.9704753989     1.1390228250
   27      C       7.0142676705     3.8416447584     1.3068149909
   28      H       6.1844733403     3.8209896232     2.0069326488
   29      C       2.9552375177     1.4903893503    -1.9578230019
   30      C       4.8129461647     0.8879529340    -3.3033986955
   31      C       3.5100259388    -3.4497898019    -4.0253937389
   32      C       2.5611560141    -1.6469337098     2.0214232566
   33      C       5.6459418589    -4.6594567925    -1.5311714244
   34      C       4.3039541372     1.6051171670    -2.2394397777
   35      C       3.4140244737    -4.1424722821     1.1506163751
   36      C       2.2305033327    -1.3846012628    -3.9483664794
   37      C       7.6390330031    -1.2265674057    -1.1973239306
   38      C       3.8481547338    -2.0824043976     2.3322746288
   39      C       6.9991636436     0.1452780304     0.6586322386
   40      C       7.4963931933    -2.0934679300    -0.1176520519
   41      C       5.6379492931    -3.2478811298     1.6188621099
   42      C       3.8950100297    -4.9388740778     0.0973366996
   43      C       6.4465227866     0.8813473048    -1.6832179074
   44      C       3.2981069385    -4.8107400233    -2.2076132703
   45      C       5.8253002533     0.8939287936     1.1571217325
   46      C       4.7425861531     0.2215270997     2.0034858026
   47      C       4.6454375500    -4.7488093139    -2.5847734626
   48      C       0.6688680493    -2.0737268451    -0.9173017863
   49      C       1.5402462692    -3.2993659454    -2.6272944160
   50      C       1.3299774074    -2.0225556418    -3.1143657191
   51      C       2.5950211545    -0.0595717944    -3.7787885759
   52      C       3.4532461177     0.5676687206     1.5703608190
   53      C       7.2768246158     0.1245600469    -0.8227779509
   54      C       3.9734414283     0.0124671077    -4.0195476783
   55      C       4.2758565868    -3.3633688693     1.9353286033
   56      C       6.0801984908     0.3775069315    -2.9589202192
   57      C       7.0119960304    -3.3740459189    -0.3324738452
   58      C       1.3559496548    -0.3360329367     0.5741299916
   59      C       3.3295089627    -2.1279287290    -4.4380254457
   60      C       7.0307995639    -1.3735650653     1.0054345154
   61      C       1.1583661325     0.1001747557    -1.8507220865
   62      C       6.1596801080    -4.0460622399     0.5880692731
   63      C       7.3341641764    -1.6758899538    -2.5315500158
   64      C       1.7513580328    -4.2532032418    -0.4307197564
   65      C       2.0758294300    -3.7777278264     0.8922029329
   66      C       6.8726610121    -2.9480639094    -2.6879317795
   67      C       2.3264275144    -0.2930235181     1.5595577738
   68      C       4.8997961580    -1.1667402967     2.2687642425
   69      C       0.9030628796    -1.6436059199     0.3868829288
   70      C       4.9560849791     1.6637836432     0.1642394042
   71      C       5.6919371258    -1.6890262689    -4.1858691360
   72      C       6.0261930067    -1.8909193549     1.8661343494
   73      C       6.7326985870    -3.7896134571    -1.6086593957
   74      C       1.4995781487     0.5250696075    -0.5464369471
   75      C       4.7628812071    -3.8499685728    -3.6112384203
   76      C       2.0836155370     0.7108278816    -2.7496026678
   77      C       2.5867732629    -3.9936956148    -3.0753095516
   78      C       6.5178603589    -0.8744883514    -3.3807375977
   79      C       5.8837548490    -2.9778200015    -3.6792542173
   80      C       5.3122751355     1.5878887824    -1.2208864177
   81      C       3.5575625812     1.4430541194     0.4468673927
   82      C       1.0835625137    -3.3598846331    -1.3254655348
   83      C       4.4024525936    -1.2207549441    -4.5420960407
   84      C       5.2814934076    -4.8225301802    -0.2166074676
   85      C       1.6570349348    -2.4915675036     1.3281189739
   86      C       2.8871014753    -4.9132661363    -0.8848351689
   87      C       2.5834799718     1.4303724181    -0.5956676161
   88      C       0.7839326021    -1.2277344498    -2.0392046412
   89      O      -8.9349713030    -5.4886161870     3.4182902698
   90      C      -9.6588886425    -5.9765871689     4.5278257611
   91      H     -10.5032264543    -5.2782792057     4.5683059805
   92      H      -9.0273031476    -6.0519188400     5.4221198413
   93      H     -10.2306124400    -6.8972314153     4.3577226426
   94      O      -7.3281249079    -7.1485574653     3.5860359557
   95      C      -7.8313856013    -6.1916952055     3.0102345227
   96      C      -7.2852352687    -5.5083578563     1.7724809602
   97      H      -7.9598075063    -5.4309343705     0.9105715102
   98      H      -6.5765681220    -6.2373776827     1.3594846310
   99      C      -6.5139821145    -4.2521323397     2.0690682554
  100      H      -7.1760398209    -3.3900366428     2.2177175159
  101      H      -5.8956324407    -4.4371424624     2.9561200777
  102      C      -5.4714027966    -3.9205620970     0.9827351849
  103      H      -4.9401747487    -4.8738994912     0.8757698916
  104      H      -5.9609634992    -3.7065847022     0.0235078954
  105      C      -4.4968084924    -2.8135260508     1.2726233269
  106      C      -3.3458391911    -3.2683090462     2.0470877190
  107      C      -2.1350820719    -3.6844766492     1.4223175816
  108      H      -2.0328465093    -3.6759743096     0.3416193813
  109      C      -1.0769247505    -4.1297257098     2.1997887110
  110      H      -0.1482976614    -4.5639211422     1.8393680459
  111      C      -1.1015928719    -4.0816595653     3.5451816386
  112      H      -0.2436860045    -4.4055735277     4.1269449511
  113      C      -2.2587945306    -3.6047493745     4.2106844493
  114      H      -2.2022509579    -3.5634399120     5.2936121259
  115      C      -3.3780164830    -3.2543394565     3.4663591773
  116      H      -4.2730541134    -2.9271634492     3.9866941660
  117      C      -4.2219574455     2.4902765605     2.9283587412
  118      C      -2.1722852471     2.1895265933     1.5552643031
  119      C      -3.5703603124     4.6947925644    -1.9422666154
  120      C      -8.3123155763     1.0925999182     0.1825657108
  121      C      -4.4528934773     1.9460553878    -3.9824744838
  122      C      -3.1392955874     1.6435026963     2.4431409305
  123      C      -7.7613680074     1.6672997390    -2.5601466132
  124      C      -3.8341014838     5.0541872838     0.4979909592
  125      C      -2.7321982442    -0.5825082717    -1.2980723652
  126      C      -7.9315729196     0.0517115803    -0.6913910943
  127      C      -4.2165370474    -1.7422937854     0.2417681720
  128      C      -3.8730998510    -1.0134669268    -2.0761932821
  129      C      -6.4922825810    -0.3629342272    -2.4815067821
  130      C      -6.8509930889     2.2222359709    -3.5123505232
  131      C      -2.5216918765    -0.0142249288     1.0727819347
  132      C      -5.3316523930     4.1293199405    -3.2037090114
  133      C      -5.1139756831    -1.3827840167     1.4185921271
  134      C      -6.5153751925    -0.9352469539     1.1267634231
  135      C      -4.2347540635     3.3220145750    -3.6021134563
  136      C      -7.2235300169     4.3771666760     0.3679820519
  137      C      -5.7095505847     5.2552246305    -1.0960362223
  138      C      -5.1822187541     5.3534818296     0.2376131556
  139      C      -3.4158088153     4.3149039843     1.5928153499
  140      C      -6.8258496123     0.1905355691     1.8787802750
  141      C      -3.0220530309    -0.8888415001     0.0613959706
  142      C      -2.3321045201     3.4921671933     1.1480343100
  143      C      -7.5979769668     0.3784359165    -2.0557495327
  144      C      -1.8015279604     1.1625898852     0.7362587892
  145      C      -4.2434936127    -0.1986560010    -3.2237269924
  146      C      -7.5632197023     2.5226846148     1.8713520005
  147      C      -3.0346157976     4.7524091490    -0.6155141351
  148      C      -4.8322279372    -1.6218437436    -1.1823180318
  149      C      -5.6863435599     4.0292125266     2.2420035850
  150      C      -5.5922460767     0.0755826995    -3.4738188278
  151      C      -2.0632912025     0.6039017906    -1.6195401449
  152      C      -7.3944647441     3.8576102886    -2.0048136576
  153      C      -8.0716541237     2.6625361716    -1.6328252184
  154      C      -2.3883964007     1.3532727593    -2.7137863518
  155      C      -7.7325787889     1.1546160241     1.4800722657
  156      C      -7.0189274860    -0.9217196720    -0.2131119816
  157      C      -7.9713389912     3.2826384531     0.7496346522
  158      C      -4.6244642798    -0.3049222242     2.3033579392
  159      C      -1.6012356543     2.7459742213    -1.0545053036
  160      C      -6.1696143170    -1.2605823257    -1.3684735020
  161      C      -3.5115696327     0.9487498033    -3.4828046019
  162      C      -6.4326848665     2.8698918396     2.5870531449
  163      C      -3.1059794411     3.6863211641    -2.8093830097
  164      C      -4.3711920456     3.7802973585     2.4345567822
  165      C      -4.8743746769     4.9744878807    -2.2045947821
  166      C      -1.5593173235     1.4775693079    -0.5840907746
  167      C      -2.1636766186     2.7255456210    -2.3680534885
  168      C      -3.3556595655     0.2844230241     2.1445474380
  169      C      -5.6995150388     0.5805407377     2.5662556543
  170      C      -6.9388564096     4.6445487985    -1.0023013997
  171      C      -2.0478849358     3.7738484259    -0.2290557056
  172      C      -5.7579551479     1.4151109603    -3.8901378666
  173      C      -8.3963472707     2.4215218213    -0.2567818167
  174      C      -6.6202974421     3.5800923500    -3.1552839016
  175      C      -5.4988476460     1.8946831839     2.8943154485
  176      C      -6.0927422287     4.8111768915     1.1092600774
 ----------------------------------------------------------------

    9   -5804.3113167927      8.36E-06 Convergence criterion met
 Total energy in the final basis set = -5804.3113167927

                    Orbital Energies (a.u.)
 --------------------------------------------------------------

 Alpha MOs
 -- Occupied --
-19.196 -19.185 -19.144 -19.138 -10.321 -10.318 -10.245 -10.244
-10.243 -10.242 -10.241 -10.241 -10.240 -10.238 -10.235 -10.235
-10.233 -10.233 -10.232 -10.231 -10.231 -10.230 -10.230 -10.229
-10.229 -10.228 -10.225 -10.225 -10.225 -10.223 -10.222 -10.222
-10.222 -10.222 -10.222 -10.222 -10.222 -10.222 -10.222 -10.221
-10.221 -10.221 -10.221 -10.221 -10.221 -10.220 -10.220 -10.220
-10.220 -10.219 -10.219 -10.219 -10.219 -10.218 -10.218 -10.218
-10.218 -10.218 -10.217 -10.217 -10.217 -10.217 -10.217 -10.217
-10.217 -10.217 -10.216 -10.216 -10.216 -10.216 -10.216 -10.216
-10.216 -10.216 -10.216 -10.216 -10.216 -10.216 -10.215 -10.215
-10.215 -10.215 -10.215 -10.215 -10.215 -10.215 -10.215 -10.215
-10.214 -10.214 -10.214 -10.214 -10.214 -10.214 -10.214 -10.214
-10.214 -10.214 -10.213 -10.213 -10.213 -10.213 -10.213 -10.213
-10.213 -10.213 -10.213 -10.213 -10.212 -10.212 -10.212 -10.212
-10.212 -10.212 -10.212 -10.212 -10.211 -10.211 -10.211 -10.211
-10.210 -10.210 -10.210 -10.210 -10.210 -10.210 -10.209 -10.209
-10.209 -10.208 -10.208 -10.207 -10.207 -10.204 -10.204 -10.202
-10.201 -10.200 -10.199 -10.199 -10.199 -10.198 -10.197 -10.197
-10.195 -10.193 -10.188 -10.186  -1.098  -1.091  -1.016  -1.013
 -0.985  -0.981  -0.966  -0.963  -0.962  -0.961  -0.960  -0.958
 -0.935  -0.934  -0.927  -0.925  -0.925  -0.923  -0.922  -0.920
 -0.919  -0.915  -0.899  -0.893  -0.888  -0.886  -0.885  -0.883
 -0.874  -0.870  -0.853  -0.853  -0.843  -0.842  -0.841  -0.839
 -0.838  -0.836  -0.825  -0.824  -0.811  -0.804  -0.798  -0.797
 -0.796  -0.794  -0.793  -0.792  -0.790  -0.790  -0.787  -0.784
 -0.773  -0.771  -0.770  -0.769  -0.768  -0.766  -0.765  -0.764
 -0.750  -0.746  -0.746  -0.745  -0.737  -0.732  -0.717  -0.715
 -0.715  -0.714  -0.712  -0.712  -0.711  -0.711  -0.710  -0.710
 -0.709  -0.706  -0.705  -0.704  -0.703  -0.702  -0.675  -0.672
 -0.660  -0.659  -0.659  -0.657  -0.654  -0.648  -0.632  -0.629
 -0.629  -0.627  -0.627  -0.626  -0.624  -0.621  -0.620  -0.618
 -0.616  -0.616  -0.615  -0.614  -0.612  -0.611  -0.610  -0.609
 -0.606  -0.605  -0.604  -0.601  -0.571  -0.569  -0.566  -0.562
 -0.561  -0.561  -0.560  -0.557  -0.556  -0.555  -0.555  -0.553
 -0.540  -0.537  -0.535  -0.533  -0.529  -0.528  -0.528  -0.523
 -0.522  -0.521  -0.520  -0.519  -0.518  -0.515  -0.514  -0.513
 -0.509  -0.506  -0.502  -0.500  -0.494  -0.492  -0.488  -0.487
 -0.486  -0.485  -0.483  -0.482  -0.482  -0.478  -0.477  -0.476
 -0.475  -0.474  -0.471  -0.470  -0.469  -0.468  -0.467  -0.466
 -0.465  -0.464  -0.463  -0.463  -0.461  -0.460  -0.459  -0.458
 -0.457  -0.457  -0.455  -0.454  -0.450  -0.445  -0.444  -0.443
 -0.442  -0.441  -0.440  -0.439  -0.438  -0.437  -0.435  -0.433
 -0.432  -0.429  -0.428  -0.427  -0.426  -0.425  -0.424  -0.424
 -0.423  -0.422  -0.422  -0.420  -0.419  -0.419  -0.418  -0.418
 -0.417  -0.417  -0.416  -0.416  -0.416  -0.416  -0.414  -0.414
 -0.413  -0.411  -0.410  -0.408  -0.403  -0.401  -0.398  -0.397
 -0.395  -0.394  -0.393  -0.393  -0.392  -0.391  -0.390  -0.387
 -0.385  -0.378  -0.376  -0.372  -0.371  -0.369  -0.368  -0.366
 -0.366  -0.365  -0.364  -0.363  -0.362  -0.362  -0.359  -0.358
 -0.357  -0.356  -0.356  -0.355  -0.354  -0.353  -0.352  -0.350
 -0.350  -0.349  -0.348  -0.348  -0.346  -0.345  -0.344  -0.343
 -0.342  -0.342  -0.341  -0.340  -0.339  -0.338  -0.337  -0.336
 -0.335  -0.334  -0.332  -0.331  -0.329  -0.328  -0.328  -0.325
 -0.308  -0.302  -0.302  -0.295  -0.294  -0.288  -0.275  -0.273
 -0.273  -0.271  -0.269  -0.269  -0.268  -0.267  -0.266  -0.264
 -0.263  -0.262  -0.261  -0.260  -0.259  -0.255  -0.253  -0.251
 -0.250  -0.249  -0.245  -0.244  -0.229  -0.223  -0.215  -0.214
 -0.212  -0.208  -0.206  -0.206  -0.199  -0.199

          Ground-State Mulliken Net Atomic Charges

     Atom                 Charge (a.u.)
  ----------------------------------------
      1 O                    -0.466264
      2 C                    -0.081203
      3 H                     0.119263
      4 H                     0.117930
      5 H                     0.114224
      6 O                    -0.447713
      7 C                     0.575878
      8 C                    -0.253736
      9 H                     0.134116
     10 H                     0.141981
     11 C                    -0.194096
     12 H                     0.118580
     13 H                     0.124972
     14 C                    -0.164128
     15 H                     0.118360
     16 H                     0.111172
     17 C                    -0.019143
     18 C                     0.102981
     19 C                    -0.115201
     20 H                     0.081969
     21 C                    -0.092937
     22 H                     0.087695
     23 C                    -0.088182
     24 H                     0.095587
     25 C                    -0.083821
     26 H                     0.086671
     27 C                    -0.090439
     28 H                     0.083641
     29 C                     0.008879
     30 C                    -0.006426
     31 C                    -0.010064
     32 C                    -0.018288
     33 C                    -0.000753
     34 C                     0.003059
     35 C                     0.015615
     36 C                     0.019866
     37 C                    -0.009302
     38 C                    -0.005166
     39 C                    -0.087406
     40 C                     0.033739
     41 C                    -0.018237
     42 C                    -0.011905
     43 C                     0.026769
     44 C                    -0.000065
     45 C                    -0.057870
     46 C                     0.007540
     47 C                    -0.026154
     48 C                     0.018878
     49 C                     0.039964
     50 C                    -0.025576
     51 C                     0.013490
     52 C                     0.017867
     53 C                     0.011751
     54 C                     0.011147
     55 C                     0.005100
     56 C                    -0.013970
     57 C                    -0.008697
     58 C                     0.024396
     59 C                    -0.007190
     60 C                     0.002760
     61 C                    -0.000605
     62 C                    -0.025976
     63 C                    -0.021342
     64 C                    -0.022937
     65 C                    -0.024672
     66 C                     0.010467
     67 C                    -0.006333
     68 C                     0.025999
     69 C                    -0.002011
     70 C                     0.004783
     71 C                    -0.027801
     72 C                    -0.005963
     73 C                     0.020566
     74 C                    -0.001776
     75 C                     0.026055
     76 C                    -0.022374
     77 C                     0.000751
     78 C                     0.009168
     79 C                     0.021488
     80 C                     0.010847
     81 C                    -0.011475
     82 C                    -0.010056
     83 C                    -0.013260
     84 C                    -0.000522
     85 C                    -0.003245
     86 C                     0.017351
     87 C                    -0.000514
     88 C                    -0.004883
     89 O                    -0.447189
     90 C                    -0.085621
     91 H                     0.118795
     92 H                     0.131526
     93 H                     0.120508
     94 O                    -0.467549
     95 C                     0.584433
     96 C                    -0.240951
     97 H                     0.125029
     98 H                     0.122970
     99 C                    -0.183760
    100 H                     0.118609
    101 H                     0.115884
    102 C                    -0.191561
    103 H                     0.116388
    104 H                     0.105180
    105 C                     0.033584
    106 C                     0.068702
    107 C                    -0.116420
    108 H                     0.092511
    109 C                    -0.070937
    110 H                     0.089774
    111 C                    -0.080754
    112 H                     0.088000
    113 C                    -0.091335
    114 H                     0.090104
    115 C                    -0.104279
    116 H                     0.091531
    117 C                    -0.040949
    118 C                     0.020823
    119 C                     0.006787
    120 C                    -0.020002
    121 C                    -0.024232
    122 C                    -0.031513
    123 C                    -0.013904
    124 C                     0.003477
    125 C                     0.000264
    126 C                    -0.003447
    127 C                    -0.084888
    128 C                    -0.012515
    129 C                     0.023205
    130 C                    -0.006467
    131 C                    -0.008411
    132 C                     0.010106
    133 C                    -0.086526
    134 C                     0.023978
    135 C                    -0.016311
    136 C                     0.007876
    137 C                    -0.012171
    138 C                    -0.015637
    139 C                     0.009020
    140 C                     0.018157
    141 C                     0.041502
    142 C                    -0.008410
    143 C                     0.005525
    144 C                    -0.011893
    145 C                     0.005250
    146 C                    -0.010903
    147 C                     0.000142
    148 C                     0.010968
    149 C                     0.002869
    150 C                    -0.022601
    151 C                     0.008580
    152 C                    -0.010065
    153 C                     0.003821
    154 C                     0.004008
    155 C                    -0.006795
    156 C                    -0.008784
    157 C                    -0.006179
    158 C                     0.025392
    159 C                    -0.000837
    160 C                    -0.025652
    161 C                     0.007061
    162 C                    -0.008820
    163 C                     0.010132
    164 C                     0.026269
    165 C                    -0.000864
    166 C                     0.022213
    167 C                    -0.026187
    168 C                     0.015482
    169 C                     0.020442
    170 C                     0.030726
    171 C                    -0.016001
    172 C                     0.015928
    173 C                     0.013381
    174 C                    -0.007784
    175 C                     0.014995
    176 C                    -0.006442
  ----------------------------------------
  Sum of atomic charges =     0.000000

                    Cartesian Multipole Moments
 -----------------------------------------------------------------
    Charge (ESU x 10^10)
                 0.0000
    Dipole Moment (Debye)
         X       0.8433      Y       0.7302      Z      -0.2383
       Tot       1.1406
    Quadrupole Moments (Debye-Ang)
        XX    -779.3006     XY      13.8124     YY    -811.7057
        XZ     -19.7468     YZ      -2.7885     ZZ    -823.6951

 Total job time:  852.80s(wall), 7290.32s(cpu)
        *  Thank you very much for using Q-Chem.  Have a nice day.  *
