 Q-Chem 4.4, Q-Chem, Inc., Pleasanton, CA (2016)
 Q-Chem 4.4.2 for Intel X86 Linux

User input:
--------------------------------------------------------------
$comment
SP
$end

$rem
MEM_STATIC 5000
MEM_TOTAL 20000
JOBTYPE SP
EXCHANGE B3LYP
BASIS 6-31g(d,p)
$end

$molecule
0 1
C          25.688000     -8.848000     -1.914000
C          24.764000     -7.964000     -2.458000
N          25.768000     -9.166000     -0.626000
C          23.845000     -7.397000     -1.561000
C          24.951000     -8.650000      0.256000
C          23.927000     -7.726000     -0.199000
C          23.044000     -7.095000      0.839000
C          23.502000     -6.633000      2.139000
C          21.687000     -6.895000      0.619000
N          22.709000     -6.050000      3.064000
N          21.068000     -7.270000     -0.551000
C          20.893000     -6.421000      1.612000
C          21.416000     -6.036000      2.886000
S          19.444000     -7.147000     -0.167000
N          19.593000     -6.460000      1.311000
C          20.555000     -5.740000      4.052000
S          18.884000     -6.197000      4.290000
C          21.045000     -5.064000      5.179000
C          18.920000     -5.726000      5.987000
S          22.550000     -4.311000      5.567000
C          20.089000     -5.111000      6.285000
C          17.848000     -5.826000      6.931000
C          22.005000     -4.205000      7.249000
C          20.688000     -4.637000      7.470000
N          16.650000     -5.830000      6.317000
S          17.872000     -5.967000      8.704000
C          15.682000     -5.878000      7.306000
C          16.178000     -5.935000      8.585000
C          26.806000     -9.373000     -2.781000
H          24.756000     -7.606000     -3.483000
H          23.211000     -6.627000     -1.991000
H          25.018000     -9.003000      1.284000
H          24.584000     -6.590000      2.247000
H          22.756000     -3.970000      7.992000
H          20.214000     -4.596000      8.444000
H          14.654000     -5.950000      6.974000
H          15.460000     -5.933000      9.394000
H          26.683000    -10.433000     -3.036000
C          28.291000     -9.076000     -2.174000
H          26.741000     -8.919000     -3.777000
H          28.516000     -9.765000     -1.350000
H          28.370000     -8.067000     -1.751000
C          29.359000     -9.328000     -3.325000
H          29.505000    -10.414000     -3.385000
C          30.709000     -8.628000     -2.979000
H          29.033000     -8.898000     -4.281000
H          31.081000     -8.819000     -1.965000
H          30.584000     -7.539000     -3.024000
C          31.815000     -9.004000     -3.975000
H          31.998000    -10.071000     -3.793000
C          33.099000     -8.237000     -3.711000
H          31.521000     -9.068000     -5.030000
H          33.315000     -8.128000     -2.641000
H          33.031000     -7.252000     -4.190000
H          33.845000     -8.874000     -4.204000
C          20.089000     -7.251000     12.709000
C          20.512000     -6.104000     11.998000
N          20.726000     -8.384000     12.526000
C          21.575000     -6.249000     11.065000
C          21.721000     -8.528000     11.703000
C          22.325000     -7.449000     10.935000
C          23.611000     -7.535000     10.079000
C          23.864000     -6.695000      8.997000
C          24.621000     -8.508000     10.267000
N          24.950000     -6.705000      8.187000
N          24.594000     -9.566000     11.165000
C          25.790000     -8.479000      9.510000
C          25.931000     -7.579000      8.391000
S          26.039000    -10.310000     10.896000
N          26.683000     -9.417000      9.776000
C          27.107000     -7.491000      7.592000
S          28.723000     -8.265000      7.900000
C          27.255000     -6.456000      6.634000
C          29.492000     -7.069000      6.819000
S          26.071000     -5.409000      5.867000
C          28.547000     -6.321000      6.112000
C          30.916000     -7.192000      6.455000
C          27.436000     -4.590000      5.036000
C          28.665000     -5.246000      5.246000
N          31.570000     -7.820000      7.363000
S          31.706000     -6.743000      4.912000
C          32.870000     -7.935000      6.943000
C          33.178000     -7.432000      5.700000
C          18.965000     -7.062000     13.699000
H          20.002000     -5.145000     11.980000
H          21.863000     -5.385000     10.474000
H          22.148000     -9.530000     11.679000
H          23.096000     -5.953000      8.783000
H          27.286000     -3.711000      4.423000
H          29.589000     -4.987000      4.744000
H          33.475000     -8.441000      7.684000
H          34.165000     -7.333000      5.267000
H          18.095000     -6.566000     13.251000
C          19.417000     -6.195000     14.893000
H          18.563000     -8.028000     14.029000
H          19.513000     -5.150000     14.574000
H          20.336000     -6.660000     15.271000
C          18.381000     -6.032000     15.977000
H          17.570000     -5.343000     15.711000
C          19.008000     -5.545000     17.288000
H          18.022000     -7.049000     16.181000
H          19.881000     -6.165000     17.526000
H          18.279000     -5.785000     18.071000
C          19.420000     -4.067000     17.236000
H          20.210000     -3.918000     16.490000
C          19.828000     -3.503000     18.650000
H          18.589000     -3.412000     16.946000
H          18.908000     -3.402000     19.238000
H          20.384000     -2.560000     18.587000
H          20.448000     -4.230000     19.190000
$end

--------------------------------------------------------------

             Standard Nuclear Orientation (Angstroms)
    I     Atom           X                Y                Z
 ----------------------------------------------------------------
    1      C       7.8260997468     2.6884235713    -1.2504635152
    2      C       7.6748481497     3.8459942631    -0.4965928049
    3      N       6.8334556104     1.8814245699    -1.6108497391
    4      C       6.3628726151     4.1748334230    -0.1207683731
    5      C       5.5950657578     2.1285818411    -1.2688367917
    6      C       5.3109075155     3.3243848161    -0.4950885520
    7      C       3.8927239268     3.5526587500    -0.0569786118
    8      C       2.9970008735     2.5074884193     0.4104689167
    9      C       3.3228029254     4.8195561855    -0.0601314104
   10      N       1.7273655211     2.7181616960     0.8203540740
   11      N       4.0128520384     5.9359495144    -0.4726652354
   12      C       2.0093154541     4.9822818723     0.2389204473
   13      C       1.1796871236     3.8894200426     0.6416608777
   14      S       2.8049913413     7.0844524767    -0.6209031582
   15      N       1.5670458770     6.2213303479     0.0124728898
   16      C      -0.2922200925     3.9940200249     0.7467369973
   17      S      -1.3320385217     5.2008255585     0.0255351958
   18      C      -1.0527575145     3.0397706905     1.4382541971
   19      C      -2.7868148130     4.2884694634     0.4181906402
   20      S      -0.6609413302     1.6578769703     2.3971221879
   21      C      -2.4833657879     3.2201046311     1.1928552607
   22      C      -4.1380155699     4.6483836484     0.1099078255
   23      C      -2.3702965879     1.1971828404     2.3401088441
   24      C      -3.2088707434     2.1224413369     1.6992936598
   25      N      -4.2686240859     5.9784199021    -0.0518357351
   26      S      -5.5872593774     3.6400419984    -0.1067151269
   27      C      -5.6079221888     6.2328494194    -0.2947250355
   28      C      -6.4017714213     5.1132617904    -0.3325791895
   29      C       9.2147527038     2.1825225498    -1.5553325383
   30      H       8.4817724221     4.4530655175    -0.0976056989
   31      H       6.2862996751     5.0173996749     0.5603885075
   32      H       4.8167118235     1.4714700928    -1.6538709501
   33      H       3.4827384616     1.5555926151     0.6158718704
   34      H      -2.6158826339     0.1911500681     2.6545298281
   35      H      -4.2812822220     1.9848636404     1.6215826694
   36      H      -5.8741628499     7.2599418788    -0.5101060706
   37      H      -7.4627473431     5.2645065794    -0.4790855281
   38      H       9.4920659563     2.3133432110    -2.6087732413
   39      C       9.4692571647     0.6491114532    -1.0595897739
   40      H       9.9550350104     2.8309980614    -1.0717845911
   41      H       8.9873924882    -0.0622187022    -1.7423326563
   42      H       9.0344039694     0.4571636782    -0.0709999954
   43      C      11.0344092853     0.3692638514    -1.0898082978
   44      H      11.2966887627     0.1672410750    -2.1360913730
   45      C      11.3845498103    -0.8666129215    -0.2053727633
   46      H      11.6040830325     1.2096534382    -0.6722808566
   47      H      10.7617400546    -1.7519213823    -0.3825673949
   48      H      11.2207988975    -0.6240254808     0.8519389089
   49      C      12.8560468179    -1.2760934328    -0.3591591981
   50      H      12.9339183546    -1.6396957345    -1.3920345003
   51      C      13.2309096455    -2.4051898480     0.5849065548
   52      H      13.5863799798    -0.4596898690    -0.4196215300
   53      H      12.4406207234    -3.1604395827     0.6769840098
   54      H      13.4727443806    -1.9824380453     1.5683123074
   55      H      14.1214646951    -2.8197945592     0.0946529091
   56      C      -7.5803217307    -0.5321548804    -1.2131714797
   57      C      -6.9011263801    -0.3720985636     0.0169239033
   58      N      -6.9458898892    -1.0786552511    -2.2240031093
   59      C      -5.5337552584    -0.7562920764     0.0815347386
   60      C      -5.7069568003    -1.4667713992    -2.1739965420
   61      C      -4.8746018965    -1.4326155091    -0.9803049196
   62      C      -3.4589768121    -2.0377965227    -0.8263907832
   63      C      -2.5236827481    -1.5652592863     0.0913600403
   64      C      -2.9534994593    -3.0805076548    -1.6384370508
   65      N      -1.2632288563    -2.0219068598     0.2871277094
   66      N      -3.5870071665    -3.6622476713    -2.7278146429
   67      C      -1.6974964478    -3.6309855186    -1.3937299672
   68      C      -0.7988758357    -3.0389751161    -0.4324565000
   69      S      -2.4947473415    -4.7906358564    -3.2254395803
   70      N      -1.3242615782    -4.6158532818    -2.1929672418
   71      C       0.4886658003    -3.5660031114    -0.1265169183
   72      S       1.1949820619    -5.1561787433    -0.6536362581
   73      C       1.2400657111    -3.0540488929     0.9616898876
   74      C       2.3627339714    -5.0746672095     0.6954557876
   75      S       1.1151687988    -1.5413490506     1.8462767676
   76      C       2.3529756077    -3.8244393741     1.3193252723
   77      C       3.4464825960    -6.0683311352     0.8117395840
   78      C       2.4408701226    -2.1308237520     2.9043800596
   79      C       3.0065634542    -3.3339380866     2.4381355395
   80      N       3.1174297023    -7.1750798795     0.2519222833
   81      S       5.1030653416    -5.8288819203     1.4480945796
   82      C       4.1803206261    -8.0343421886     0.3594219037
   83      C       5.3210224413    -7.5543435283     0.9605231056
   84      C      -9.0334419846    -0.1240718358    -1.2464394274
   85      H      -7.2781809573     0.1612322440     0.8849637039
   86      H      -4.9923409985    -0.5798912661     1.0059125582
   87      H      -5.3341376598    -1.9127322248    -3.0954268598
   88      H      -2.8490237297    -0.7331469204     0.7141973033
   89      H       2.7635387346    -1.5776175374     3.7765943974
   90      H       3.8898495937    -3.7971912747     2.8601107514
   91      H       3.9492745614    -8.9959577453    -0.0799586113
   92      H       6.2002803840    -8.1245064703     1.2312234744
   93      H      -9.1879972098     0.8953066006    -0.8714723811
   94      C      -9.8938296623    -1.0635723649    -0.3754050999
   95      H      -9.4057258208    -0.0733243899    -2.2772107124
   96      H      -9.7048144324    -0.8583655064     0.6853330337
   97      H      -9.6583624808    -2.0818844521    -0.7089702352
   98      C     -11.3749204020    -0.7827990552    -0.4249789773
   99      H     -11.6734356396     0.1079614113     0.1412651788
  100      C     -12.1921302608    -1.9715072875     0.0928624899
  101      H     -11.6126827246    -0.7038597487    -1.4936340497
  102      H     -11.8454496148    -2.8910581407    -0.3943866849
  103      H     -13.2075044551    -1.8222501642    -0.2929710968
  104      C     -12.1095337527    -2.1295019172     1.6177059290
  105      H     -11.0810597798    -2.3591994762     1.9215106663
  106      C     -13.1398076395    -3.1851205476     2.1728284609
  107      H     -12.3945753916    -1.2125461303     2.1483935480
  108      H     -14.1370605289    -2.7346469694     2.1027911150
  109      H     -12.9047767125    -3.5125881683     3.1925732431
  110      H     -13.1678428948    -4.0719755922     1.5268941342
 ----------------------------------------------------------------

   10   -5663.5067121745      3.29E-06 Convergence criterion met
 Total energy in the final basis set = -5663.5067121745

                    Orbital Energies (a.u.)
 --------------------------------------------------------------

 Alpha MOs
 -- Occupied --
-88.985 -88.982 -88.937 -88.936 -88.926 -88.921 -88.914 -88.913
-14.383 -14.382 -14.379 -14.379 -14.346 -14.344 -14.343 -14.341
-14.322 -14.320 -10.272 -10.266 -10.260 -10.256 -10.252 -10.248
-10.246 -10.244 -10.243 -10.241 -10.238 -10.238 -10.237 -10.235
-10.232 -10.232 -10.231 -10.231 -10.231 -10.229 -10.229 -10.228
-10.224 -10.224 -10.223 -10.223 -10.222 -10.222 -10.220 -10.216
-10.211 -10.208 -10.208 -10.206 -10.206 -10.204 -10.198 -10.196
-10.185 -10.184 -10.183 -10.182 -10.180 -10.180 -10.177 -10.176
-10.174 -10.174 -10.173 -10.172  -8.040  -8.039  -7.997  -7.995
 -7.983  -7.980  -7.973  -7.972  -6.005  -6.004  -6.000  -5.998
 -5.998  -5.997  -5.961  -5.959  -5.958  -5.956  -5.954  -5.952
 -5.948  -5.944  -5.944  -5.940  -5.940  -5.937  -5.937  -5.936
 -5.933  -5.933  -5.929  -5.929  -1.046  -1.031  -0.983  -0.964
 -0.962  -0.957  -0.948  -0.947  -0.908  -0.907  -0.902  -0.895
 -0.844  -0.837  -0.830  -0.825  -0.815  -0.814  -0.805  -0.803
 -0.803  -0.799  -0.796  -0.793  -0.785  -0.784  -0.764  -0.762
 -0.748  -0.744  -0.743  -0.740  -0.720  -0.718  -0.710  -0.708
 -0.696  -0.689  -0.671  -0.667  -0.651  -0.651  -0.643  -0.643
 -0.633  -0.631  -0.625  -0.624  -0.612  -0.606  -0.604  -0.597
 -0.595  -0.593  -0.589  -0.579  -0.577  -0.574  -0.574  -0.562
 -0.541  -0.540  -0.539  -0.538  -0.524  -0.524  -0.520  -0.515
 -0.504  -0.503  -0.498  -0.495  -0.486  -0.484  -0.475  -0.475
 -0.473  -0.470  -0.468  -0.468  -0.465  -0.464  -0.457  -0.447
 -0.443  -0.439  -0.436  -0.435  -0.432  -0.431  -0.430  -0.428
 -0.425  -0.423  -0.422  -0.419  -0.418  -0.415  -0.414  -0.412
 -0.411  -0.409  -0.406  -0.404  -0.402  -0.397  -0.395  -0.393
 -0.391  -0.390  -0.389  -0.388  -0.386  -0.385  -0.384  -0.381
 -0.379  -0.378  -0.371  -0.370  -0.363  -0.361  -0.358  -0.357
 -0.356  -0.352  -0.351  -0.349  -0.348  -0.346  -0.345  -0.342
 -0.340  -0.338  -0.338  -0.331  -0.330  -0.329  -0.325  -0.325
 -0.314  -0.311  -0.309  -0.308  -0.303  -0.302  -0.301  -0.298
 -0.298  -0.295  -0.292  -0.290  -0.290  -0.289  -0.286  -0.283
 -0.275  -0.271  -0.263  -0.261  -0.254  -0.250  -0.246  -0.245
 -0.238  -0.237  -0.231  -0.225  -0.194  -0.191

          Ground-State Mulliken Net Atomic Charges

     Atom                 Charge (a.u.)
  ----------------------------------------
      1 C                     0.280109
      2 C                    -0.123089
      3 N                    -0.469126
      4 C                    -0.038814
      5 C                     0.082821
      6 C                    -0.000333
      7 C                    -0.005884
      8 C                     0.054080
      9 C                     0.244252
     10 N                    -0.521049
     11 N                    -0.570020
     12 C                     0.212754
     13 C                     0.317607
     14 S                     0.596338
     15 N                    -0.562787
     16 C                    -0.208736
     17 S                     0.361243
     18 C                    -0.118311
     19 C                    -0.215493
     20 S                     0.308679
     21 C                     0.132591
     22 C                     0.029433
     23 C                    -0.319886
     24 C                    -0.078051
     25 N                    -0.418420
     26 S                     0.299303
     27 C                     0.114677
     28 C                    -0.304542
     29 C                    -0.232465
     30 H                     0.096387
     31 H                     0.108212
     32 H                     0.113544
     33 H                     0.117105
     34 H                     0.135050
     35 H                     0.109410
     36 H                     0.114399
     37 H                     0.127505
     38 H                     0.113150
     39 C                    -0.175753
     40 H                     0.088778
     41 H                     0.116211
     42 H                     0.095080
     43 C                    -0.179745
     44 H                     0.096268
     45 C                    -0.174542
     46 H                     0.093125
     47 H                     0.090480
     48 H                     0.086674
     49 C                    -0.181522
     50 H                     0.088501
     51 C                    -0.312005
     52 H                     0.089796
     53 H                     0.102468
     54 H                     0.104627
     55 H                     0.100190
     56 C                     0.279380
     57 C                    -0.111904
     58 N                    -0.468649
     59 C                    -0.100962
     60 C                     0.074827
     61 C                     0.036006
     62 C                     0.055135
     63 C                     0.063893
     64 C                     0.217917
     65 N                    -0.560229
     66 N                    -0.560470
     67 C                     0.165996
     68 C                     0.351992
     69 S                     0.598922
     70 N                    -0.527951
     71 C                    -0.236272
     72 S                     0.366209
     73 C                    -0.133174
     74 C                    -0.231337
     75 S                     0.332712
     76 C                     0.142934
     77 C                     0.079343
     78 C                    -0.325667
     79 C                    -0.073860
     80 N                    -0.411306
     81 S                     0.262683
     82 C                     0.129668
     83 C                    -0.315848
     84 C                    -0.230661
     85 H                     0.086490
     86 H                     0.084083
     87 H                     0.121017
     88 H                     0.093464
     89 H                     0.129438
     90 H                     0.106082
     91 H                     0.115282
     92 H                     0.137010
     93 H                     0.097631
     94 C                    -0.164937
     95 H                     0.109482
     96 H                     0.097557
     97 H                     0.107040
     98 C                    -0.183388
     99 H                     0.090492
    100 C                    -0.170726
    101 H                     0.087041
    102 H                     0.093722
    103 H                     0.087524
    104 C                    -0.180286
    105 H                     0.099702
    106 C                    -0.322462
    107 H                     0.091354
    108 H                     0.105155
    109 H                     0.100817
    110 H                     0.101813
  ----------------------------------------
  Sum of atomic charges =     0.000000

                    Cartesian Multipole Moments
 -----------------------------------------------------------------
    Charge (ESU x 10^10)
                 0.0000
    Dipole Moment (Debye)
         X       1.4917      Y      -0.3526      Z       2.8569
       Tot       3.2421
    Quadrupole Moments (Debye-Ang)
        XX    -391.9254     XY     -17.9820     YY    -428.0930
        XZ       1.7336     YZ      -5.1997     ZZ    -447.9885

 Total job time:  93.44s(wall), 1013.16s(cpu)
        *  Thank you very much for using Q-Chem.  Have a nice day.  *
