 Q-Chem 4.4, Q-Chem, Inc., Pleasanton, CA (2016)
 Q-Chem 4.4.2 for Intel X86 Linux

User input:
--------------------------------------------------------------
$comment
SP
$end

$rem
MEM_STATIC 5000
MEM_TOTAL 20000
JOBTYPE SP
EXCHANGE B3LYP
BASIS 6-31g(d,p)
$end

$molecule
0 1
C         -15.243000     -9.443000     11.179000
C         -15.564000     -8.272000     11.811000
N         -15.448000     -9.576000      9.835000
C         -16.294000     -7.322000     11.093000
C         -15.940000     -8.559000      9.091000
C         -16.457000     -7.444000      9.719000
C         -17.032000     -6.274000      8.979000
C         -18.260000     -5.696000      9.435000
C         -16.522000     -5.725000      7.775000
N         -18.946000     -4.763000      8.753000
N         -15.398000     -6.205000      7.176000
C         -17.244000     -4.753000      7.087000
C         -18.474000     -4.383000      7.590000
S         -15.350000     -5.327000      5.752000
N         -16.726000     -4.415000      5.894000
C         -19.191000     -3.238000      6.972000
S         -18.489000     -1.656000      6.487000
C         -20.562000     -3.186000      6.751000
C         -20.111000     -0.936000      6.095000
S         -21.725000     -4.501000      6.902000
C         -21.043000     -1.984000      6.225000
C         -20.277000      0.308000      5.485000
C         -22.947000     -3.313000      6.271000
C         -22.406000     -2.129000      5.929000
N         -21.466000      0.792000      5.232000
S         -18.941000      1.370000      5.068000
C         -21.398000      1.978000      4.521000
C         -20.130000      2.474000      4.430000
C         -14.845000    -10.804000     11.851000
H         -15.371000     -8.293000     12.880000
H         -16.679000     -6.467000     11.640000
H         -16.011000     -8.738000      8.019000
H         -18.777000     -6.184000     10.260000
H         -23.992000     -3.593000      6.227000
H         -22.952000     -1.274000      5.546000
H         -22.311000      2.464000      4.202000
H         -19.795000      3.365000      3.916000
H         -15.298000    -10.930000     12.842000
C         -13.346000    -10.962000     12.081000
H         -15.246000    -11.595000     11.205000
H         -13.234000    -11.961000     12.520000
H         -13.079000    -10.156000     12.776000
C         -12.559000    -10.985000     10.724000
H         -12.964000    -11.773000     10.078000
C         -11.058000    -11.181000     10.849000
H         -12.747000    -10.051000     10.180000
H         -10.857000    -12.226000     11.117000
H         -10.567000    -10.483000     11.539000
C         -10.411000    -10.896000      9.424000
H         -10.905000    -11.379000      8.572000
C          -8.922000    -11.338000      9.312000
H         -10.415000     -9.816000      9.233000
H          -8.720000    -11.659000      8.283000
H          -8.595000    -12.175000      9.942000
H          -8.269000    -10.506000      9.601000
C         -16.407000     -9.685000      3.316000
C         -16.706000     -8.416000      3.815000
N         -16.787000    -10.785000      3.960000
C         -17.416000     -8.301000      4.957000
C         -17.547000    -10.661000      5.045000
C         -17.792000     -9.450000      5.648000
C         -18.501000     -9.380000      7.000000
C         -19.305000     -8.356000      7.299000
C         -18.276000    -10.369000      8.002000
N         -19.969000     -8.215000      8.504000
N         -17.362000    -11.445000      8.000000
C         -18.974000    -10.218000      9.217000
C         -19.814000     -9.109000      9.498000
S         -17.408000    -12.086000      9.517000
N         -18.639000    -11.142000     10.102000
C         -20.612000     -8.920000     10.755000
S         -20.720000    -10.147000     12.097000
C         -21.476000     -7.904000     11.005000
C         -22.045000     -9.245000     12.885000
S         -21.844000     -6.444000     10.128000
C         -22.282000     -8.100000     12.149000
C         -22.656000     -9.689000     14.112000
C         -23.005000     -5.966000     11.424000
C         -23.077000     -6.906000     12.418000
N         -22.150000    -10.783000     14.608000
S         -24.168000     -9.116000     14.892000
C         -22.926000    -11.261000     15.706000
C         -23.959000    -10.394000     16.062000
C         -15.478000     -9.836000      2.153000
H         -16.474000     -7.551000      3.201000
H         -17.561000     -7.316000      5.390000
H         -17.850000    -11.614000      5.477000
H         -19.484000     -7.585000      6.551000
H         -23.627000     -5.081000     11.379000
H         -23.810000     -6.862000     13.216000
H         -22.591000    -12.153000     16.219000
H         -24.635000    -10.462000     16.904000
H         -15.151000     -8.824000      1.887000
C         -16.002000    -10.550000      0.918000
H         -14.635000    -10.425000      2.535000
H         -16.649000    -11.327000      1.346000
H         -15.197000    -11.035000      0.353000
C         -16.849000     -9.681000     -0.005000
H         -17.750000     -9.380000      0.544000
C         -17.117000    -10.429000     -1.374000
H         -16.411000     -8.703000     -0.243000
H         -17.595000    -11.338000     -0.988000
H         -16.282000    -10.769000     -1.997000
C         -18.114000     -9.738000     -2.308000
H         -18.639000    -10.515000     -2.877000
C         -17.490000     -8.790000     -3.205000
H         -18.884000     -9.284000     -1.672000
H         -16.813000     -9.364000     -3.851000
H         -16.830000     -8.084000     -2.686000
H         -18.101000     -8.292000     -3.968000
$end

--------------------------------------------------------------

             Standard Nuclear Orientation (Angstroms)
    I     Atom           X                Y                Z
 ----------------------------------------------------------------
    1      C      -3.8010234726     2.1650894693    -2.5178593220
    2      C      -3.6157616665     0.9893566461    -3.1939039890
    3      N      -2.8083645227     2.6630912905    -1.7224522594
    4      C      -2.4906394508     0.2248210288    -2.8768719880
    5      C      -1.6165070800     2.0346190545    -1.6025044175
    6      C      -1.4663289347     0.7579356928    -2.1049226881
    7      C      -0.1883008837    -0.0197333496    -2.0100535073
    8      C      -0.2386542266    -1.4002116734    -1.6335589676
    9      C       1.1172761406     0.5128082234    -2.1616619061
   10      N       0.8485409540    -2.1393351972    -1.3544316564
   11      N       1.3382354945     1.8233655834    -2.4552489803
   12      C       2.2316967600    -0.2716822357    -1.8752122550
   13      C       2.0193400201    -1.5506872296    -1.4041922548
   14      S       3.0053409743     1.9344393084    -2.3583678847
   15      N       3.4025771778     0.3860580766    -1.9224745955
   16      C       3.1811522881    -2.4628446454    -1.2454500028
   17      S       4.5324418830    -2.7062002186    -2.4054273715
   18      C       3.3555760284    -3.3496492338    -0.1898269732
   19      C       5.2368801421    -4.0886059539    -1.4590293991
   20      S       2.4201609669    -3.4429297689     1.3004389106
   21      C       4.4835252227    -4.1705365881    -0.2717755355
   22      C       6.4650087049    -4.6812039963    -1.7552046736
   23      C       3.6056458094    -4.7243579991     1.8057669022
   24      C       4.6005443525    -4.9044575758     0.9173739534
   25      N       6.9276931219    -5.6831330592    -1.0523197021
   26      S       7.4667037343    -4.2081103792    -3.1188096376
   27      C       8.2078783931    -6.0374875970    -1.4425754296
   28      C       8.6084198225    -5.4143151005    -2.5885874727
   29      C      -5.1430385621     2.9611938460    -2.3519607952
   30      H      -4.4803298177     0.6886357346    -3.7791730255
   31      H      -2.4276464688    -0.7735826864    -3.2983941174
   32      H      -0.8660338986     2.5387794224    -0.9951508734
   33      H      -1.2041965357    -1.8151787160    -1.3479221304
   34      H       3.4478616548    -5.2640534029     2.7310744357
   35      H       5.4049410458    -5.6257066643     1.0099790939
   36      H       8.7314540044    -6.8220728998    -0.9117077606
   37      H       9.5610227179    -5.4925243126    -3.0952757820
   38      H      -6.0237452638     2.3079672605    -2.3805393459
   39      C      -5.3848599269     3.9952181113    -3.4461185746
   40      H      -5.1078064160     3.4194823380    -1.3557036226
   41      H      -6.3308735804     4.4776156387    -3.1711334971
   42      H      -5.4537023231     3.4149179907    -4.3748071631
   43      C      -4.2916174715     5.1201760545    -3.4208686255
   44      H      -4.2546912901     5.5739304632    -2.4233575260
   45      C      -4.4719408145     6.2218300260    -4.4508608677
   46      H      -3.3021603720     4.6673452749    -3.5607075805
   47      H      -5.3061962827     6.8643324297    -4.1418973177
   48      H      -4.5957904143     5.8621929965    -5.4802818135
   49      C      -3.1436096786     7.0969560886    -4.4630988324
   50      H      -2.7615278071     7.3955835989    -3.4791963710
   51      C      -3.2812703611     8.4341946797    -5.2491468506
   52      H      -2.3453014297     6.5379647755    -4.9662187503
   53      H      -2.6433838243     9.1928874426    -4.7799218964
   54      H      -4.2782702360     8.8901374650    -5.2992010813
   55      H      -2.9996705032     8.2752540398    -6.2968077657
   56      C       2.3276831266     4.7873538057     1.8183733944
   57      C       2.6786400783     3.6246939433     1.1300317188
   58      N       1.1448978084     4.9031999344     2.4156460001
   59      C       1.8145832625     2.5886520216     1.0911478491
   60      C       0.3306709659     3.8510796506     2.4323360453
   61      C       0.5649485997     2.7164860861     1.6920884965
   62      C      -0.4942814439     1.6199018628     1.5871134707
   63      C      -0.1418632845     0.3357027418     1.4821036676
   64      C      -1.8827654578     1.9393747700     1.5342059616
   65      N      -1.0397441209    -0.7101466839     1.3689180584
   66      N      -2.5015825607     3.2062170937     1.4610491446
   67      C      -2.7835233375     0.8599358580     1.4358348399
   68      C      -2.3667759802    -0.4917065538     1.3182489953
   69      S      -4.1015626600     2.9181016842     1.1939551670
   70      N      -4.0366862723     1.2661130093     1.3182390043
   71      C      -3.2809532073    -1.6802549419     1.2533897122
   72      S      -5.0923516728    -1.5930515819     1.4248195032
   73      C      -2.8955210966    -2.9807816644     1.2169983356
   74      C      -5.2175858464    -3.3701495396     1.5529298098
   75      S      -1.3293102215    -3.7287866948     1.0632941746
   76      C      -3.9493755402    -3.9009252500     1.4157811152
   77      C      -6.4813447878    -4.0440113590     1.7104404014
   78      C      -2.1110026571    -5.3549610032     1.0864254245
   79      C      -3.4711124817    -5.2664786644     1.2245997374
   80      N      -7.5201014035    -3.2568965465     1.7284116289
   81      S      -6.8013589640    -5.7533901704     2.1559603295
   82      C      -8.7048507306    -3.9709946379     2.0786928699
   83      C      -8.4975688747    -5.3449801905     2.1999856300
   84      C       3.1924548334     6.0048827908     1.7277970973
   85      H       3.6933173615     3.5323154558     0.7546103208
   86      H       2.0525343363     1.7273592895     0.4744687460
   87      H      -0.5924693344     4.0221984828     2.9847600955
   88      H       0.9139196390     0.0703188859     1.5117655560
   89      H      -1.5614502541    -6.2876687484     1.0729191886
   90      H      -4.1024533866    -6.1329020863     1.3881482497
   91      H      -9.6407450073    -3.4282462373     2.1028605430
   92      H      -9.2296930979    -6.1243935957     2.3645239703
   93      H       4.0183957425     5.7462700710     1.0549151791
   94      C       3.7427338474     6.5788049100     3.0229431925
   95      H       2.5551171346     6.7753763825     1.2765385430
   96      H       2.9194895497     6.4099542086     3.7295408622
   97      H       3.9255973128     7.6574052801     2.9477288688
   98      C       4.9808764304     5.8666717331     3.5562051193
   99      H       4.6985273436     4.8366984801     3.8076749808
  100      C       5.6245432675     6.6937109573     4.7424547240
  101      H       5.7667946533     5.6931780850     2.8097438002
  102      H       4.7602508351     6.7370640476     5.4169027212
  103      H       5.9412720931     7.7319063761     4.5915006799
  104      C       6.7614477791     5.9872231829     5.4855355783
  105      H       6.7402772496     6.3193093477     6.5307080941
  106      C       8.0621928020     6.2353997829     4.9031613337
  107      H       6.5040186939     4.9214305646     5.5219822630
  108      H       8.2536428393     7.3116981863     5.0034091761
  109      H       8.0843383679     6.0594137409     3.8206016416
  110      H       8.9562320638     5.8381800167     5.3995525662
 ----------------------------------------------------------------

   10   -5663.5234642650      8.54E-06 Convergence criterion met
 Total energy in the final basis set = -5663.5234642650

                    Orbital Energies (a.u.)
 --------------------------------------------------------------

 Alpha MOs
 -- Occupied --
-88.993 -88.984 -88.930 -88.921 -88.919 -88.918 -88.908 -88.906
-14.397 -14.393 -14.377 -14.373 -14.352 -14.348 -14.346 -14.335
-14.329 -14.324 -10.271 -10.266 -10.262 -10.260 -10.258 -10.255
-10.255 -10.247 -10.241 -10.241 -10.240 -10.239 -10.238 -10.238
-10.237 -10.234 -10.231 -10.231 -10.227 -10.227 -10.227 -10.226
-10.225 -10.224 -10.224 -10.224 -10.220 -10.218 -10.216 -10.215
-10.211 -10.210 -10.206 -10.206 -10.204 -10.201 -10.193 -10.189
-10.189 -10.183 -10.180 -10.178 -10.176 -10.175 -10.175 -10.175
-10.170 -10.168 -10.166 -10.164  -8.048  -8.038  -7.991  -7.980
 -7.980  -7.976  -7.966  -7.965  -6.013  -6.008  -6.006  -6.003
 -5.998  -5.996  -5.955  -5.951  -5.947  -5.944  -5.944  -5.941
 -5.941  -5.940  -5.937  -5.937  -5.936  -5.933  -5.931  -5.930
 -5.927  -5.926  -5.922  -5.921  -1.038  -1.018  -0.970  -0.966
 -0.964  -0.951  -0.948  -0.939  -0.911  -0.905  -0.903  -0.885
 -0.837  -0.836  -0.836  -0.834  -0.812  -0.809  -0.806  -0.804
 -0.803  -0.800  -0.797  -0.795  -0.790  -0.783  -0.772  -0.766
 -0.752  -0.750  -0.741  -0.740  -0.719  -0.717  -0.710  -0.709
 -0.696  -0.695  -0.677  -0.670  -0.655  -0.654  -0.650  -0.646
 -0.635  -0.632  -0.629  -0.626  -0.616  -0.612  -0.600  -0.596
 -0.592  -0.589  -0.578  -0.576  -0.574  -0.574  -0.567  -0.566
 -0.550  -0.544  -0.540  -0.536  -0.522  -0.522  -0.514  -0.512
 -0.510  -0.508  -0.500  -0.495  -0.493  -0.487  -0.478  -0.476
 -0.475  -0.472  -0.469  -0.464  -0.459  -0.453  -0.452  -0.449
 -0.448  -0.444  -0.444  -0.438  -0.437  -0.434  -0.431  -0.430
 -0.428  -0.426  -0.425  -0.424  -0.423  -0.419  -0.416  -0.415
 -0.411  -0.405  -0.404  -0.401  -0.398  -0.397  -0.396  -0.395
 -0.393  -0.392  -0.392  -0.391  -0.391  -0.386  -0.380  -0.380
 -0.379  -0.378  -0.375  -0.369  -0.364  -0.363  -0.355  -0.355
 -0.353  -0.348  -0.346  -0.344  -0.343  -0.338  -0.337  -0.337
 -0.335  -0.332  -0.331  -0.330  -0.328  -0.327  -0.323  -0.322
 -0.320  -0.316  -0.310  -0.306  -0.304  -0.299  -0.296  -0.294
 -0.293  -0.290  -0.287  -0.287  -0.286  -0.284  -0.283  -0.279
 -0.275  -0.273  -0.270  -0.266  -0.253  -0.253  -0.249  -0.246
 -0.243  -0.241  -0.236  -0.234  -0.197  -0.192

          Ground-State Mulliken Net Atomic Charges

     Atom                 Charge (a.u.)
  ----------------------------------------
      1 C                     0.272977
      2 C                    -0.112492
      3 N                    -0.494077
      4 C                    -0.073704
      5 C                     0.088118
      6 C                     0.033062
      7 C                     0.012663
      8 C                     0.069164
      9 C                     0.212893
     10 N                    -0.453095
     11 N                    -0.553204
     12 C                     0.228500
     13 C                     0.225040
     14 S                     0.602161
     15 N                    -0.550057
     16 C                    -0.190655
     17 S                     0.287726
     18 C                    -0.121785
     19 C                    -0.227358
     20 S                     0.257665
     21 C                     0.171893
     22 C                     0.080785
     23 C                    -0.311156
     24 C                    -0.045171
     25 N                    -0.450221
     26 S                     0.251680
     27 C                     0.123991
     28 C                    -0.308353
     29 C                    -0.222907
     30 H                     0.094216
     31 H                     0.109438
     32 H                     0.127287
     33 H                     0.126860
     34 H                     0.128026
     35 H                     0.125580
     36 H                     0.114433
     37 H                     0.129963
     38 H                     0.098788
     39 C                    -0.181846
     40 H                     0.111168
     41 H                     0.094566
     42 H                     0.092160
     43 C                    -0.164623
     44 H                     0.097391
     45 C                    -0.169625
     46 H                     0.106079
     47 H                     0.091235
     48 H                     0.091963
     49 C                    -0.186589
     50 H                     0.097896
     51 C                    -0.328342
     52 H                     0.098595
     53 H                     0.099322
     54 H                     0.099001
     55 H                     0.099920
     56 C                     0.280309
     57 C                    -0.128857
     58 N                    -0.477957
     59 C                    -0.057945
     60 C                     0.073885
     61 C                     0.036847
     62 C                     0.046295
     63 C                     0.034981
     64 C                     0.219732
     65 N                    -0.561085
     66 N                    -0.554173
     67 C                     0.215946
     68 C                     0.339435
     69 S                     0.629539
     70 N                    -0.583704
     71 C                    -0.237556
     72 S                     0.351754
     73 C                    -0.119631
     74 C                    -0.242655
     75 S                     0.324368
     76 C                     0.129871
     77 C                     0.088603
     78 C                    -0.311458
     79 C                    -0.071798
     80 N                    -0.432235
     81 S                     0.267035
     82 C                     0.107674
     83 C                    -0.306390
     84 C                    -0.224203
     85 H                     0.090226
     86 H                     0.086611
     87 H                     0.117857
     88 H                     0.120482
     89 H                     0.132025
     90 H                     0.105515
     91 H                     0.122178
     92 H                     0.140290
     93 H                     0.086953
     94 C                    -0.178959
     95 H                     0.120930
     96 H                     0.120560
     97 H                     0.093340
     98 C                    -0.181388
     99 H                     0.097212
    100 C                    -0.179293
    101 H                     0.084414
    102 H                     0.092774
    103 H                     0.089659
    104 C                    -0.170200
    105 H                     0.089061
    106 C                    -0.306757
    107 H                     0.088284
    108 H                     0.095120
    109 H                     0.100933
    110 H                     0.098603
  ----------------------------------------
  Sum of atomic charges =     0.000000

                    Cartesian Multipole Moments
 -----------------------------------------------------------------
    Charge (ESU x 10^10)
                 0.0000
    Dipole Moment (Debye)
         X      -0.6963      Y      -2.7245      Z      -1.1869
       Tot       3.0523
    Quadrupole Moments (Debye-Ang)
        XX    -392.4958     XY      13.5384     YY    -429.9564
        XZ      -4.3107     YZ     -11.4476     ZZ    -442.6336

 Total job time:  113.46s(wall), 1225.62s(cpu)
        *  Thank you very much for using Q-Chem.  Have a nice day.  *
