 Q-Chem 4.4, Q-Chem, Inc., Pleasanton, CA (2016)
 Q-Chem 4.4.2 for Intel X86 Linux

User input:
--------------------------------------------------------------
$comment
SP
$end

$rem
MEM_STATIC 5000
MEM_TOTAL 20000
JOBTYPE SP
EXCHANGE B3LYP
BASIS 6-31g(d,p)
$end

$molecule
0 1
C          -0.940000    -30.425000     10.245000
C          -2.341000    -30.453000     10.672000
N          -0.135000    -29.385000     10.598000
C          -2.903000    -29.330000     11.248000
C          -0.792000    -28.302000     11.070000
C          -2.135000    -28.169000     11.501000
C          -2.571000    -26.890000     12.050000
C          -1.572000    -26.089000     12.728000
C          -3.856000    -26.415000     12.151000
N          -1.884000    -24.967000     13.361000
N          -4.915000    -27.018000     11.527000
C          -4.129000    -25.206000     12.811000
C          -3.068000    -24.438000     13.340000
S          -6.175000    -26.135000     12.059000
N          -5.481000    -24.857000     12.793000
C          -3.286000    -23.138000     14.131000
S          -4.800000    -22.203000     14.187000
C          -2.372000    -22.469000     14.933000
C          -4.045000    -20.881000     15.084000
S          -0.764000    -22.954000     15.433000
C          -2.771000    -21.256000     15.369000
C          -4.731000    -19.653000     15.483000
C          -0.627000    -21.416000     16.311000
C          -1.758000    -20.618000     16.167000
N          -3.924000    -18.673000     15.864000
S          -6.394000    -19.203000     15.145000
C          -4.685000    -17.590000     16.076000
C          -6.090000    -17.766000     15.993000
C          -0.291000    -31.644000      9.703000
H          -2.788000    -31.393000     10.362000
H          -3.859000    -29.267000     11.759000
H          -0.138000    -27.449000     11.244000
H          -0.575000    -26.468000     12.949000
H           0.251000    -21.301000     16.933000
H          -1.858000    -19.703000     16.739000
H          -4.234000    -16.625000     16.270000
H          -6.904000    -17.139000     16.333000
H           0.568000    -31.887000     10.340000
C           0.112000    -31.572000      8.173000
H          -1.036000    -32.444000      9.789000
H           0.743000    -30.682000      8.051000
H          -0.716000    -31.426000      7.469000
C           1.040000    -32.718000      7.724000
H           1.302000    -32.649000      6.661000
C           0.495000    -34.175000      7.830000
H           1.943000    -32.622000      8.340000
H           0.522000    -34.391000      8.905000
H           1.188000    -34.854000      7.318000
C          -0.926000    -34.418000      7.141000
H          -1.643000    -33.850000      7.746000
C          -1.243000    -35.861000      7.016000
H          -0.905000    -33.980000      6.135000
H          -0.478000    -36.422000      6.463000
H          -2.173000    -36.041000      6.462000
H          -1.341000    -36.299000      8.017000
C          12.172000    -11.482000      8.951000
C          11.562000    -11.056000     10.110000
N          12.032000    -12.749000      8.471000
C          10.725000    -11.906000     10.806000
C          11.210000    -13.583000      9.219000
C          10.566000    -13.262000     10.415000
C           9.654000    -14.259000     11.107000
C           8.881000    -13.808000     12.169000
C           9.579000    -15.741000     10.892000
N           7.954000    -14.576000     12.757000
N          10.309000    -16.419000     10.017000
C           8.537000    -16.511000     11.497000
C           7.683000    -15.869000     12.404000
S           9.638000    -17.876000      9.946000
N           8.448000    -17.757000     10.990000
C           6.592000    -16.650000     13.084000
S           5.883000    -18.162000     12.685000
C           5.820000    -16.067000     14.083000
C           4.606000    -18.021000     13.834000
S           6.117000    -14.631000     15.000000
C           4.751000    -16.857000     14.513000
C           3.752000    -19.079000     14.249000
C           4.575000    -14.946000     15.750000
C           4.023000    -16.225000     15.469000
N           3.178000    -19.166000     15.443000
S           3.516000    -20.415000     13.137000
C           2.661000    -20.407000     15.607000
C           2.646000    -21.219000     14.467000
C          13.068000    -10.643000      8.057000
H          11.731000    -10.030000     10.424000
H          10.193000    -11.562000     11.688000
H          11.163000    -14.611000      8.862000
H           9.026000    -12.818000     12.598000
H           4.185000    -14.349000     16.564000
H           3.127000    -16.514000     16.007000
H           2.340000    -20.653000     16.610000
H           2.257000    -22.221000     14.343000
H          12.795000    -10.817000      7.009000
C          14.591000    -10.866000      8.040000
H          12.872000     -9.569000      8.160000
H          15.097000    -10.498000      7.140000
H          14.735000    -11.945000      7.900000
C          15.274000    -10.562000      9.337000
H          14.597000    -10.815000     10.163000
C          15.719000     -9.121000      9.433000
H          16.147000    -11.221000      9.422000
H          14.878000     -8.418000      9.410000
H          16.341000     -8.783000      8.595000
C          16.460000     -8.854000     10.733000
H          17.128000     -9.709000     10.894000
C          15.600000     -8.626000     11.909000
H          17.067000     -7.951000     10.592000
H          16.353000     -8.424000     12.681000
H          14.982000     -9.482000     12.205000
H          15.007000     -7.713000     11.777000
$end

--------------------------------------------------------------

             Standard Nuclear Orientation (Angstroms)
    I     Atom           X                Y                Z
 ----------------------------------------------------------------
    1      C       9.8096077793    -4.8710914614    -0.4007581755
    2      C      10.8213927340    -3.8421604299    -0.1487539339
    3      N       8.5191468074    -4.5179597029    -0.6542191016
    4      C      10.4304284286    -2.5310511134     0.0433092641
    5      C       8.2183170971    -3.2355747268    -0.3503897771
    6      C       9.0743695590    -2.1428761589    -0.0670471888
    7      C       8.4826799100    -0.8275591468     0.1501681814
    8      C       7.2434142044    -0.5398121596    -0.5431630397
    9      C       9.0383412468     0.2441319912     0.8057363194
   10      N       6.6820577530     0.6604021710    -0.5073650606
   11      N      10.1794417963     0.1379837732     1.5547944558
   12      C       8.3886034030     1.4886427124     0.8347845398
   13      C       7.1234401401     1.6362624463     0.2240830314
   14      S      10.4436406933     1.6818992804     1.9984574467
   15      N       9.0760611194     2.4564635487     1.5701441233
   16      C       6.3759031541     2.9777990284     0.1557232947
   17      S       6.7582470783     4.4250545235     1.1194772340
   18      C       5.2959124326     3.3075243596    -0.6511609891
   19      C       5.3238619699     5.2839026076     0.5474306195
   20      S       4.5495128672     2.3892777672    -1.9436778688
   21      C       4.7209677002     4.4982145029    -0.3821599902
   22      C       4.9358274656     6.6263183556     0.9776981912
   23      C       3.3883341102     3.7175467661    -2.1497418411
   24      C       3.5943147412     4.7508270612    -1.2405637444
   25      N       3.6882988595     6.9590639233     0.6780938453
   26      S       5.7526716814     7.6481593894     2.1485608769
   27      C       3.4482764740     8.1520939488     1.2402527308
   28      C       4.5467402473     8.8044095911     1.8564926530
   29      C      10.2105945974    -6.2689109920    -0.6944180665
   30      H      11.7933080353    -4.3165774984    -0.0496676473
   31      H      11.0715143333    -1.6549691154     0.0660071883
   32      H       7.1591621739    -3.0084867249    -0.4609469479
   33      H       6.8329459314    -1.2061142562    -1.3008228003
   34      H       2.7233222593     3.6391790310    -2.9998069776
   35      H       3.0317231709     5.6732431311    -1.3245180131
   36      H       2.4505352575     8.5725252741     1.2437118567
   37      H       4.6766422014     9.8329599304     2.1671929619
   38      H       9.8165508650    -6.5382683680    -1.6817757225
   39      C       9.8118432122    -7.3327113755     0.4091303360
   40      H      11.3062958460    -6.2640029310    -0.7372629585
   41      H       8.7290910322    -7.2401441961     0.5647710573
   42      H      10.2510824145    -7.1764440391     1.4016853434
   43      C       9.9707327467    -8.7939025499    -0.0553860445
   44      H       9.6925580300    -9.5115588136     0.7262547388
   45      C      11.4002778875    -9.2780874832    -0.4466348666
   46      H       9.3017419199    -8.9011661536    -0.9185353903
   47      H      11.5838579631    -8.8052010156    -1.4190991305
   48      H      11.3841990178   -10.3664717776    -0.5829987098
   49      C      12.5313648314    -9.0028603874     0.6478528542
   50      H      12.6479138475    -7.9127722948     0.6772174135
   51      C      13.7823777284    -9.7413858847     0.3513569498
   52      H      12.1580406197    -9.3332016435     1.6255157242
   53      H      13.6297507644   -10.8250392716     0.2610499894
   54      H      14.5331696067    -9.6325755656     1.1442553480
   55      H      14.2089552161    -9.3698834183    -0.5885720712
   56      C     -12.9576898531    -1.9732357518     1.9843665183
   57      C     -12.7891388728    -0.7107026816     1.4604793037
   58      N     -11.9715846482    -2.9126907320     1.9667635281
   59      C     -11.5668551651    -0.3334444365     0.9397262391
   60      C     -10.7689257536    -2.5048404294     1.4028364814
   61      C     -10.4997280590    -1.2634117731     0.8244071491
   62      C      -9.1199609473    -0.9319722780     0.2849559664
   63      C      -8.8604281652     0.3829284838    -0.0789845802
   64      C      -8.0129473058    -1.8832934275    -0.0580934003
   65      N      -7.6392779209     0.7980277774    -0.4414506576
   66      N      -8.0713771581    -3.2000119446     0.0869834732
   67      C      -6.7097522681    -1.3938908964    -0.3849830703
   68      C      -6.5379502199    -0.0091238583    -0.5154947803
   69      S      -6.5621025080    -3.7134676118    -0.1042867763
   70      N      -5.7753317545    -2.3656136899    -0.3949387788
   71      C      -5.1895338647     0.5447546550    -0.8864852458
   72      S      -3.6287704701    -0.1670405862    -0.8130607228
   73      C      -5.0282637976     1.9006163976    -1.1501230661
   74      C      -2.7927725642     1.3035837969    -1.1434883627
   75      S      -6.2255863209     3.0997739902    -1.4960043224
   76      C      -3.6996382287     2.2935355754    -1.3293704299
   77      C      -1.4216356854     1.4074615312    -1.5041794711
   78      C      -4.8955789631     4.2254891489    -1.5537521348
   79      C      -3.6060037400     3.6284326072    -1.5587750875
   80      N      -0.9081126092     2.3678958258    -2.2634824516
   81      S      -0.3470563179     0.1205991241    -0.9880396374
   82      C       0.3494036539     2.0278677611    -2.6340222782
   83      C       0.8929439127     0.9066426376    -1.9963803650
   84      C     -14.2217395391    -2.5040199613     2.6373745689
   85      H     -13.6295859156    -0.0245037395     1.5115946649
   86      H     -11.4057412980     0.6777481956     0.5780415939
   87      H     -10.0136534450    -3.2865774272     1.3328864560
   88      H      -9.6533039786     1.1275093886    -0.1249543598
   89      H      -5.0177670579     5.2652930092    -1.8275823773
   90      H      -2.7525937404     4.2787537390    -1.7154747943
   91      H       0.7930377218     2.6408707878    -3.4066684476
   92      H       1.8772758874     0.4690805027    -2.0980216053
   93      H     -13.9532016610    -3.0500556166     3.5499760543
   94      C     -15.1199782496    -3.5155742215     1.9028868579
   95      H     -14.8524493622    -1.7016940751     3.0385968160
   96      H     -15.7751837512    -4.1036798959     2.5558014514
   97      H     -14.4511904693    -4.3122868126     1.5528169333
   98      C     -15.7556745110    -2.9850122775     0.6556866788
   99      H     -15.0675595736    -2.2738973302     0.1808947615
  100      C     -17.0954141635    -2.3374421066     0.9192631139
  101      H     -15.8849065350    -3.8228499632    -0.0407055214
  102      H     -17.0172831204    -1.4565492619     1.5672926938
  103      H     -17.8069079570    -2.9740160879     1.4595613169
  104      C     -17.7446835938    -1.8600724463    -0.3695104947
  105      H     -17.5874492180    -2.6524181259    -1.1115587917
  106      C     -17.2595699582    -0.5612647292    -0.8718283966
  107      H     -18.8209397235    -1.7570171173    -0.1829861200
  108      H     -17.8936725649    -0.4311719708    -1.7577103066
  109      H     -16.2026246611    -0.5416873158    -1.1629630111
  110      H     -17.5092704416     0.2388932256    -0.1646940982
 ----------------------------------------------------------------

   10   -5663.4874217494      6.82E-06 Convergence criterion met
 Total energy in the final basis set = -5663.4874217494

                    Orbital Energies (a.u.)
 --------------------------------------------------------------

 Alpha MOs
 -- Occupied --
-88.993 -88.990 -88.932 -88.925 -88.922 -88.921 -88.909 -88.905
-14.397 -14.390 -14.388 -14.383 -14.349 -14.348 -14.347 -14.340
-14.334 -14.331 -10.272 -10.267 -10.267 -10.265 -10.265 -10.261
-10.259 -10.256 -10.245 -10.244 -10.240 -10.240 -10.239 -10.235
-10.234 -10.233 -10.231 -10.230 -10.230 -10.229 -10.229 -10.228
-10.225 -10.225 -10.222 -10.222 -10.221 -10.220 -10.216 -10.216
-10.215 -10.212 -10.206 -10.202 -10.200 -10.196 -10.195 -10.192
-10.188 -10.186 -10.181 -10.181 -10.179 -10.178 -10.172 -10.172
-10.169 -10.168 -10.167 -10.166  -8.049  -8.046  -7.993  -7.985
 -7.982  -7.981  -7.969  -7.965  -6.013  -6.011  -6.008  -6.007
 -6.006  -6.004  -5.957  -5.954  -5.950  -5.949  -5.946  -5.945
 -5.945  -5.943  -5.942  -5.941  -5.939  -5.938  -5.933  -5.930
 -5.930  -5.926  -5.926  -5.921  -1.055  -1.040  -0.982  -0.975
 -0.968  -0.953  -0.936  -0.929  -0.922  -0.917  -0.917  -0.908
 -0.852  -0.841  -0.841  -0.828  -0.821  -0.813  -0.811  -0.809
 -0.803  -0.800  -0.796  -0.795  -0.786  -0.784  -0.773  -0.770
 -0.752  -0.749  -0.745  -0.739  -0.723  -0.720  -0.713  -0.710
 -0.695  -0.689  -0.676  -0.675  -0.658  -0.657  -0.656  -0.648
 -0.635  -0.633  -0.627  -0.627  -0.612  -0.611  -0.600  -0.596
 -0.592  -0.590  -0.587  -0.582  -0.580  -0.575  -0.558  -0.556
 -0.552  -0.550  -0.543  -0.540  -0.527  -0.526  -0.516  -0.512
 -0.510  -0.508  -0.502  -0.501  -0.488  -0.482  -0.479  -0.478
 -0.476  -0.474  -0.469  -0.468  -0.462  -0.460  -0.453  -0.451
 -0.450  -0.448  -0.446  -0.438  -0.437  -0.435  -0.432  -0.430
 -0.429  -0.426  -0.424  -0.422  -0.421  -0.419  -0.418  -0.417
 -0.414  -0.411  -0.409  -0.406  -0.402  -0.400  -0.399  -0.397
 -0.397  -0.393  -0.392  -0.389  -0.386  -0.385  -0.382  -0.382
 -0.378  -0.376  -0.376  -0.373  -0.369  -0.369  -0.360  -0.359
 -0.356  -0.356  -0.354  -0.350  -0.349  -0.348  -0.345  -0.344
 -0.343  -0.339  -0.337  -0.332  -0.332  -0.330  -0.325  -0.322
 -0.318  -0.315  -0.310  -0.307  -0.305  -0.303  -0.303  -0.298
 -0.296  -0.294  -0.293  -0.292  -0.291  -0.285  -0.284  -0.278
 -0.274  -0.272  -0.269  -0.269  -0.256  -0.255  -0.251  -0.247
 -0.244  -0.242  -0.230  -0.227  -0.191  -0.190

          Ground-State Mulliken Net Atomic Charges

     Atom                 Charge (a.u.)
  ----------------------------------------
      1 C                     0.256536
      2 C                    -0.120047
      3 N                    -0.467054
      4 C                    -0.064097
      5 C                     0.054432
      6 C                     0.054265
      7 C                     0.037329
      8 C                     0.052269
      9 C                     0.206433
     10 N                    -0.510862
     11 N                    -0.541744
     12 C                     0.174166
     13 C                     0.326356
     14 S                     0.614800
     15 N                    -0.535891
     16 C                    -0.241206
     17 S                     0.304035
     18 C                    -0.107745
     19 C                    -0.249221
     20 S                     0.254233
     21 C                     0.178919
     22 C                     0.049358
     23 C                    -0.305215
     24 C                    -0.044121
     25 N                    -0.411645
     26 S                     0.292003
     27 C                     0.117399
     28 C                    -0.315119
     29 C                    -0.231977
     30 H                     0.093655
     31 H                     0.106453
     32 H                     0.089319
     33 H                     0.127195
     34 H                     0.120062
     35 H                     0.124522
     36 H                     0.111461
     37 H                     0.142595
     38 H                     0.124717
     39 C                    -0.183418
     40 H                     0.098864
     41 H                     0.115633
     42 H                     0.098328
     43 C                    -0.186530
     44 H                     0.091029
     45 C                    -0.179959
     46 H                     0.093700
     47 H                     0.089401
     48 H                     0.088461
     49 C                    -0.171766
     50 H                     0.093281
     51 C                    -0.311147
     52 H                     0.092388
     53 H                     0.102669
     54 H                     0.097964
     55 H                     0.102685
     56 C                     0.274677
     57 C                    -0.114194
     58 N                    -0.486205
     59 C                    -0.082028
     60 C                     0.037697
     61 C                     0.064149
     62 C                     0.054807
     63 C                     0.064770
     64 C                     0.210503
     65 N                    -0.542750
     66 N                    -0.537735
     67 C                     0.191354
     68 C                     0.314249
     69 S                     0.608910
     70 N                    -0.540708
     71 C                    -0.222377
     72 S                     0.334417
     73 C                    -0.129680
     74 C                    -0.249347
     75 S                     0.299784
     76 C                     0.204033
     77 C                     0.075572
     78 C                    -0.305965
     79 C                    -0.087962
     80 N                    -0.437362
     81 S                     0.257325
     82 C                     0.132137
     83 C                    -0.310579
     84 C                    -0.226014
     85 H                     0.095319
     86 H                     0.094295
     87 H                     0.129337
     88 H                     0.113143
     89 H                     0.115124
     90 H                     0.123255
     91 H                     0.104801
     92 H                     0.142873
     93 H                     0.118557
     94 C                    -0.181890
     95 H                     0.088375
     96 H                     0.092045
     97 H                     0.106335
     98 C                    -0.167485
     99 H                     0.093022
    100 C                    -0.162822
    101 H                     0.089345
    102 H                     0.079243
    103 H                     0.083901
    104 C                    -0.173659
    105 H                     0.088092
    106 C                    -0.305304
    107 H                     0.083049
    108 H                     0.100467
    109 H                     0.102105
    110 H                     0.098844
  ----------------------------------------
  Sum of atomic charges =     0.000000

                    Cartesian Multipole Moments
 -----------------------------------------------------------------
    Charge (ESU x 10^10)
                 0.0000
    Dipole Moment (Debye)
         X       2.7367      Y       2.7235      Z       0.2798
       Tot       3.8711
    Quadrupole Moments (Debye-Ang)
        XX    -390.7019     XY     -14.8969     YY    -408.8924
        XZ       7.7284     YZ       8.7882     ZZ    -447.9610

 Total job time:  92.83s(wall), 1000.97s(cpu)
        *  Thank you very much for using Q-Chem.  Have a nice day.  *
