 Q-Chem 4.4, Q-Chem, Inc., Pleasanton, CA (2016)
 Q-Chem 4.4.2 for Intel X86 Linux

User input:
--------------------------------------------------------------
$comment
SP
$end

$rem
MEM_STATIC 5000
MEM_TOTAL 20000
JOBTYPE SP
EXCHANGE B3LYP
BASIS 6-31g(d,p)
$end

$molecule
0 1
C          -0.797000    -17.745000     12.516000
C          -0.122000    -17.101000     13.516000
N          -0.336000    -17.794000     11.283000
C           1.035000    -16.419000     13.300000
C           0.895000    -17.211000     11.057000
C           1.635000    -16.411000     12.004000
C           2.831000    -15.622000     11.600000
C           3.035000    -14.390000     12.252000
C           3.905000    -16.087000     10.831000
N           4.111000    -13.642000     11.971000
N           3.927000    -17.281000     10.247000
C           4.964000    -15.265000     10.521000
C           5.024000    -13.961000     11.042000
S           5.335000    -17.359000      9.485000
N           5.865000    -15.856000      9.686000
C           6.041000    -12.954000     10.663000
S           7.018000    -13.012000      9.199000
C           6.331000    -11.825000     11.361000
C           7.769000    -11.410000      9.532000
S           5.816000    -11.388000     13.018000
C           7.329000    -11.045000     10.762000
C           8.549000    -10.691000      8.629000
C           6.913000    -10.014000     12.858000
C           7.701000    -10.023000     11.681000
N           8.520000    -11.166000      7.412000
S           9.169000     -9.105000      8.779000
C           9.404000    -10.574000      6.620000
C           9.868000     -9.401000      7.133000
C          -2.169000    -18.377000     12.802000
H          -0.538000    -16.884000     14.496000
H           1.429000    -15.894000     14.165000
H           1.264000    -17.216000     10.033000
H           2.215000    -14.039000     12.877000
H           6.896000     -9.242000     13.616000
H           8.427000     -9.274000     11.388000
H           9.612000    -10.968000      5.634000
H          10.501000     -8.646000      6.685000
H          -1.958000    -19.401000     13.137000
C          -3.175000    -18.287000     11.659000
H          -2.738000    -17.839000     13.570000
H          -2.711000    -18.509000     10.691000
H          -3.650000    -17.299000     11.704000
C          -4.423000    -19.187000     11.844000
H          -4.147000    -20.237000     11.689000
C          -5.490000    -18.975000     10.772000
H          -4.836000    -18.981000     12.839000
H          -6.320000    -19.670000     10.947000
H          -4.967000    -19.335000      9.877000
C          -5.987000    -17.576000     10.508000
H          -5.162000    -16.932000     10.183000
C          -6.639000    -16.984000     11.719000
H          -6.543000    -17.627000      9.564000
H          -7.673000    -17.321000     11.864000
H          -6.775000    -15.912000     11.532000
H          -6.091000    -17.020000     12.669000
C          12.172000    -11.482000      8.951000
C          11.562000    -11.056000     10.110000
N          12.032000    -12.749000      8.471000
C          10.725000    -11.906000     10.806000
C          11.210000    -13.583000      9.219000
C          10.566000    -13.262000     10.415000
C           9.654000    -14.259000     11.107000
C           8.881000    -13.808000     12.169000
C           9.579000    -15.741000     10.892000
N           7.954000    -14.576000     12.757000
N          10.309000    -16.419000     10.017000
C           8.537000    -16.511000     11.497000
C           7.683000    -15.869000     12.404000
S           9.638000    -17.876000      9.946000
N           8.448000    -17.757000     10.990000
C           6.592000    -16.650000     13.084000
S           5.883000    -18.162000     12.685000
C           5.820000    -16.067000     14.083000
C           4.606000    -18.021000     13.834000
S           6.117000    -14.631000     15.000000
C           4.751000    -16.857000     14.513000
C           3.752000    -19.079000     14.249000
C           4.575000    -14.946000     15.750000
C           4.023000    -16.225000     15.469000
N           3.178000    -19.166000     15.443000
S           3.516000    -20.415000     13.137000
C           2.661000    -20.407000     15.607000
C           2.646000    -21.219000     14.467000
C          13.068000    -10.643000      8.057000
H          11.731000    -10.030000     10.424000
H          10.193000    -11.562000     11.688000
H          11.163000    -14.611000      8.862000
H           9.026000    -12.818000     12.598000
H           4.185000    -14.349000     16.564000
H           3.127000    -16.514000     16.007000
H           2.340000    -20.653000     16.610000
H           2.257000    -22.221000     14.343000
H          12.795000    -10.817000      7.009000
C          14.591000    -10.866000      8.040000
H          12.872000     -9.569000      8.160000
H          15.097000    -10.498000      7.140000
H          14.735000    -11.945000      7.900000
C          15.274000    -10.562000      9.337000
H          14.597000    -10.815000     10.163000
C          15.719000     -9.121000      9.433000
H          16.147000    -11.221000      9.422000
H          14.878000     -8.418000      9.410000
H          16.341000     -8.783000      8.595000
C          16.460000     -8.854000     10.733000
H          17.128000     -9.709000     10.894000
C          15.600000     -8.626000     11.909000
H          17.067000     -7.951000     10.592000
H          16.353000     -8.424000     12.681000
H          14.982000     -9.482000     12.205000
H          15.007000     -7.713000     11.777000
$end

--------------------------------------------------------------

             Standard Nuclear Orientation (Angstroms)
    I     Atom           X                Y                Z
 ----------------------------------------------------------------
    1      C      -7.5415563994    -0.8739345552    -0.0796281060
    2      C      -6.8481568946    -0.5703837170    -1.2186693763
    3      N      -6.9325627383    -1.1266890834     1.0607458980
    4      C      -5.4888887303    -0.5656803204    -1.2715554389
    5      C      -5.5564354840    -1.0146514657     1.0676271847
    6      C      -4.7215024578    -0.8153253270    -0.0932194599
    7      C      -3.2403848211    -0.9500180926    -0.0276343613
    8      C      -2.5946133145    -1.4749687972    -1.1642741103
    9      C      -2.4017618736    -0.3778567981     0.9369406772
   10      N      -1.2596067437    -1.5890005121    -1.1958212793
   11      N      -2.8497699910     0.2656154732     2.0104434312
   12      C      -1.0396156311    -0.5678421216     0.8953691596
   13      C      -0.4560074185    -1.2769960877    -0.1685665088
   14      S      -1.5398331987     0.7283620265     2.8098952606
   15      N      -0.3967759232    -0.0207671731     1.9657770774
   16      C       0.9737324429    -1.6551052262    -0.2382544438
   17      S       2.0629133185    -1.7320615672     1.1433937538
   18      C       1.6337370886    -2.0395235081    -1.3618920420
   19      C       3.4166677779    -2.3829126184     0.1509040699
   20      S       1.0848071120    -1.9198139630    -3.0607706444
   21      C       2.9797722310    -2.3540587110    -1.1328461913
   22      C       4.6065266854    -2.8959809499     0.6625354483
   23      C       2.7184738394    -2.4336854086    -3.4896694218
   24      C       3.6145821694    -2.5220497695    -2.3962639157
   25      N       4.5878709582    -3.0817144586     1.9558683627
   26      S       5.8765365806    -3.6815367175    -0.1694939997
   27      C       5.7829729851    -3.3992955744     2.4355113344
   28      C       6.6486225048    -3.8051052774     1.4657879750
   29      C      -9.0733067064    -0.9973192442    -0.1256847605
   30      H      -7.2878777376    -0.5268506366    -2.2112898733
   31      H      -5.0664395661    -0.3780959501    -2.2541208605
   32      H      -5.0451223925    -1.2581434980     1.9971606982
   33      H      -3.2442344355    -1.8926049233    -1.9322574860
   34      H       2.9317045226    -2.6881061950    -4.5195430738
   35      H       4.6542449046    -2.8238629992    -2.4402658623
   36      H       5.9606171172    -3.4226948023     3.5025591489
   37      H       7.6421562896    -4.2261297511     1.5497344525
   38      H      -9.4566047450     0.0126952347     0.0699561504
   39      C      -9.6640065641    -2.0766305946     0.7758393308
   40      H      -9.4460340452    -1.3614037927    -1.0908509496
   41      H      -9.1881616743    -2.0863784693     1.7633010363
   42      H      -9.5971055747    -3.0343486297     0.2447137121
   43      C     -11.2007428813    -1.9808113016     0.9518766970
   44      H     -11.4458953302    -1.1278505453     1.5961275992
   45      C     -11.7979233663    -3.1515489878     1.7299292265
   46      H     -11.6461764478    -1.9211598562    -0.0486534839
   47      H     -12.8769552765    -2.9942756350     1.8461412280
   48      H     -11.3531194551    -2.9973569640     2.7211548821
   49      C     -11.4897880826    -4.5568951245     1.2783089401
   50      H     -10.4106017613    -4.7433780837     1.3178941627
   51      C     -11.9932313051    -4.8141207063    -0.1082223151
   52      H     -11.8044271322    -5.2128303333     2.0990551069
   53      H     -13.0661678740    -5.0402954253    -0.1456671490
   54      H     -11.5515233771    -5.7571861923    -0.4519818175
   55      H     -11.7288710045    -4.0954769026    -0.8942024133
   56      C       7.2457317561    -0.2904796193     0.9810529696
   57      C       6.7074926565    -0.4254919576    -0.2794736427
   58      N       6.6039753623     0.3673295808     1.9864010621
   59      C       5.4456958958     0.0660287005    -0.5510641016
   60      C       5.3526102714     0.8771125968     1.6624401292
   61      C       4.7271559188     0.8178874839     0.4160484416
   62      C       3.3307808737     1.3773503164     0.2117078622
   63      C       2.6847227529     1.0975687456    -0.9854158478
   64      C       2.5882754171     2.3414267786     1.0877308198
   65      N       1.4071485530     1.4354197836    -1.2057742829
   66      N       3.0509329506     2.8467787135     2.2229737138
   67      C       1.2084496843     2.6282766379     0.8458897453
   68      C       0.6164235485     2.0988026998    -0.3087926367
   69      S       1.7848067937     3.5443615188     2.9218540932
   70      N       0.6256069929     3.2854975978     1.8685534275
   71      C      -0.8250970157     2.4004663276    -0.6148310635
   72      S      -2.0864664452     2.9783415608     0.3966200610
   73      C      -1.3938639725     1.9966482523    -1.8178726716
   74      C      -3.3295319773     2.7030151210    -0.7651864781
   75      S      -0.6212906020     1.4828697029    -3.2774465783
   76      C      -2.7723385437     2.2092286491    -1.8977377562
   77      C      -4.6522149760     3.2189588771    -0.6929595751
   78      C      -2.2341036455     1.2357705812    -3.8916656848
   79      C      -3.2714273948     1.7736332146    -3.0828583982
   80      N      -5.4159965016     3.4967739328    -1.7427869781
   81      S      -5.2862370112     3.6069472770     0.8959447834
   82      C      -6.4916792590     4.2155028640    -1.3420360219
   83      C      -6.6772347475     4.3191008404     0.0414398977
   84      C       8.5909973482    -0.8280852775     1.4362602222
   85      H       7.2891148629    -0.9612866681    -1.0241028372
   86      H       4.9879777467    -0.0865892180    -1.5239391536
   87      H       4.8823209865     1.4593570422     2.4538069179
   88      H       3.2060052343     0.6252027822    -1.8162593778
   89      H      -2.4346141302     0.9408311561    -4.9133854512
   90      H      -4.2799899553     1.7521738234    -3.4805040394
   91      H      -7.0800359548     4.6604314413    -2.1328842751
   92      H      -7.4716047061     4.8042707088     0.5930625655
   93      H       8.4779012784    -1.2906257286     2.4243769208
   94      C       9.7833463712     0.1209455428     1.6534958304
   95      H       8.9260951334    -1.6794965297     0.8318519545
   96      H      10.5685599945    -0.2738432532     2.3085083283
   97      H       9.4087233491     0.9331660952     2.2895244190
   98      C      10.2604383085     0.8072344686     0.4115196657
   99      H       9.3998655780     0.9964445225    -0.2428717547
  100      C      11.3213876569     0.0147382696    -0.3165313315
  101      H      10.6672259595     1.7843886632     0.7001864061
  102      H      10.9511791252    -0.9517241809    -0.6783530760
  103      H      12.1787651516    -0.2710161008     0.3052566319
  104      C      11.8293182899     0.7597999090    -1.5401569382
  105      H      11.9513811974     1.8078394529    -1.2403507323
  106      C      10.9785347896     0.6484723643    -2.7394624094
  107      H      12.8128746451     0.3474911411    -1.7977561931
  108      H      11.5678994278     1.2214676851    -3.4661829097
  109      H       9.9782753538     1.0867747981    -2.6412379845
  110      H      10.9429147117    -0.3910202858    -3.0870659774
 ----------------------------------------------------------------

   10   -5663.4701631909      7.99E-06 Convergence criterion met
 Total energy in the final basis set = -5663.4701631909

                    Orbital Energies (a.u.)
 --------------------------------------------------------------

 Alpha MOs
 -- Occupied --
-88.989 -88.987 -88.928 -88.924 -88.922 -88.917 -88.913 -88.910
-14.388 -14.382 -14.380 -14.373 -14.348 -14.345 -14.341 -14.328
-14.328 -14.327 -10.267 -10.266 -10.263 -10.260 -10.258 -10.254
-10.247 -10.247 -10.241 -10.237 -10.237 -10.235 -10.233 -10.233
-10.232 -10.231 -10.230 -10.230 -10.227 -10.227 -10.225 -10.224
-10.223 -10.223 -10.222 -10.220 -10.219 -10.218 -10.217 -10.216
-10.211 -10.206 -10.205 -10.204 -10.198 -10.197 -10.192 -10.186
-10.182 -10.180 -10.172 -10.171 -10.170 -10.169 -10.169 -10.169
-10.168 -10.168 -10.167 -10.166  -8.046  -8.043  -7.988  -7.985
 -7.983  -7.975  -7.971  -7.970  -6.011  -6.007  -6.005  -6.004
 -6.002  -6.001  -5.952  -5.949  -5.948  -5.946  -5.946  -5.945
 -5.943  -5.942  -5.940  -5.939  -5.936  -5.936  -5.934  -5.933
 -5.931  -5.931  -5.928  -5.927  -1.054  -1.048  -0.982  -0.969
 -0.958  -0.952  -0.938  -0.927  -0.924  -0.916  -0.912  -0.905
 -0.855  -0.839  -0.831  -0.826  -0.813  -0.812  -0.811  -0.807
 -0.803  -0.800  -0.797  -0.795  -0.784  -0.783  -0.773  -0.770
 -0.752  -0.752  -0.746  -0.741  -0.722  -0.717  -0.711  -0.710
 -0.696  -0.694  -0.676  -0.675  -0.657  -0.654  -0.647  -0.644
 -0.638  -0.635  -0.625  -0.622  -0.616  -0.610  -0.605  -0.596
 -0.596  -0.593  -0.584  -0.582  -0.577  -0.575  -0.558  -0.553
 -0.545  -0.543  -0.541  -0.538  -0.525  -0.525  -0.519  -0.514
 -0.508  -0.507  -0.504  -0.498  -0.487  -0.481  -0.479  -0.476
 -0.474  -0.469  -0.468  -0.466  -0.462  -0.461  -0.451  -0.451
 -0.449  -0.446  -0.443  -0.439  -0.438  -0.438  -0.435  -0.432
 -0.431  -0.427  -0.424  -0.422  -0.420  -0.419  -0.418  -0.416
 -0.411  -0.410  -0.406  -0.400  -0.399  -0.396  -0.395  -0.393
 -0.391  -0.391  -0.389  -0.389  -0.387  -0.385  -0.384  -0.382
 -0.376  -0.376  -0.374  -0.374  -0.369  -0.367  -0.363  -0.359
 -0.356  -0.351  -0.348  -0.346  -0.346  -0.343  -0.342  -0.339
 -0.335  -0.334  -0.331  -0.330  -0.329  -0.328  -0.318  -0.315
 -0.312  -0.308  -0.306  -0.306  -0.304  -0.303  -0.298  -0.297
 -0.293  -0.292  -0.290  -0.289  -0.285  -0.283  -0.278  -0.273
 -0.270  -0.269  -0.264  -0.262  -0.254  -0.252  -0.248  -0.246
 -0.242  -0.241  -0.230  -0.227  -0.192  -0.191

          Ground-State Mulliken Net Atomic Charges

     Atom                 Charge (a.u.)
  ----------------------------------------
      1 C                     0.288140
      2 C                    -0.107793
      3 N                    -0.488576
      4 C                    -0.071541
      5 C                     0.072745
      6 C                     0.023275
      7 C                     0.002915
      8 C                     0.087074
      9 C                     0.258478
     10 N                    -0.552061
     11 N                    -0.551079
     12 C                     0.190431
     13 C                     0.336262
     14 S                     0.624614
     15 N                    -0.569526
     16 C                    -0.213109
     17 S                     0.338024
     18 C                    -0.118134
     19 C                    -0.221404
     20 S                     0.311545
     21 C                     0.166514
     22 C                     0.070626
     23 C                    -0.306178
     24 C                    -0.115713
     25 N                    -0.426866
     26 S                     0.240609
     27 C                     0.158056
     28 C                    -0.322210
     29 C                    -0.228020
     30 H                     0.083292
     31 H                     0.096436
     32 H                     0.108795
     33 H                     0.117116
     34 H                     0.128997
     35 H                     0.099565
     36 H                     0.119537
     37 H                     0.124767
     38 H                     0.116403
     39 C                    -0.179150
     40 H                     0.098959
     41 H                     0.118437
     42 H                     0.096844
     43 C                    -0.182735
     44 H                     0.088701
     45 C                    -0.167393
     46 H                     0.079932
     47 H                     0.084754
     48 H                     0.082767
     49 C                    -0.177893
     50 H                     0.099662
     51 C                    -0.317280
     52 H                     0.091744
     53 H                     0.104096
     54 H                     0.096858
     55 H                     0.105143
     56 C                     0.284688
     57 C                    -0.118255
     58 N                    -0.492167
     59 C                    -0.090219
     60 C                     0.045461
     61 C                     0.067806
     62 C                     0.072146
     63 C                     0.062243
     64 C                     0.212065
     65 N                    -0.543139
     66 N                    -0.536646
     67 C                     0.212696
     68 C                     0.310227
     69 S                     0.604702
     70 N                    -0.558323
     71 C                    -0.232393
     72 S                     0.325761
     73 C                    -0.132983
     74 C                    -0.242602
     75 S                     0.318967
     76 C                     0.205569
     77 C                     0.077305
     78 C                    -0.306813
     79 C                    -0.097935
     80 N                    -0.440408
     81 S                     0.264399
     82 C                     0.127446
     83 C                    -0.314503
     84 C                    -0.220992
     85 H                     0.095315
     86 H                     0.098555
     87 H                     0.128774
     88 H                     0.120931
     89 H                     0.114503
     90 H                     0.120586
     91 H                     0.112590
     92 H                     0.131954
     93 H                     0.114293
     94 C                    -0.184612
     95 H                     0.083566
     96 H                     0.089781
     97 H                     0.106439
     98 C                    -0.167627
     99 H                     0.093579
    100 C                    -0.161148
    101 H                     0.089153
    102 H                     0.077636
    103 H                     0.083127
    104 C                    -0.174658
    105 H                     0.088630
    106 C                    -0.305305
    107 H                     0.082855
    108 H                     0.100546
    109 H                     0.102833
    110 H                     0.098148
  ----------------------------------------
  Sum of atomic charges =     0.000000

                    Cartesian Multipole Moments
 -----------------------------------------------------------------
    Charge (ESU x 10^10)
                 0.0000
    Dipole Moment (Debye)
         X       0.5193      Y       0.1918      Z      -2.7014
       Tot       2.7576
    Quadrupole Moments (Debye-Ang)
        XX    -412.9242     XY     -23.0091     YY    -442.0482
        XZ       1.6292     YZ      10.2540     ZZ    -431.8053

 Total job time:  136.66s(wall), 1440.04s(cpu)
        *  Thank you very much for using Q-Chem.  Have a nice day.  *
