 Q-Chem 4.4, Q-Chem, Inc., Pleasanton, CA (2016)
 Q-Chem 4.4.2 for Intel X86 Linux

User input:
--------------------------------------------------------------
$comment
SP
$end

$rem
MEM_STATIC 5000
MEM_TOTAL 20000
JOBTYPE SP
EXCHANGE B3LYP
BASIS 6-31g(d,p)
$end

$molecule
0 1
C           4.013000    -28.239000     -2.556000
C           5.260000    -27.954000     -3.205000
N           3.550000    -27.549000     -1.505000
C           5.963000    -26.854000     -2.787000
C           4.297000    -26.500000     -1.052000
C           5.483000    -26.026000     -1.706000
C           6.255000    -24.931000     -1.039000
C           7.653000    -25.078000     -0.849000
C           5.686000    -23.705000     -0.528000
N           8.445000    -24.134000     -0.246000
N           4.377000    -23.425000     -0.604000
C           6.542000    -22.728000     -0.022000
C           7.916000    -22.936000      0.104000
S           4.281000    -21.929000      0.036000
N           5.832000    -21.642000      0.317000
C           8.878000    -22.084000      0.868000
S           8.396000    -20.536000      1.484000
C          10.254000    -22.198000      1.019000
C          10.021000    -20.063000      1.896000
S          11.254000    -23.427000      0.421000
C          10.859000    -21.062000      1.537000
C          10.447000    -18.767000      2.340000
C          12.644000    -22.443000      0.889000
C          12.281000    -21.276000      1.487000
N          11.754000    -18.521000      2.392000
S           9.430000    -17.376000      2.246000
C          12.014000    -17.238000      2.642000
C          10.850000    -16.499000      2.662000
C           3.256000    -29.506000     -2.982000
H           5.553000    -28.576000     -4.046000
H           6.829000    -26.630000     -3.403000
H           3.867000    -25.931000     -0.229000
H           8.115000    -26.048000     -1.028000
H          13.623000    -22.848000      0.670000
H          13.060000    -20.631000      1.876000
H          13.050000    -16.936000      2.721000
H          10.728000    -15.433000      2.800000
H           3.903000    -30.336000     -2.672000
C           2.933000    -29.428000     -4.463000
H           2.298000    -29.543000     -2.448000
H           3.863000    -29.312000     -5.033000
H           2.377000    -28.509000     -4.687000
C           2.161000    -30.697000     -4.886000
H           2.789000    -31.585000     -4.743000
C           1.915000    -30.647000     -6.428000
H           1.158000    -30.753000     -4.445000
H           2.011000    -31.682000     -6.779000
H           2.757000    -30.142000     -6.917000
C           0.589000    -29.867000     -6.785000
H          -0.279000    -30.151000     -6.178000
C           0.202000    -30.214000     -8.262000
H           0.799000    -28.806000     -6.596000
H           0.098000    -31.303000     -8.348000
H           1.025000    -29.910000     -8.921000
H          -0.707000    -29.657000     -8.524000
C           2.250000    -19.015000     -0.357000
C           1.272000    -19.015000      0.685000
N           2.149000    -19.789000     -1.431000
C           0.187000    -19.846000      0.617000
C           1.141000    -20.685000     -1.460000
C           0.082000    -20.781000     -0.475000
C          -0.929000    -21.860000     -0.706000
C          -1.346000    -22.257000     -1.996000
C          -1.593000    -22.546000      0.299000
N          -2.310000    -23.176000     -2.234000
N          -1.183000    -22.409000      1.560000
C          -2.590000    -23.442000      0.066000
C          -2.930000    -23.773000     -1.250000
S          -2.045000    -23.519000      2.420000
N          -2.926000    -24.130000      1.216000
C          -4.033000    -24.662000     -1.553000
S          -5.406000    -25.081000     -0.368000
C          -4.371000    -25.137000     -2.766000
C          -6.472000    -25.494000     -1.718000
S          -3.453000    -25.145000     -4.325000
C          -5.715000    -25.512000     -2.883000
C          -7.789000    -25.998000     -1.503000
C          -4.956000    -25.826000     -5.063000
C          -6.018000    -25.899000     -4.223000
N          -8.692000    -25.923000     -2.500000
S          -8.440000    -26.287000      0.080000
C          -9.930000    -26.215000     -1.996000
C          -9.997000    -26.353000     -0.641000
C           3.424000    -18.079000     -0.400000
H           1.408000    -18.445000      1.599000
H          -0.557000    -19.829000      1.407000
H           1.283000    -21.358000     -2.304000
H          -0.918000    -21.751000     -2.860000
H          -4.978000    -26.104000     -6.109000
H          -6.991000    -26.239000     -4.557000
H         -10.783000    -26.349000     -2.648000
H         -10.845000    -26.480000      0.019000
H           3.938000    -18.204000     -1.361000
C           4.521000    -18.300000      0.732000
H           3.114000    -17.033000     -0.508000
H           4.691000    -19.373000      0.889000
H           4.253000    -17.806000      1.673000
C           5.843000    -17.702000      0.179000
H           6.658000    -17.801000      0.906000
C           5.750000    -16.225000     -0.274000
H           6.081000    -18.277000     -0.725000
H           5.327000    -15.595000      0.518000
H           5.059000    -15.943000     -1.077000
C           7.106000    -15.664000     -0.731000
H           7.976000    -16.189000     -0.318000
C           7.302000    -14.202000     -0.377000
H           7.244000    -15.652000     -1.820000
H           6.409000    -13.586000     -0.544000
H           8.049000    -13.794000     -1.070000
H           7.615000    -13.981000      0.651000
$end

--------------------------------------------------------------

             Standard Nuclear Orientation (Angstroms)
    I     Atom           X                Y                Z
 ----------------------------------------------------------------
    1      C       0.9981742186    -5.4685303124    -0.7220112266
    2      C      -0.0972627407    -6.0508002801    -0.0020011205
    3      N       0.9250383653    -4.2911660392    -1.3572548926
    4      C      -1.2456545273    -5.3130042455     0.1236424860
    5      C      -0.2499761133    -3.5999466018    -1.2853128025
    6      C      -1.3639593945    -4.0053268752    -0.4767980636
    7      C      -2.6236318920    -3.2031983656    -0.5753528872
    8      C      -3.8579165795    -3.8660135261    -0.7974573071
    9      C      -2.7008344176    -1.7628829350    -0.4888125474
   10      N      -5.0629817863    -3.2194841665    -0.9062076372
   11      N      -1.6220887679    -0.9874152218    -0.3082172842
   12      C      -3.9561877589    -1.1567929173    -0.4954366654
   13      C      -5.1317889519    -1.8833938275    -0.6878657488
   14      S      -2.2558604524     0.5111891260    -0.2115195050
   15      N      -3.8165270382     0.1652667496    -0.3191694804
   16      C      -6.4862998792    -1.3221993993    -0.9801070217
   17      S      -6.7896339712     0.3798919602    -0.8424210300
   18      C      -7.7057802406    -1.9642468455    -1.1527793269
   19      C      -8.5167270275     0.2026055274    -0.9831942367
   20      S      -7.9956713635    -3.6327711222    -1.1586848367
   21      C      -8.8011392472    -1.1143105706    -1.1013791763
   22      C      -9.4992498640     1.2310673823    -0.7957293367
   23      C      -9.7244657758    -3.2730811506    -1.1230056517
   24      C      -9.9810591556    -1.9369761504    -1.1386666213
   25      N     -10.7778714279     0.8694544551    -0.7193618885
   26      S      -9.1148831774     2.7622326389    -0.0987349271
   27      C     -11.5664734046     1.8840205769    -0.3658770841
   28      C     -10.8177934210     3.0019987083    -0.0641815756
   29      C       2.2622101784    -6.3196892556    -0.9158037594
   30      H       0.0581456753    -7.0146581061     0.4742764408
   31      H      -1.9825147445    -5.7621180976     0.7831284739
   32      H      -0.2580777788    -2.6250316676    -1.7705604033
   33      H      -3.8539378519    -4.9212766409    -1.0672515404
   34      H     -10.3974745955    -4.1197870548    -1.0990214806
   35      H     -11.0128364432    -1.6099004518    -1.1900875914
   36      H     -12.6298144649     1.6983548293    -0.2912110302
   37      H     -11.1557042092     3.9672302164     0.2885625740
   38      H       1.9444442285    -7.1502303919    -1.5583263053
   39      C       2.8268064601    -6.7023357686     0.4401411822
   40      H       3.0249882546    -5.7121411021    -1.4191364998
   41      H       2.0655203833    -7.2483126819     1.0107625272
   42      H       3.0103063888    -5.8065003767     1.0465071829
   43      C       4.1044507040    -7.5472538259     0.2426249486
   44      H       3.8609756439    -8.4823254094    -0.2767381506
   45      C       4.6236381431    -8.0107974830     1.6413213706
   46      H       4.9342203677    -6.9719638132    -0.1865017303
   47      H       5.0166494498    -9.0242472250     1.4926481272
   48      H       3.7716808488    -8.1730773112     2.3128450308
   49      C       5.5792263842    -6.9378457147     2.2968750421
   50      H       6.3433063377    -6.5396160546     1.6185506636
   51      C       6.3672982033    -7.6318859361     3.4583215451
   52      H       4.9352321289    -6.1036597560     2.6050100537
   53      H       6.9060343482    -8.4946557192     3.0465878115
   54      H       5.6464245214    -8.0147523084     4.1916567179
   55      H       7.0171814176    -6.8853114939     3.9331398366
   56      C      -1.4993411626     3.5967420256     1.4248936056
   57      C      -0.8380621075     4.4447818983     0.4837313530
   58      N      -0.8830382094     2.5929944935     2.0376044359
   59      C       0.4747204493     4.2316436436     0.1618866034
   60      C       0.3782227291     2.3089828557     1.6525340078
   61      C       1.1615685091     3.0931947545     0.7185623344
   62      C       2.5391111805     2.5832382172     0.4321299365
   63      C       3.3350980012     1.9366667859     1.4036999883
   64      C       3.1961173622     2.7262354518    -0.7800629805
   65      N       4.6091162711     1.5315945848     1.1956255786
   66      N       2.5145244574     3.1555436430    -1.8421908396
   67      C       4.4896409337     2.3562661645    -0.9826302442
   68      C       5.1960673049     1.7182127705     0.0424876264
   69      S       3.5454599550     2.9881840737    -3.1165168474
   70      N       4.8235614354     2.4097613975    -2.3221732105
   71      C       6.5962846615     1.3730746405    -0.0953892220
   72      S       7.7466042198     2.1166390728    -1.3558620892
   73      C       7.3362183453     0.6594029518     0.7731779108
   74      C       9.1428574525     1.7213117358    -0.3441219017
   75      S       6.8385957349    -0.3739178735     2.1724237111
   76      C       8.7120914411     0.9079798691     0.6968055300
   77      C      10.4766602034     1.9862404540    -0.7748340978
   78      C       8.6053763280    -0.5473985146     2.5127247587
   79      C       9.4123139876     0.1989905372     1.7186668282
   80      N      11.4622623917     2.0508729839     0.1413831049
   81      S      10.8467265256     2.6720764780    -2.3259275396
   82      C      12.5823221950     2.5658987595    -0.4520294729
   83      C      12.4168040033     3.0233050869    -1.7259765597
   84      C      -2.9102077491     3.8106185596     1.8938640772
   85      H      -1.3725591062     5.2055493182    -0.0769270913
   86      H       0.9716562290     4.8893654447    -0.5440750551
   87      H       0.6896011058     1.3699615773     2.1071894216
   88      H       2.9311753971     1.8098307403     2.4069323380
   89      H       8.9502643615    -1.1766591239     3.3232599707
   90      H      10.4867757575     0.2248352005     1.8555936638
   91      H      13.5339843847     2.5775858950     0.0626271967
   92      H      13.0903454423     3.5598347173    -2.3811947567
   93      H      -3.1233007985     3.1002289029     2.7021213926
   94      C      -4.0401823977     3.5962944899     0.7934566587
   95      H      -3.0209964111     4.7454256301     2.4557729785
   96      H      -3.8034454786     2.7213881838     0.1742857722
   97      H      -4.1883603670     4.4859891756     0.1706985551
   98      C      -5.3456036530     3.2703183711     1.5685127317
   99      H      -6.1871708378     3.1181428644     0.8821001090
  100      C      -5.7489270506     4.3179307768     2.6339823391
  101      H      -5.1463625590     2.3435762931     2.1216285490
  102      H      -5.7808631072     5.3264172886     2.2038334768
  103      H      -5.0746751772     4.5318793802     3.4714931786
  104      C      -7.0901038595     3.9853038669     3.3069683021
  105      H      -7.7487851395     3.3417494426     2.7110902321
  106      C      -7.9131409130     5.2133789620     3.6469941386
  107      H      -6.9936374035     3.5009066799     4.2873573004
  108      H      -7.3203870650     6.0380025985     4.0634466973
  109      H      -8.5997414634     4.9342559768     4.4565570103
  110      H      -8.4926976142     5.6605926741     2.8298601681
 ----------------------------------------------------------------

    9   -5663.5224304836      6.84E-06 Convergence criterion met
 Total energy in the final basis set = -5663.5224304836

                    Orbital Energies (a.u.)
 --------------------------------------------------------------

 Alpha MOs
 -- Occupied --
-88.990 -88.984 -88.928 -88.927 -88.920 -88.916 -88.909 -88.898
-14.386 -14.379 -14.376 -14.376 -14.346 -14.346 -14.345 -14.335
-14.330 -14.325 -10.268 -10.262 -10.260 -10.258 -10.251 -10.250
-10.249 -10.245 -10.241 -10.239 -10.239 -10.236 -10.235 -10.232
-10.230 -10.230 -10.230 -10.229 -10.227 -10.227 -10.227 -10.226
-10.225 -10.224 -10.223 -10.223 -10.222 -10.218 -10.217 -10.215
-10.212 -10.210 -10.210 -10.202 -10.199 -10.195 -10.193 -10.188
-10.187 -10.184 -10.181 -10.180 -10.179 -10.179 -10.177 -10.177
-10.175 -10.174 -10.172 -10.170  -8.046  -8.039  -7.990  -7.989
 -7.979  -7.976  -7.967  -7.959  -6.010  -6.005  -6.004  -6.004
 -5.998  -5.997  -5.953  -5.953  -5.950  -5.949  -5.947  -5.946
 -5.943  -5.941  -5.940  -5.937  -5.935  -5.933  -5.932  -5.929
 -5.924  -5.923  -5.920  -5.916  -1.043  -1.040  -0.977  -0.969
 -0.967  -0.948  -0.944  -0.928  -0.916  -0.908  -0.904  -0.900
 -0.847  -0.835  -0.833  -0.824  -0.812  -0.812  -0.810  -0.806
 -0.805  -0.804  -0.801  -0.794  -0.785  -0.779  -0.770  -0.764
 -0.750  -0.744  -0.739  -0.734  -0.722  -0.721  -0.710  -0.707
 -0.691  -0.689  -0.674  -0.669  -0.661  -0.649  -0.646  -0.639
 -0.638  -0.627  -0.625  -0.619  -0.613  -0.606  -0.599  -0.596
 -0.591  -0.591  -0.587  -0.582  -0.578  -0.577  -0.568  -0.568
 -0.553  -0.548  -0.542  -0.537  -0.524  -0.523  -0.515  -0.509
 -0.508  -0.504  -0.499  -0.496  -0.487  -0.483  -0.478  -0.475
 -0.472  -0.469  -0.469  -0.465  -0.463  -0.457  -0.449  -0.448
 -0.445  -0.442  -0.437  -0.434  -0.434  -0.432  -0.430  -0.429
 -0.427  -0.424  -0.422  -0.420  -0.419  -0.416  -0.414  -0.411
 -0.410  -0.409  -0.406  -0.401  -0.398  -0.396  -0.396  -0.395
 -0.392  -0.392  -0.390  -0.389  -0.387  -0.386  -0.384  -0.380
 -0.380  -0.378  -0.376  -0.372  -0.364  -0.360  -0.353  -0.352
 -0.352  -0.350  -0.346  -0.346  -0.345  -0.344  -0.341  -0.340
 -0.339  -0.336  -0.334  -0.332  -0.330  -0.327  -0.327  -0.322
 -0.311  -0.309  -0.308  -0.306  -0.302  -0.301  -0.300  -0.299
 -0.295  -0.293  -0.292  -0.290  -0.287  -0.285  -0.282  -0.276
 -0.273  -0.270  -0.269  -0.266  -0.257  -0.251  -0.247  -0.247
 -0.243  -0.240  -0.232  -0.228  -0.193  -0.188

          Ground-State Mulliken Net Atomic Charges

     Atom                 Charge (a.u.)
  ----------------------------------------
      1 C                     0.257175
      2 C                    -0.098221
      3 N                    -0.479922
      4 C                    -0.090829
      5 C                     0.078905
      6 C                     0.027500
      7 C                     0.015746
      8 C                     0.056896
      9 C                     0.211646
     10 N                    -0.525534
     11 N                    -0.556437
     12 C                     0.225750
     13 C                     0.322380
     14 S                     0.636682
     15 N                    -0.578419
     16 C                    -0.226710
     17 S                     0.315093
     18 C                    -0.124114
     19 C                    -0.262165
     20 S                     0.275973
     21 C                     0.183152
     22 C                     0.064352
     23 C                    -0.306945
     24 C                    -0.053339
     25 N                    -0.432299
     26 S                     0.292735
     27 C                     0.144872
     28 C                    -0.336621
     29 C                    -0.219163
     30 H                     0.093219
     31 H                     0.099528
     32 H                     0.117832
     33 H                     0.116072
     34 H                     0.125257
     35 H                     0.118436
     36 H                     0.117882
     37 H                     0.124791
     38 H                     0.111588
     39 C                    -0.185292
     40 H                     0.118511
     41 H                     0.089636
     42 H                     0.109250
     43 C                    -0.174620
     44 H                     0.089479
     45 C                    -0.184061
     46 H                     0.101260
     47 H                     0.081889
     48 H                     0.088430
     49 C                    -0.180395
     50 H                     0.096353
     51 C                    -0.313960
     52 H                     0.100414
     53 H                     0.107322
     54 H                     0.101707
     55 H                     0.096876
     56 C                     0.258238
     57 C                    -0.116017
     58 N                    -0.468885
     59 C                    -0.046833
     60 C                     0.047868
     61 C                     0.029599
     62 C                     0.060008
     63 C                     0.051848
     64 C                     0.202780
     65 N                    -0.523847
     66 N                    -0.569512
     67 C                     0.193245
     68 C                     0.320935
     69 S                     0.608332
     70 N                    -0.535616
     71 C                    -0.223499
     72 S                     0.291918
     73 C                    -0.093571
     74 C                    -0.212936
     75 S                     0.267928
     76 C                     0.145250
     77 C                     0.038192
     78 C                    -0.302549
     79 C                    -0.044243
     80 N                    -0.426445
     81 S                     0.282662
     82 C                     0.128726
     83 C                    -0.309831
     84 C                    -0.242112
     85 H                     0.096022
     86 H                     0.112918
     87 H                     0.112159
     88 H                     0.114268
     89 H                     0.125366
     90 H                     0.124779
     91 H                     0.113942
     92 H                     0.137345
     93 H                     0.124213
     94 C                    -0.198272
     95 H                     0.113000
     96 H                     0.115012
     97 H                     0.094303
     98 C                    -0.188481
     99 H                     0.103914
    100 C                    -0.174350
    101 H                     0.108773
    102 H                     0.088676
    103 H                     0.097899
    104 C                    -0.186217
    105 H                     0.103497
    106 C                    -0.323730
    107 H                     0.098674
    108 H                     0.097232
    109 H                     0.095358
    110 H                     0.096522
  ----------------------------------------
  Sum of atomic charges =     0.000000

                    Cartesian Multipole Moments
 -----------------------------------------------------------------
    Charge (ESU x 10^10)
                 0.0000
    Dipole Moment (Debye)
         X       0.6375      Y       2.0094      Z      -0.1408
       Tot       2.1127
    Quadrupole Moments (Debye-Ang)
        XX    -388.5956     XY      -5.8785     YY    -407.1946
        XZ     -18.4622     YZ     -15.5777     ZZ    -447.3561

 Total job time:  87.88s(wall), 961.30s(cpu)
        *  Thank you very much for using Q-Chem.  Have a nice day.  *
