 Q-Chem 4.4, Q-Chem, Inc., Pleasanton, CA (2016)
 Q-Chem 4.4.2 for Intel X86 Linux

User input:
--------------------------------------------------------------
$comment
SP
$end

$rem
MEM_STATIC 5000
MEM_TOTAL 20000
JOBTYPE SP
EXCHANGE B3LYP
BASIS 6-31g(d,p)
$end

$molecule
0 1
C         -10.183000    -19.819000     10.464000
C         -11.315000    -19.989000      9.639000
N          -8.970000    -20.023000      9.973000
C         -11.152000    -20.046000      8.284000
C          -8.779000    -20.151000      8.670000
C          -9.865000    -20.040000      7.743000
C          -9.650000    -19.950000      6.260000
C          -8.547000    -19.296000      5.665000
C         -10.472000    -20.529000      5.253000
N          -8.205000    -19.263000      4.381000
N         -11.654000    -21.210000      5.547000
C         -10.190000    -20.520000      3.913000
C          -9.011000    -19.888000      3.468000
S         -12.218000    -21.663000      4.084000
N         -11.020000    -21.160000      3.082000
C          -8.428000    -20.075000      2.148000
S          -8.883000    -21.252000      0.956000
C          -7.572000    -19.122000      1.603000
C          -7.772000    -20.626000     -0.225000
S          -6.738000    -17.720000      2.242000
C          -7.160000    -19.486000      0.293000
C          -7.680000    -21.128000     -1.510000
C          -5.925000    -17.532000      0.681000
C          -6.295000    -18.493000     -0.222000
N          -8.635000    -21.853000     -1.996000
S          -6.053000    -21.334000     -2.220000
C          -8.093000    -22.506000     -3.109000
C          -6.734000    -22.401000     -3.268000
C         -10.281000    -19.496000     11.952000
H         -12.297000    -19.938000     10.100000
H         -12.059000    -19.920000      7.699000
H          -7.772000    -20.196000      8.260000
H          -7.885000    -18.785000      6.362000
H          -5.284000    -16.687000      0.468000
H          -5.902000    -18.695000     -1.212000
H          -8.760000    -23.199000     -3.605000
H          -6.150000    -22.952000     -3.994000
H          -9.363000    -19.766000     12.488000
C         -11.500000    -20.122000     12.679000
H         -10.333000    -18.403000     12.031000
H         -11.505000    -21.218000     12.715000
H         -12.383000    -19.876000     12.077000
C         -11.678000    -19.637000     14.062000
H         -10.890000    -20.004000     14.731000
C         -13.039000    -20.289000     14.476000
H         -11.678000    -18.546000     14.181000
H         -13.122000    -21.340000     14.173000
H         -13.828000    -19.720000     13.969000
C         -13.207000    -20.092000     15.989000
H         -12.395000    -20.628000     16.497000
C         -14.536000    -20.496000     16.607000
H         -12.991000    -19.048000     16.247000
H         -14.435000    -20.459000     17.699000
H         -14.870000    -21.489000     16.282000
H         -15.384000    -19.853000     16.342000
C           2.250000    -19.015000     -0.357000
C           1.272000    -19.015000      0.685000
N           2.149000    -19.789000     -1.431000
C           0.187000    -19.846000      0.617000
C           1.141000    -20.685000     -1.460000
C           0.082000    -20.781000     -0.475000
C          -0.929000    -21.860000     -0.706000
C          -1.346000    -22.257000     -1.996000
C          -1.593000    -22.546000      0.299000
N          -2.310000    -23.176000     -2.234000
N          -1.183000    -22.409000      1.560000
C          -2.590000    -23.442000      0.066000
C          -2.930000    -23.773000     -1.250000
S          -2.045000    -23.519000      2.420000
N          -2.926000    -24.130000      1.216000
C          -4.033000    -24.662000     -1.553000
S          -5.406000    -25.081000     -0.368000
C          -4.371000    -25.137000     -2.766000
C          -6.472000    -25.494000     -1.718000
S          -3.453000    -25.145000     -4.325000
C          -5.715000    -25.512000     -2.883000
C          -7.789000    -25.998000     -1.503000
C          -4.956000    -25.826000     -5.063000
C          -6.018000    -25.899000     -4.223000
N          -8.692000    -25.923000     -2.500000
S          -8.440000    -26.287000      0.080000
C          -9.930000    -26.215000     -1.996000
C          -9.997000    -26.353000     -0.641000
C           3.424000    -18.079000     -0.400000
H           1.408000    -18.445000      1.599000
H          -0.557000    -19.829000      1.407000
H           1.283000    -21.358000     -2.304000
H          -0.918000    -21.751000     -2.860000
H          -4.978000    -26.104000     -6.109000
H          -6.991000    -26.239000     -4.557000
H         -10.783000    -26.349000     -2.648000
H         -10.845000    -26.480000      0.019000
H           3.938000    -18.204000     -1.361000
C           4.521000    -18.300000      0.732000
H           3.114000    -17.033000     -0.508000
H           4.691000    -19.373000      0.889000
H           4.253000    -17.806000      1.673000
C           5.843000    -17.702000      0.179000
H           6.658000    -17.801000      0.906000
C           5.750000    -16.225000     -0.274000
H           6.081000    -18.277000     -0.725000
H           5.327000    -15.595000      0.518000
H           5.059000    -15.943000     -1.077000
C           7.106000    -15.664000     -0.731000
H           7.976000    -16.189000     -0.318000
C           7.302000    -14.202000     -0.377000
H           7.244000    -15.652000     -1.820000
H           6.409000    -13.586000     -0.544000
H           8.049000    -13.794000     -1.070000
H           7.615000    -13.981000      0.651000
$end

--------------------------------------------------------------

             Standard Nuclear Orientation (Angstroms)
    I     Atom           X                Y                Z
 ----------------------------------------------------------------
    1      C       9.0786763671    -3.2364074125     0.6231668122
    2      C       9.3227459889    -2.0215444023    -0.0517308735
    3      N       7.8599497027    -3.5180444119     1.0584275595
    4      C       8.2669736897    -1.2995547115    -0.5312292976
    5      C       6.8187891540    -2.7998427436     0.6700397694
    6      C       6.9635896143    -1.7183239264    -0.2575354970
    7      C       5.7840908062    -1.0388811370    -0.8905868833
    8      C       4.5865802238    -1.7057008704    -1.2365201832
    9      C       5.6719016440     0.3475094262    -1.1911011061
   10      N       3.4521020122    -1.1788855692    -1.6861131390
   11      N       6.7178425516     1.2482475815    -0.9861635706
   12      C       4.5416325442     0.9546450090    -1.6697274177
   13      C       3.3926377749     0.1715273644    -1.9021661727
   14      S       6.1059885874     2.6770693483    -1.4839356923
   15      N       4.5559721417     2.2802543497    -1.8475342000
   16      C       2.0557240182     0.7130294232    -2.0937258956
   17      S       1.5410212710     2.3522113390    -1.8459725323
   18      C       1.0759273642    -0.0198511071    -2.7576947541
   19      C      -0.0680107371     2.0349024331    -2.4215496820
   20      S       0.9380890418    -1.6875921603    -3.2764638515
   21      C      -0.1334257407     0.7170886542    -2.8704992575
   22      C      -1.0312164510     3.0197291299    -2.5400576138
   23      C      -0.7255892091    -1.3588580286    -3.7835560996
   24      C      -1.0983325014    -0.0617966747    -3.5500517482
   25      N      -0.6893633762     4.2674888455    -2.5488988431
   26      S      -2.7003805098     2.6316056956    -2.0331882571
   27      C      -1.8609546801     4.9884022763    -2.2908297789
   28      C      -2.9505411064     4.2504580400    -1.9016939109
   29      C      10.1837541657    -4.2289400046     0.9721067964
   30      H      10.3514788502    -1.7626350188    -0.2843692867
   31      H       8.5193017591    -0.5249436872    -1.2502969623
   32      H       5.8073737334    -3.1057875692     0.9300601736
   33      H       4.5988072965    -2.7830117268    -1.0802325720
   34      H      -1.3222448970    -2.0976813439    -4.3016459557
   35      H      -2.0700534293     0.4058209851    -3.6616096379
   36      H      -1.7334629720     6.0603677308    -2.2147381980
   37      H      -3.8831664766     4.6644848923    -1.5404119095
   38      H       9.8872909378    -4.8964202639     1.7903363840
   39      C      11.5567683557    -3.5891841873     1.3066371064
   40      H      10.2934162785    -4.8911823931     0.1043492036
   41      H      11.5677542087    -2.9592082036     2.2041595690
   42      H      11.7819275458    -2.8892722485     0.4929813948
   43      C      12.6495805102    -4.5718344753     1.4472002827
   44      H      12.5374229751    -5.1851566199     2.3496694702
   45      C      13.9082319328    -3.6562637629     1.6095205436
   46      H      12.7493282518    -5.2852955426     0.6192717269
   47      H      13.7417951360    -2.8136116871     2.2918219960
   48      H      14.1363858122    -3.2550819403     0.6143673129
   49      C      15.0791310476    -4.5491809177     2.0429905165
   50      H      14.8355887693    -4.9834344829     3.0211597246
   51      C      16.4597345174    -3.9157660018     2.1070264720
   52      H      15.1182968804    -5.4368862220     1.3998720746
   53      H      17.1426605222    -4.6235554134     2.5935243864
   54      H      16.4602491215    -2.9529874445     2.6326567459
   55      H      16.8990490570    -3.6643777662     1.1341006319
   56      C      -7.3701520110    -4.5009370408     0.2269903286
   57      C      -5.9432838372    -4.5487358040     0.2903187813
   58      N      -8.0524120801    -3.3678467588     0.3426649195
   59      C      -5.2201534447    -3.4056289203     0.4971981854
   60      C      -7.3589467562    -2.2522588896     0.6497325841
   61      C      -5.9145487637    -2.1647407572     0.7332611170
   62      C      -5.3615530535    -0.8229493459     1.0986575497
   63      C      -5.9590036331     0.3901257329     0.6898792993
   64      C      -4.1979738992    -0.6212401299     1.8245459322
   65      N      -5.4422285815     1.6148252763     0.9419816088
   66      N      -3.6196831754    -1.6599658666     2.4275539609
   67      C      -3.6535445793     0.6056192757     2.0470919150
   68      C      -4.3235219160     1.7511699809     1.6045301113
   69      S      -2.4201997499    -1.0122968878     3.3530313545
   70      N      -2.6265500898     0.5397800674     2.9688768775
   71      C      -3.7508554108     3.0740637714     1.7485582090
   72      S      -1.9465644695     3.4146583883     2.0542451501
   73      C      -4.3533409827     4.2442910218     1.4678139871
   74      C      -2.1171443070     5.0382433180     1.3728498940
   75      S      -6.0945872301     4.6284412582     1.1616129066
   76      C      -3.4697933260     5.2923193180     1.1821039439
   77      C      -1.0255328028     5.9560825026     1.3466667869
   78      C      -5.5306269680     6.3047793970     0.7884463659
   79      C      -4.1839818705     6.4639008728     0.7890271276
   80      N      -1.0618613931     6.9958529251     0.4907458198
   81      S       0.5347709303     5.5829000482     2.0095379029
   82      C       0.1759780428     7.5773243597     0.4511415062
   83      C       1.1593137128     6.9163938389     1.1262561681
   84      C      -8.2326393127    -5.6924477291    -0.0773761188
   85      H      -5.4002192618    -5.4888554803     0.2834006151
   86      H      -4.1362698740    -3.4504929701     0.5304941636
   87      H      -8.0559797451    -1.4485549400     0.8813226827
   88      H      -6.8575314614     0.3468911249     0.0762878143
   89      H      -6.2426347131     7.0839289717     0.5479158874
   90      H      -3.7178476849     7.4067015072     0.5287755479
   91      H       0.3388178107     8.5137214820    -0.0658813555
   92      H       2.2260780695     7.0902501798     1.1774497216
   93      H      -9.2704424443    -5.3553786773    -0.1900309648
   94      C      -8.2453564400    -6.8332127013     1.0326543101
   95      H      -8.0667695928    -6.0735180937    -1.0918477119
   96      H      -8.2766777663    -6.3853411075     2.0343069495
   97      H      -7.3931158984    -7.5158118923     0.9373369270
   98      C      -9.5728474827    -7.6147883972     0.8377082581
   99      H      -9.6601013207    -8.4351842658     1.5601294555
  100      C      -9.7953898471    -8.1744955629    -0.5879809734
  101      H     -10.3791304981    -6.8886741228     1.0024831339
  102      H      -8.9321071376    -8.7641500106    -0.9198598606
  103      H      -9.8473111632    -7.4885334486    -1.4415465272
  104      C     -11.0816260936    -9.0086857145    -0.6976582688
  105      H     -11.4325778339    -9.4274846492     0.2534118276
  106      C     -10.9549388595   -10.1874778220    -1.6440067839
  107      H     -11.9342689123    -8.4665556943    -1.1268485122
  108      H     -10.4157827050    -9.9511549906    -2.5704279411
  109      H     -11.9671051265   -10.4514027885    -1.9765501042
  110      H     -10.4664147328   -11.0868975196    -1.2490607304
 ----------------------------------------------------------------

    9   -5663.5250653982      8.50E-06 Convergence criterion met
 Total energy in the final basis set = -5663.5250653982

                    Orbital Energies (a.u.)
 --------------------------------------------------------------

 Alpha MOs
 -- Occupied --
-88.991 -88.985 -88.928 -88.923 -88.920 -88.919 -88.915 -88.909
-14.388 -14.386 -14.382 -14.377 -14.349 -14.348 -14.345 -14.340
-14.327 -14.323 -10.269 -10.260 -10.255 -10.253 -10.252 -10.250
-10.247 -10.246 -10.244 -10.242 -10.240 -10.234 -10.232 -10.231
-10.230 -10.230 -10.229 -10.229 -10.228 -10.228 -10.227 -10.226
-10.225 -10.224 -10.224 -10.222 -10.220 -10.218 -10.217 -10.213
-10.213 -10.213 -10.201 -10.201 -10.199 -10.199 -10.196 -10.192
-10.189 -10.184 -10.183 -10.182 -10.180 -10.180 -10.178 -10.178
-10.176 -10.176 -10.171 -10.169  -8.047  -8.040  -7.990  -7.982
 -7.982  -7.979  -7.973  -7.969  -6.011  -6.006  -6.005  -6.005
 -6.000  -5.998  -5.954  -5.951  -5.947  -5.946  -5.945  -5.943
 -5.943  -5.942  -5.939  -5.939  -5.938  -5.938  -5.936  -5.934
 -5.933  -5.930  -5.929  -5.925  -1.041  -1.036  -0.974  -0.971
 -0.970  -0.953  -0.945  -0.941  -0.912  -0.909  -0.902  -0.900
 -0.846  -0.840  -0.833  -0.828  -0.820  -0.816  -0.813  -0.812
 -0.805  -0.805  -0.801  -0.798  -0.785  -0.785  -0.771  -0.767
 -0.751  -0.749  -0.742  -0.737  -0.725  -0.721  -0.712  -0.711
 -0.692  -0.691  -0.676  -0.668  -0.661  -0.654  -0.650  -0.641
 -0.639  -0.634  -0.624  -0.623  -0.614  -0.604  -0.600  -0.597
 -0.592  -0.592  -0.587  -0.586  -0.581  -0.578  -0.574  -0.569
 -0.556  -0.543  -0.542  -0.535  -0.526  -0.520  -0.517  -0.514
 -0.507  -0.507  -0.498  -0.494  -0.491  -0.487  -0.478  -0.478
 -0.477  -0.471  -0.469  -0.466  -0.466  -0.462  -0.450  -0.444
 -0.444  -0.442  -0.440  -0.438  -0.434  -0.432  -0.431  -0.430
 -0.430  -0.428  -0.425  -0.424  -0.420  -0.413  -0.413  -0.413
 -0.409  -0.407  -0.406  -0.403  -0.400  -0.399  -0.397  -0.396
 -0.395  -0.392  -0.390  -0.388  -0.386  -0.386  -0.381  -0.380
 -0.379  -0.379  -0.374  -0.372  -0.370  -0.364  -0.357  -0.355
 -0.354  -0.353  -0.350  -0.350  -0.347  -0.347  -0.345  -0.344
 -0.341  -0.338  -0.336  -0.332  -0.331  -0.329  -0.324  -0.323
 -0.318  -0.315  -0.311  -0.310  -0.304  -0.303  -0.303  -0.300
 -0.297  -0.296  -0.294  -0.291  -0.289  -0.287  -0.287  -0.284
 -0.276  -0.271  -0.270  -0.264  -0.256  -0.254  -0.251  -0.245
 -0.244  -0.241  -0.233  -0.227  -0.196  -0.188

          Ground-State Mulliken Net Atomic Charges

     Atom                 Charge (a.u.)
  ----------------------------------------
      1 C                     0.277537
      2 C                    -0.122466
      3 N                    -0.480146
      4 C                    -0.051359
      5 C                     0.080060
      6 C                     0.017329
      7 C                     0.044361
      8 C                     0.050027
      9 C                     0.204146
     10 N                    -0.508291
     11 N                    -0.545513
     12 C                     0.206924
     13 C                     0.270629
     14 S                     0.594797
     15 N                    -0.560496
     16 C                    -0.211226
     17 S                     0.364783
     18 C                    -0.129278
     19 C                    -0.218129
     20 S                     0.285843
     21 C                     0.129818
     22 C                     0.060538
     23 C                    -0.321242
     24 C                    -0.054687
     25 N                    -0.418603
     26 S                     0.280732
     27 C                     0.092527
     28 C                    -0.293133
     29 C                    -0.231629
     30 H                     0.085928
     31 H                     0.114177
     32 H                     0.102275
     33 H                     0.102941
     34 H                     0.129808
     35 H                     0.095814
     36 H                     0.118534
     37 H                     0.154189
     38 H                     0.118027
     39 C                    -0.182746
     40 H                     0.112403
     41 H                     0.104427
     42 H                     0.093065
     43 C                    -0.172711
     44 H                     0.096540
     45 C                    -0.176180
     46 H                     0.094986
     47 H                     0.094170
     48 H                     0.095096
     49 C                    -0.175756
     50 H                     0.091517
     51 C                    -0.320579
     52 H                     0.091212
     53 H                     0.100123
     54 H                     0.099139
     55 H                     0.099743
     56 C                     0.269933
     57 C                    -0.118627
     58 N                    -0.473599
     59 C                    -0.044403
     60 C                     0.057689
     61 C                     0.026719
     62 C                     0.061751
     63 C                     0.047336
     64 C                     0.201484
     65 N                    -0.529905
     66 N                    -0.564030
     67 C                     0.196249
     68 C                     0.321078
     69 S                     0.612868
     70 N                    -0.539149
     71 C                    -0.226024
     72 S                     0.301874
     73 C                    -0.098404
     74 C                    -0.201605
     75 S                     0.262177
     76 C                     0.135878
     77 C                     0.039751
     78 C                    -0.305317
     79 C                    -0.052387
     80 N                    -0.432032
     81 S                     0.291493
     82 C                     0.130405
     83 C                    -0.305844
     84 C                    -0.243874
     85 H                     0.094483
     86 H                     0.113616
     87 H                     0.105266
     88 H                     0.113791
     89 H                     0.127748
     90 H                     0.125669
     91 H                     0.114776
     92 H                     0.139672
     93 H                     0.123789
     94 C                    -0.183072
     95 H                     0.112142
     96 H                     0.105514
     97 H                     0.095927
     98 C                    -0.187825
     99 H                     0.092608
    100 C                    -0.172261
    101 H                     0.104756
    102 H                     0.090842
    103 H                     0.098368
    104 C                    -0.179387
    105 H                     0.094644
    106 C                    -0.323885
    107 H                     0.097970
    108 H                     0.096256
    109 H                     0.094839
    110 H                     0.102276
  ----------------------------------------
  Sum of atomic charges =     0.000000

                    Cartesian Multipole Moments
 -----------------------------------------------------------------
    Charge (ESU x 10^10)
                 0.0000
    Dipole Moment (Debye)
         X       1.5909      Y       0.6541      Z       0.1027
       Tot       1.7232
    Quadrupole Moments (Debye-Ang)
        XX    -420.4458     XY       7.5808     YY    -412.2599
        XZ       2.2137     YZ       4.5369     ZZ    -451.5294

 Total job time:  91.29s(wall), 987.03s(cpu)
        *  Thank you very much for using Q-Chem.  Have a nice day.  *
