 Q-Chem 4.4, Q-Chem, Inc., Pleasanton, CA (2016)
 Q-Chem 4.4.2 for Intel X86 Linux

User input:
--------------------------------------------------------------
$comment
SP
$end

$rem
MEM_STATIC 5000
MEM_TOTAL 20000
JOBTYPE SP
EXCHANGE B3LYP
BASIS 6-31g(d,p)
$end

$molecule
0 1
C           5.243000    -21.699000     -3.794000
C           6.227000    -22.674000     -4.072000
N           5.577000    -20.495000     -3.299000
C           7.602000    -22.242000     -3.921000
C           6.868000    -20.158000     -3.181000
C           7.962000    -20.975000     -3.419000
C           9.428000    -20.627000     -3.305000
C          10.451000    -21.540000     -3.024000
C           9.957000    -19.352000     -3.490000
N          11.780000    -21.300000     -2.886000
N           9.179000    -18.266000     -3.723000
C          11.325000    -19.026000     -3.488000
C          12.223000    -20.031000     -3.074000
S          10.156000    -16.987000     -3.815000
N          11.553000    -17.643000     -3.605000
C          13.617000    -19.844000     -2.662000
S          14.428000    -20.802000     -1.422000
C          14.604000    -19.067000     -3.218000
C          16.018000    -20.172000     -1.781000
S          14.386000    -18.048000     -4.601000
C          15.914000    -19.222000     -2.769000
C          17.240000    -20.426000     -1.068000
C          16.128000    -17.963000     -4.676000
C          16.827000    -18.532000     -3.630000
N          17.327000    -21.584000     -0.504000
S          18.549000    -19.303000     -0.841000
C          18.536000    -21.591000      0.234000
C          19.376000    -20.527000      0.049000
C           3.788000    -22.098000     -3.752000
H           6.120000    -23.637000     -4.563000
H           8.332000    -22.997000     -4.195000
H           7.003000    -19.161000     -2.763000
H          10.168000    -22.584000     -2.898000
H          16.612000    -17.407000     -5.468000
H          17.902000    -18.477000     -3.506000
H          18.725000    -22.516000      0.761000
H          20.349000    -20.366000      0.494000
H           3.597000    -23.018000     -3.186000
C           3.210000    -22.436000     -5.198000
H           3.127000    -21.345000     -3.303000
H           3.638000    -23.395000     -5.518000
H           3.481000    -21.572000     -5.817000
C           1.653000    -22.534000     -5.230000
H           1.293000    -23.366000     -4.612000
C           1.079000    -22.625000     -6.675000
H           1.210000    -21.712000     -4.654000
H           1.549000    -23.453000     -7.219000
H           1.105000    -21.676000     -7.225000
C          -0.366000    -23.101000     -6.593000
H          -0.698000    -23.582000     -7.521000
C          -1.370000    -22.024000     -6.231000
H          -0.476000    -23.983000     -5.951000
H          -1.186000    -21.040000     -6.682000
H          -1.463000    -21.747000     -5.174000
H          -2.391000    -22.348000     -6.465000
C           2.250000    -19.015000     -0.357000
C           1.272000    -19.015000      0.685000
N           2.149000    -19.789000     -1.431000
C           0.187000    -19.846000      0.617000
C           1.141000    -20.685000     -1.460000
C           0.082000    -20.781000     -0.475000
C          -0.929000    -21.860000     -0.706000
C          -1.346000    -22.257000     -1.996000
C          -1.593000    -22.546000      0.299000
N          -2.310000    -23.176000     -2.234000
N          -1.183000    -22.409000      1.560000
C          -2.590000    -23.442000      0.066000
C          -2.930000    -23.773000     -1.250000
S          -2.045000    -23.519000      2.420000
N          -2.926000    -24.130000      1.216000
C          -4.033000    -24.662000     -1.553000
S          -5.406000    -25.081000     -0.368000
C          -4.371000    -25.137000     -2.766000
C          -6.472000    -25.494000     -1.718000
S          -3.453000    -25.145000     -4.325000
C          -5.715000    -25.512000     -2.883000
C          -7.789000    -25.998000     -1.503000
C          -4.956000    -25.826000     -5.063000
C          -6.018000    -25.899000     -4.223000
N          -8.692000    -25.923000     -2.500000
S          -8.440000    -26.287000      0.080000
C          -9.930000    -26.215000     -1.996000
C          -9.997000    -26.353000     -0.641000
C           3.424000    -18.079000     -0.400000
H           1.408000    -18.445000      1.599000
H          -0.557000    -19.829000      1.407000
H           1.283000    -21.358000     -2.304000
H          -0.918000    -21.751000     -2.860000
H          -4.978000    -26.104000     -6.109000
H          -6.991000    -26.239000     -4.557000
H         -10.783000    -26.349000     -2.648000
H         -10.845000    -26.480000      0.019000
H           3.938000    -18.204000     -1.361000
C           4.521000    -18.300000      0.732000
H           3.114000    -17.033000     -0.508000
H           4.691000    -19.373000      0.889000
H           4.253000    -17.806000      1.673000
C           5.843000    -17.702000      0.179000
H           6.658000    -17.801000      0.906000
C           5.750000    -16.225000     -0.274000
H           6.081000    -18.277000     -0.725000
H           5.327000    -15.595000      0.518000
H           5.059000    -15.943000     -1.077000
C           7.106000    -15.664000     -0.731000
H           7.976000    -16.189000     -0.318000
C           7.302000    -14.202000     -0.377000
H           7.244000    -15.652000     -1.820000
H           6.409000    -13.586000     -0.544000
H           8.049000    -13.794000     -1.070000
H           7.615000    -13.981000      0.651000
$end

--------------------------------------------------------------

             Standard Nuclear Orientation (Angstroms)
    I     Atom           X                Y                Z
 ----------------------------------------------------------------
    1      C      -0.8279953835     1.6757647626    -0.4894630231
    2      C      -1.5272556502     2.5563523605     0.3659699444
    3      N      -1.4528493836     0.6512634991    -1.0945676750
    4      C      -2.9620906634     2.3639392058     0.4313584972
    5      C      -2.7826275954     0.5276250344    -0.9917210055
    6      C      -3.6284508947     1.3025705904    -0.2138962622
    7      C      -5.1299404192     1.1976223044    -0.0805881034
    8      C      -5.8655910598     1.5849371382     1.0454067253
    9      C      -5.9829416104     0.7231947124    -1.0740660487
   10      N      -7.2057053359     1.5020130327     1.2456623612
   11      N      -5.5276912649     0.2319085548    -2.2531987953
   12      C      -7.3876796251     0.7112813370    -1.0086964709
   13      C      -7.9743218284     1.0228482958     0.2349280526
   14      S      -6.8106311785    -0.2673068847    -3.0920570212
   15      N      -7.9769887972     0.0849887017    -2.1217257762
   16      C      -9.3544383286     0.7490371445     0.6451169107
   17      S      -9.8436491235     0.3383218774     2.2898268449
   18      C     -10.5288259815     0.9091778782    -0.0492911726
   19      C     -11.5541526807     0.4882160064     1.9648801862
   20      S     -10.6318237553     1.4778652775    -1.6816392055
   21      C     -11.7363389974     0.7801720940     0.6340797545
   22      C     -12.6423432863     0.1829587018     2.8530401852
   23      C     -12.3357144803     1.7064458871    -1.3784539447
   24      C     -12.8259895869     1.2319056195    -0.1780707333
   25      N     -12.4020970854     0.3541287654     4.1098661764
   26      S     -14.1939707853    -0.4560081258     2.3944417796
   27      C     -13.5423128252    -0.1076590845     4.8120300093
   28      C     -14.6392553399    -0.4295353009     4.0603426935
   29      C       0.6812956206     1.6801736726    -0.4928136088
   30      H      -1.1848269901     3.4742971150     0.8350318172
   31      H      -3.4746045325     3.0907153594     1.0535537692
   32      H      -3.1633374682    -0.3447352244    -1.5218205921
   33      H      -5.3126668449     2.0128904739     1.8802910018
   34      H     -12.9742477914     2.1213347673    -2.1470880760
   35      H     -13.8727837011     1.2301309285     0.1016522239
   36      H     -13.4631842168    -0.0198868999     5.8867903114
   37      H     -15.6056698246    -0.7679799933     4.4098755732
   38      H       1.1265960625     1.6864884433     0.5096357117
   39      C       1.2822904067     2.9944529630    -1.1641698584
   40      H       1.1333427242     0.8175306177    -0.9997962278
   41      H       1.1133806684     3.8334275303    -0.4765244733
   42      H       0.7730268462     3.0723418692    -2.1325096460
   43      C       2.8079370122     2.8843794923    -1.4726552976
   44      H       3.3944871319     2.7790834177    -0.5514497322
   45      C       3.3397653402     4.0641378247    -2.3393218463
   46      H       3.0356082234     1.9053446992    -1.9123889596
   47      H       3.0886648188     5.0231432387    -1.8706245624
   48      H       3.0463336939     4.0086550925    -3.3950663871
   49      C       4.8610472116     4.0783680316    -2.2567145282
   50      H       5.2790733794     5.0700404873    -2.4679226333
   51      C       5.5552461253     3.0701547122    -3.1514674387
   52      H       5.2206154629     4.0107872700    -1.2231132930
   53      H       5.1033829879     2.9326914780    -4.1426468191
   54      H       5.6048892105     2.0303109738    -2.8066666792
   55      H       6.6176906284     3.3160190087    -3.2652014510
   56      C       1.4550226568    -3.0023338747    -1.4265306660
   57      C       2.4304877060    -3.9871770467    -1.0789679172
   58      N       1.7233116201    -1.7020429324    -1.4307136536
   59      C       3.6939703397    -3.6115924556    -0.7116018202
   60      C       2.9310005279    -1.3141538172    -0.9716379124
   61      C       4.0081396287    -2.2093769214    -0.5984503572
   62      C       5.2607711559    -1.5546454585    -0.1065520255
   63      C       5.7271048900    -0.3182656843    -0.6060476733
   64      C       6.1138969125    -2.0978014504     0.8414326853
   65      N       6.8918874833     0.2610956449    -0.2343986982
   66      N       5.7221786243    -3.1697051632     1.5303225263
   67      C       7.3045597770    -1.5391125111     1.1897179308
   68      C       7.6783977137    -0.3075974529     0.6414179595
   69      S       6.8737496239    -3.3862309196     2.6886596231
   70      N       7.8466345754    -2.1616274144     2.2975853002
   71      C       8.9671736736     0.2925085439     0.9201083212
   72      S      10.4387101160    -0.6316818772     1.5874669686
   73      C       9.3804215942     1.5169330137     0.5442774101
   74      C      11.5329319280     0.5840781802     0.9136486631
   75      S       8.4486250606     2.9282648346    -0.0985030432
   76      C      10.7713685285     1.6539197050     0.4597122133
   77      C      12.9424349926     0.5186496085     1.1228141786
   78      C      10.0542220870     3.7279395301    -0.3220932270
   79      C      11.1236024522     2.9403045022    -0.0485430536
   80      N      13.7615653273     1.1959630534     0.2949766389
   81      S      13.6962065599    -0.7187154578     2.0788304531
   82      C      15.0479401496     0.7849384272     0.5145730265
   83      C      15.1916923734    -0.2738353509     1.3618577396
   84      C       0.0744841798    -3.3318980704    -1.9181829358
   85      H       2.1773926505    -5.0394717684    -0.9928824282
   86      H       4.4314600408    -4.3678011075    -0.4622377981
   87      H       2.9455949751    -0.2301488210    -0.8708948213
   88      H       5.1535077758     0.1767637940    -1.3881270595
   89      H      10.1160337307     4.7451636368    -0.6872212008
   90      H      12.1408656048     3.2837823581    -0.1937451225
   91      H      15.8850307641     1.2953013803     0.0568854046
   92      H      16.0634243902    -0.8565144397     1.6290680884
   93      H      -0.4181315601    -2.4030253605    -2.2310203084
   94      C      -0.8887604366    -4.0183809969    -0.8530186289
   95      H       0.0931662012    -3.8482123873    -2.8851113242
   96      H      -0.7638165375    -3.5451770555     0.1295011174
   97      H      -0.7315007845    -5.1010903092    -0.7870569218
   98      C      -2.3385929969    -3.7226372795    -1.3237820525
   99      H      -3.0750564598    -4.1733626643    -0.6477471456
  100      C      -2.6539505712    -4.1600351061    -2.7745128137
  101      H      -2.4443436978    -2.6303201145    -1.3117404448
  102      H      -2.3879625373    -5.2117566930    -2.9364543752
  103      H      -2.0878104153    -3.7304664832    -3.6092403873
  104      C      -4.1237433303    -3.9197902551    -3.1543781278
  105      H      -4.8104103574    -3.8715585036    -2.3004132035
  106      C      -4.6882770882    -4.9841501076    -4.0761241561
  107      H      -4.2942210856    -3.0048704586    -3.7365877988
  108      H      -3.9957687586    -5.2889677143    -4.8713049155
  109      H      -5.5380354554    -4.5390246025    -4.6095058226
  110      H      -5.0160595220    -5.9199674539    -3.6066578949
 ----------------------------------------------------------------

    9   -5663.5115391864      8.33E-06 Convergence criterion met
 Total energy in the final basis set = -5663.5115391864

                    Orbital Energies (a.u.)
 --------------------------------------------------------------

 Alpha MOs
 -- Occupied --
-88.994 -88.990 -88.926 -88.926 -88.920 -88.918 -88.909 -88.907
-14.386 -14.386 -14.375 -14.373 -14.350 -14.346 -14.345 -14.339
-14.324 -14.324 -10.268 -10.265 -10.262 -10.260 -10.257 -10.254
-10.248 -10.244 -10.241 -10.239 -10.237 -10.237 -10.234 -10.232
-10.230 -10.229 -10.229 -10.229 -10.227 -10.227 -10.226 -10.226
-10.225 -10.224 -10.223 -10.222 -10.222 -10.221 -10.220 -10.216
-10.212 -10.210 -10.210 -10.204 -10.201 -10.201 -10.196 -10.193
-10.184 -10.181 -10.178 -10.177 -10.176 -10.176 -10.176 -10.175
-10.175 -10.170 -10.168 -10.163  -8.050  -8.045  -7.989  -7.988
 -7.979  -7.977  -7.968  -7.967  -6.015  -6.010  -6.009  -6.009
 -6.005  -6.003  -5.952  -5.952  -5.949  -5.948  -5.946  -5.945
 -5.943  -5.941  -5.940  -5.937  -5.935  -5.934  -5.932  -5.932
 -5.929  -5.929  -5.924  -5.923  -1.047  -1.040  -0.972  -0.969
 -0.967  -0.957  -0.938  -0.935  -0.916  -0.908  -0.903  -0.900
 -0.846  -0.835  -0.831  -0.831  -0.813  -0.811  -0.811  -0.809
 -0.802  -0.800  -0.798  -0.795  -0.782  -0.780  -0.768  -0.767
 -0.748  -0.746  -0.742  -0.738  -0.721  -0.719  -0.708  -0.707
 -0.693  -0.688  -0.673  -0.673  -0.658  -0.654  -0.647  -0.646
 -0.637  -0.635  -0.623  -0.622  -0.610  -0.606  -0.600  -0.597
 -0.591  -0.591  -0.584  -0.578  -0.577  -0.574  -0.567  -0.565
 -0.553  -0.546  -0.540  -0.538  -0.526  -0.523  -0.518  -0.514
 -0.508  -0.504  -0.503  -0.495  -0.484  -0.482  -0.477  -0.475
 -0.475  -0.472  -0.468  -0.466  -0.463  -0.462  -0.447  -0.443
 -0.441  -0.437  -0.436  -0.434  -0.434  -0.432  -0.430  -0.429
 -0.428  -0.424  -0.422  -0.421  -0.418  -0.417  -0.415  -0.411
 -0.410  -0.406  -0.403  -0.401  -0.398  -0.397  -0.396  -0.394
 -0.393  -0.390  -0.389  -0.389  -0.387  -0.383  -0.381  -0.378
 -0.376  -0.376  -0.374  -0.373  -0.362  -0.360  -0.357  -0.352
 -0.352  -0.352  -0.347  -0.347  -0.345  -0.341  -0.340  -0.335
 -0.334  -0.333  -0.331  -0.328  -0.326  -0.323  -0.320  -0.319
 -0.309  -0.308  -0.308  -0.308  -0.301  -0.300  -0.300  -0.298
 -0.296  -0.294  -0.293  -0.289  -0.287  -0.286  -0.284  -0.281
 -0.279  -0.272  -0.267  -0.263  -0.254  -0.252  -0.251  -0.247
 -0.245  -0.242  -0.234  -0.229  -0.196  -0.192

          Ground-State Mulliken Net Atomic Charges

     Atom                 Charge (a.u.)
  ----------------------------------------
      1 C                     0.279680
      2 C                    -0.108400
      3 N                    -0.478716
      4 C                    -0.112143
      5 C                     0.073233
      6 C                     0.078783
      7 C                     0.092228
      8 C                     0.037382
      9 C                     0.186961
     10 N                    -0.498800
     11 N                    -0.553680
     12 C                     0.191662
     13 C                     0.243850
     14 S                     0.632980
     15 N                    -0.516597
     16 C                    -0.211686
     17 S                     0.344343
     18 C                    -0.130628
     19 C                    -0.220752
     20 S                     0.280436
     21 C                     0.141119
     22 C                     0.061732
     23 C                    -0.298314
     24 C                    -0.080331
     25 N                    -0.415519
     26 S                     0.270389
     27 C                     0.097760
     28 C                    -0.297082
     29 C                    -0.263525
     30 H                     0.097600
     31 H                     0.095146
     32 H                     0.115511
     33 H                     0.104612
     34 H                     0.120179
     35 H                     0.115021
     36 H                     0.110669
     37 H                     0.139269
     38 H                     0.104507
     39 C                    -0.185214
     40 H                     0.149311
     41 H                     0.092683
     42 H                     0.106457
     43 C                    -0.187091
     44 H                     0.091388
     45 C                    -0.167471
     46 H                     0.097185
     47 H                     0.091652
     48 H                     0.098017
     49 C                    -0.187125
     50 H                     0.083529
     51 C                    -0.323927
     52 H                     0.101692
     53 H                     0.095424
     54 H                     0.111551
     55 H                     0.104918
     56 C                     0.275770
     57 C                    -0.121719
     58 N                    -0.473011
     59 C                    -0.043613
     60 C                     0.066004
     61 C                     0.029251
     62 C                     0.061227
     63 C                     0.049801
     64 C                     0.200452
     65 N                    -0.530026
     66 N                    -0.564984
     67 C                     0.193135
     68 C                     0.316824
     69 S                     0.605702
     70 N                    -0.538203
     71 C                    -0.224463
     72 S                     0.290902
     73 C                    -0.098292
     74 C                    -0.214213
     75 S                     0.272300
     76 C                     0.145280
     77 C                     0.037450
     78 C                    -0.305559
     79 C                    -0.044042
     80 N                    -0.427334
     81 S                     0.282507
     82 C                     0.128696
     83 C                    -0.309360
     84 C                    -0.252171
     85 H                     0.093649
     86 H                     0.109656
     87 H                     0.094778
     88 H                     0.114963
     89 H                     0.125097
     90 H                     0.124934
     91 H                     0.113841
     92 H                     0.137168
     93 H                     0.143520
     94 C                    -0.182017
     95 H                     0.108581
     96 H                     0.106797
     97 H                     0.092665
     98 C                    -0.199466
     99 H                     0.090094
    100 C                    -0.170929
    101 H                     0.119422
    102 H                     0.089670
    103 H                     0.099887
    104 C                    -0.181829
    105 H                     0.092992
    106 C                    -0.323298
    107 H                     0.098351
    108 H                     0.097224
    109 H                     0.091274
    110 H                     0.102801
  ----------------------------------------
  Sum of atomic charges =     0.000000

                    Cartesian Multipole Moments
 -----------------------------------------------------------------
    Charge (ESU x 10^10)
                 0.0000
    Dipole Moment (Debye)
         X       0.0981      Y      -1.7105      Z       0.1788
       Tot       1.7227
    Quadrupole Moments (Debye-Ang)
        XX    -342.9641     XY      -1.9939     YY    -425.3348
        XZ      15.4211     YZ      -7.0594     ZZ    -442.6647

 Total job time:  87.68s(wall), 960.54s(cpu)
        *  Thank you very much for using Q-Chem.  Have a nice day.  *
