 Q-Chem 4.4, Q-Chem, Inc., Pleasanton, CA (2016)
 Q-Chem 4.4.2 for Intel X86 Linux

User input:
--------------------------------------------------------------
$comment
SP
$end

$rem
MEM_STATIC 5000
MEM_TOTAL 20000
JOBTYPE SP
EXCHANGE B3LYP
BASIS 6-31g(d,p)
$end

$molecule
0 1
C          -3.582000    -19.577000      2.377000
C          -3.451000    -19.835000      1.002000
N          -3.181000    -18.448000      2.965000
C          -2.814000    -18.889000      0.213000
C          -2.614000    -17.444000      2.229000
C          -2.463000    -17.605000      0.801000
C          -2.002000    -16.512000     -0.040000
C          -0.799000    -16.606000     -0.867000
C          -2.452000    -15.191000      0.088000
N          -0.222000    -15.589000     -1.498000
N          -3.494000    -14.777000      0.897000
C          -1.830000    -14.134000     -0.622000
C          -0.648000    -14.340000     -1.380000
S          -3.637000    -13.175000      0.680000
N          -2.404000    -12.925000     -0.381000
C           0.217000    -13.229000     -1.877000
S           0.003000    -11.532000     -1.528000
C           1.399000    -13.433000     -2.545000
C           1.650000    -11.113000     -2.051000
S           2.244000    -14.995000     -2.967000
C           2.189000    -12.255000     -2.624000
C           2.412000     -9.976000     -1.715000
C           3.664000    -13.967000     -3.299000
C           3.528000    -12.614000     -3.039000
N           3.399000     -9.670000     -2.475000
S           1.951000     -8.850000     -0.500000
C           3.896000     -8.448000     -2.068000
C           3.182000     -7.796000     -1.081000
C          -4.059000    -20.703000      3.370000
H          -3.789000    -20.825000      0.708000
H          -2.647000    -19.141000     -0.830000
H          -2.321000    -16.546000      2.772000
H          -0.256000    -17.548000     -0.931000
H           4.591000    -14.448000     -3.580000
H           4.313000    -11.879000     -3.179000
H           4.728000     -7.988000     -2.586000
H           3.333000     -6.782000     -0.735000
H          -3.255000    -21.113000      3.992000
C          -5.167000    -21.723000      2.866000
H          -4.518000    -20.084000      4.151000
H          -4.727000    -22.526000      2.262000
H          -5.990000    -21.241000      2.325000
C          -5.974000    -22.340000      4.028000
H          -5.247000    -22.850000      4.672000
C          -7.036000    -23.307000      3.509000
H          -6.429000    -21.578000      4.673000
H          -6.759000    -23.889000      2.621000
H          -7.945000    -22.748000      3.255000
C          -7.669000    -24.201000      4.611000
H          -6.954000    -24.964000      4.943000
C          -8.839000    -25.113000      4.069000
H          -8.024000    -23.655000      5.494000
H          -8.539000    -25.497000      3.086000
H          -9.815000    -24.615000      4.005000
H          -8.919000    -26.068000      4.603000
C           2.250000    -19.015000     -0.357000
C           1.272000    -19.015000      0.685000
N           2.149000    -19.789000     -1.431000
C           0.187000    -19.846000      0.617000
C           1.141000    -20.685000     -1.460000
C           0.082000    -20.781000     -0.475000
C          -0.929000    -21.860000     -0.706000
C          -1.346000    -22.257000     -1.996000
C          -1.593000    -22.546000      0.299000
N          -2.310000    -23.176000     -2.234000
N          -1.183000    -22.409000      1.560000
C          -2.590000    -23.442000      0.066000
C          -2.930000    -23.773000     -1.250000
S          -2.045000    -23.519000      2.420000
N          -2.926000    -24.130000      1.216000
C          -4.033000    -24.662000     -1.553000
S          -5.406000    -25.081000     -0.368000
C          -4.371000    -25.137000     -2.766000
C          -6.472000    -25.494000     -1.718000
S          -3.453000    -25.145000     -4.325000
C          -5.715000    -25.512000     -2.883000
C          -7.789000    -25.998000     -1.503000
C          -4.956000    -25.826000     -5.063000
C          -6.018000    -25.899000     -4.223000
N          -8.692000    -25.923000     -2.500000
S          -8.440000    -26.287000      0.080000
C          -9.930000    -26.215000     -1.996000
C          -9.997000    -26.353000     -0.641000
C           3.424000    -18.079000     -0.400000
H           1.408000    -18.445000      1.599000
H          -0.557000    -19.829000      1.407000
H           1.283000    -21.358000     -2.304000
H          -0.918000    -21.751000     -2.860000
H          -4.978000    -26.104000     -6.109000
H          -6.991000    -26.239000     -4.557000
H         -10.783000    -26.349000     -2.648000
H         -10.845000    -26.480000      0.019000
H           3.938000    -18.204000     -1.361000
C           4.521000    -18.300000      0.732000
H           3.114000    -17.033000     -0.508000
H           4.691000    -19.373000      0.889000
H           4.253000    -17.806000      1.673000
C           5.843000    -17.702000      0.179000
H           6.658000    -17.801000      0.906000
C           5.750000    -16.225000     -0.274000
H           6.081000    -18.277000     -0.725000
H           5.327000    -15.595000      0.518000
H           5.059000    -15.943000     -1.077000
C           7.106000    -15.664000     -0.731000
H           7.976000    -16.189000     -0.318000
C           7.302000    -14.202000     -0.377000
H           7.244000    -15.652000     -1.820000
H           6.409000    -13.586000     -0.544000
H           8.049000    -13.794000     -1.070000
H           7.615000    -13.981000      0.651000
$end

--------------------------------------------------------------

             Standard Nuclear Orientation (Angstroms)
    I     Atom           X                Y                Z
 ----------------------------------------------------------------
    1      C      -1.8282046831     2.1499356305     2.0447864296
    2      C      -1.8680196985     1.3991405717     0.8577432357
    3      N      -0.7171214550     2.6936074917     2.5458861876
    4      C      -0.6752820279     1.1544482400     0.1938844316
    5      C       0.4793200161     2.5528779887     1.8978707455
    6      C       0.5339523927     1.8211476771     0.6530847982
    7      C       1.7499289353     1.7697304910    -0.1426590806
    8      C       2.4185089195     0.5135321982    -0.4816880674
    9      C       2.5638271209     2.8835585308    -0.3894015403
   10      N       3.6239439499     0.4115098337    -1.0311394525
   11      N       2.2501527508     4.1900007297    -0.0631222572
   12      C       3.8332147514     2.7407755573    -1.0029983671
   13      C       4.3933918301     1.4639002931    -1.2674131934
   14      S       3.4934037668     5.1022311959    -0.5691899284
   15      N       4.4767631118     3.9270791968    -1.1696332458
   16      C       5.8308986148     1.2488132205    -1.6092710512
   17      S       7.0716209871     2.4766373959    -1.6307603319
   18      C       6.3864105418     0.0064510719    -1.7906733411
   19      C       8.3921019590     1.2858911349    -1.6184175301
   20      S       5.6218041225    -1.6444141350    -1.6424367332
   21      C       7.8065704876     0.0395175050    -1.7818790568
   22      C       9.7336863026     1.4712048352    -1.2283928110
   23      C       7.2970944976    -2.2581004796    -1.6283218609
   24      C       8.3073730994    -1.3117655237    -1.6505096525
   25      N      10.6011654654     0.6222296209    -1.6432735018
   26      S      10.3057725108     2.8888558023    -0.4412428215
   27      C      11.8558218528     1.0785587626    -1.2917865686
   28      C      11.9117336807     2.3380869963    -0.7265153983
   29      C      -3.0909468018     2.2514530152     2.9810719428
   30      H      -2.8500324082     0.9944965006     0.6281910331
   31      H      -0.7128579468     0.5033563042    -0.6743950980
   32      H       1.3429645186     3.0326213871     2.3572904284
   33      H       1.9631506774    -0.4362632004    -0.2044759244
   34      H       7.4533029530    -3.3198457315    -1.4943556771
   35      H       9.3667509094    -1.5426518125    -1.6290579133
   36      H      12.7436838960     0.5201972697    -1.5602664290
   37      H      12.8028538931     2.9147780055    -0.5166458028
   38      H      -3.0101996986     1.6558993467     3.8976938568
   39      C      -4.5228584111     2.3265535058     2.2983794354
   40      H      -2.9018567623     3.2260769243     3.4481438783
   41      H      -4.8856355915     1.3300233550     2.0181199558
   42      H      -4.5612678698     3.0061698991     1.4387398183
   43      C      -5.5698773342     3.0184713813     3.1968130880
   44      H      -5.6164370375     2.4331989800     4.1234486206
   45      C      -6.9311163248     3.0830121852     2.5074968361
   46      H      -5.2520645488     4.0187290380     3.5164592263
   47      H      -7.1864819074     2.2248780902     1.8731536370
   48      H      -6.9758129107     3.9758920469     1.8718508909
   49      C      -8.1009641385     3.4696658735     3.4542196140
   50      H      -8.3393925511     2.6375895037     4.1283255455
   51      C      -9.4773496565     3.6366413574     2.6978532389
   52      H      -7.9192606765     4.3642057444     4.0629989429
   53      H      -9.5510359873     2.8356114460     1.9517524376
   54      H      -9.6235122492     4.6162759626     2.2249594487
   55      H     -10.3412570363     3.3662762585     3.3176497802
   56      C       2.1557898502    -2.9036992116     1.4191775730
   57      C       1.5238975011    -1.7875019254     2.0493074624
   58      N       1.5404313948    -3.6551531360     0.5139682211
   59      C       0.2291347650    -1.4631751076     1.7479578773
   60      C       0.2338019935    -3.4097326847     0.2854744360
   61      C      -0.5188825674    -2.3073820556     0.8504620838
   62      C      -1.9627057224    -2.2359278921     0.4631740777
   63      C      -2.4353108031    -2.6233439860    -0.8104629223
   64      C      -2.9734205034    -1.7471062902     1.2762091772
   65      N      -3.7209671411    -2.5010402400    -1.2137377347
   66      N      -2.7153607673    -1.5090493017     2.5621811997
   67      C      -4.2594823881    -1.5856121292     0.8625928514
   68      C      -4.6322988903    -2.0036008784    -0.4193237844
   69      S      -4.1757467721    -1.1609056461     3.2410130729
   70      N      -5.0945237395    -1.2887064170     1.9224480016
   71      C      -5.9683186586    -1.7851600397    -0.9351471831
   72      S      -7.1785451579    -0.5530449039    -0.2407704029
   73      C      -6.4649362454    -2.2460598196    -2.0979800883
   74      C      -8.0309492275    -0.4875397048    -1.7894928994
   75      S      -5.8376840045    -3.5138362384    -3.2260610154
   76      C      -7.5314694598    -1.4945213641    -2.6062584101
   77      C      -9.2107624201     0.2957409091    -1.9604967307
   78      C      -7.2018010228    -3.0434780186    -4.3148042842
   79      C      -7.9272449037    -1.9799899010    -3.8887794032
   80      N      -9.5957332176     0.6406357106    -3.2046382263
   81      S      -9.9299242455     1.2090080797    -0.6713263215
   82      C     -10.5772970593     1.5895338839    -3.1149237827
   83      C     -10.8232723435     2.0661301395    -1.8611653655
   84      C       3.5950359708    -3.2775272120     1.6314138340
   85      H       2.0036703707    -1.2343817780     2.8509732881
   86      H      -0.2374813871    -0.6056375332     2.2221136272
   87      H      -0.1762003890    -4.2011831135    -0.3397721274
   88      H      -1.7165128893    -2.9833772336    -1.5449162018
   89      H      -7.3684420431    -3.5691034747    -5.2463796436
   90      H      -8.7379368416    -1.5663416574    -4.4766218246
   91      H     -11.1287205129     1.9095913046    -3.9890887684
   92      H     -11.4579600114     2.8733279016    -1.5199376746
   93      H       3.8538724420    -4.0867359666     0.9374924604
   94      C       3.9620625694    -3.7977604032     3.0902911087
   95      H       4.2806293827    -2.5078278540     1.2580446177
   96      H       3.1709508343    -4.4597902839     3.4654399587
   97      H       4.1469132527    -2.9753418543     3.7908615586
   98      C       5.2452486241    -4.6582365867     2.9350130138
   99      H       5.5792042352    -5.0509942820     3.9028818285
  100      C       6.4313972073    -3.9400397680     2.2475307461
  101      H       4.9744369174    -5.4893504088     2.2713897515
  102      H       6.6492855415    -2.9820981259     2.7353478063
  103      H       6.3232505534    -3.5667510600     1.2224581430
  104      C       7.6970436107    -4.8107062041     2.1986928662
  105      H       7.7361184822    -5.5966733591     2.9627758367
  106      C       8.9796050120    -4.0168028498     2.3597199320
  107      H       7.8619589160    -5.3112156978     1.2356756344
  108      H       8.9845653822    -3.0720341851     1.8009878271
  109      H       9.7886234020    -4.6054897643     1.9084340346
  110      H       9.2672160265    -3.7464236373     3.3833258062
 ----------------------------------------------------------------

   10   -5663.5125987933      4.11E-06 Convergence criterion met
 Total energy in the final basis set = -5663.5125987933

                    Orbital Energies (a.u.)
 --------------------------------------------------------------

 Alpha MOs
 -- Occupied --
-88.994 -88.989 -88.929 -88.925 -88.924 -88.923 -88.911 -88.911
-14.390 -14.384 -14.380 -14.379 -14.350 -14.348 -14.347 -14.341
-14.331 -14.327 -10.270 -10.264 -10.262 -10.261 -10.256 -10.254
-10.252 -10.248 -10.244 -10.242 -10.242 -10.242 -10.241 -10.237
-10.236 -10.234 -10.233 -10.231 -10.231 -10.230 -10.230 -10.229
-10.229 -10.228 -10.225 -10.225 -10.225 -10.224 -10.223 -10.221
-10.219 -10.212 -10.211 -10.210 -10.200 -10.198 -10.195 -10.195
-10.192 -10.188 -10.186 -10.183 -10.181 -10.180 -10.180 -10.179
-10.175 -10.174 -10.174 -10.166  -8.049  -8.044  -7.991  -7.987
 -7.982  -7.982  -7.970  -7.969  -6.014  -6.010  -6.008  -6.007
 -6.004  -6.002  -5.955  -5.952  -5.951  -5.948  -5.948  -5.947
 -5.946  -5.945  -5.943  -5.943  -5.939  -5.938  -5.935  -5.933
 -5.931  -5.930  -5.926  -5.925  -1.044  -1.029  -0.984  -0.972
 -0.970  -0.964  -0.942  -0.935  -0.911  -0.906  -0.904  -0.894
 -0.838  -0.835  -0.835  -0.833  -0.816  -0.814  -0.813  -0.805
 -0.804  -0.803  -0.801  -0.796  -0.784  -0.782  -0.770  -0.765
 -0.750  -0.749  -0.740  -0.736  -0.724  -0.720  -0.711  -0.708
 -0.692  -0.690  -0.677  -0.676  -0.661  -0.653  -0.650  -0.642
 -0.640  -0.634  -0.629  -0.624  -0.614  -0.612  -0.599  -0.595
 -0.593  -0.590  -0.584  -0.582  -0.579  -0.574  -0.574  -0.566
 -0.556  -0.549  -0.544  -0.538  -0.527  -0.520  -0.517  -0.510
 -0.507  -0.506  -0.499  -0.496  -0.489  -0.486  -0.483  -0.478
 -0.477  -0.475  -0.469  -0.467  -0.464  -0.463  -0.450  -0.449
 -0.447  -0.442  -0.441  -0.436  -0.435  -0.435  -0.433  -0.432
 -0.430  -0.426  -0.426  -0.424  -0.421  -0.419  -0.415  -0.412
 -0.411  -0.407  -0.404  -0.403  -0.400  -0.400  -0.398  -0.398
 -0.396  -0.393  -0.391  -0.390  -0.389  -0.386  -0.384  -0.382
 -0.381  -0.377  -0.373  -0.373  -0.364  -0.361  -0.357  -0.355
 -0.355  -0.354  -0.350  -0.347  -0.346  -0.344  -0.342  -0.338
 -0.337  -0.335  -0.333  -0.332  -0.329  -0.328  -0.327  -0.320
 -0.313  -0.312  -0.308  -0.307  -0.303  -0.303  -0.302  -0.300
 -0.300  -0.299  -0.295  -0.292  -0.290  -0.288  -0.287  -0.282
 -0.276  -0.272  -0.270  -0.266  -0.254  -0.253  -0.251  -0.250
 -0.248  -0.242  -0.233  -0.230  -0.195  -0.194

          Ground-State Mulliken Net Atomic Charges

     Atom                 Charge (a.u.)
  ----------------------------------------
      1 C                     0.273040
      2 C                    -0.089382
      3 N                    -0.490622
      4 C                    -0.096925
      5 C                     0.097203
      6 C                     0.008478
      7 C                    -0.000259
      8 C                     0.067591
      9 C                     0.219002
     10 N                    -0.521585
     11 N                    -0.549360
     12 C                     0.189128
     13 C                     0.341636
     14 S                     0.612348
     15 N                    -0.572125
     16 C                    -0.216334
     17 S                     0.318355
     18 C                    -0.118468
     19 C                    -0.223719
     20 S                     0.289114
     21 C                     0.137490
     22 C                     0.066100
     23 C                    -0.309069
     24 C                    -0.058651
     25 N                    -0.419088
     26 S                     0.270713
     27 C                     0.108493
     28 C                    -0.305843
     29 C                    -0.246447
     30 H                     0.093543
     31 H                     0.111842
     32 H                     0.118785
     33 H                     0.124981
     34 H                     0.126659
     35 H                     0.125767
     36 H                     0.110354
     37 H                     0.137887
     38 H                     0.116838
     39 C                    -0.205523
     40 H                     0.123188
     41 H                     0.110238
     42 H                     0.107441
     43 C                    -0.179067
     44 H                     0.086964
     45 C                    -0.183805
     46 H                     0.099125
     47 H                     0.109857
     48 H                     0.097662
     49 C                    -0.181042
     50 H                     0.092828
     51 C                    -0.344374
     52 H                     0.096211
     53 H                     0.110106
     54 H                     0.102900
     55 H                     0.100733
     56 C                     0.273753
     57 C                    -0.134042
     58 N                    -0.471209
     59 C                    -0.051452
     60 C                     0.056245
     61 C                     0.021552
     62 C                     0.058146
     63 C                     0.044148
     64 C                     0.207002
     65 N                    -0.522052
     66 N                    -0.563976
     67 C                     0.185166
     68 C                     0.314904
     69 S                     0.619912
     70 N                    -0.545534
     71 C                    -0.225962
     72 S                     0.292900
     73 C                    -0.095588
     74 C                    -0.217783
     75 S                     0.270205
     76 C                     0.146428
     77 C                     0.031123
     78 C                    -0.302472
     79 C                    -0.043681
     80 N                    -0.425581
     81 S                     0.291883
     82 C                     0.129851
     83 C                    -0.313084
     84 C                    -0.250946
     85 H                     0.098083
     86 H                     0.128287
     87 H                     0.106696
     88 H                     0.115596
     89 H                     0.126997
     90 H                     0.125760
     91 H                     0.115053
     92 H                     0.139224
     93 H                     0.121052
     94 C                    -0.184580
     95 H                     0.133267
     96 H                     0.103623
     97 H                     0.095934
     98 C                    -0.187104
     99 H                     0.091496
    100 C                    -0.177121
    101 H                     0.102736
    102 H                     0.093134
    103 H                     0.103876
    104 C                    -0.178583
    105 H                     0.093647
    106 C                    -0.326790
    107 H                     0.092755
    108 H                     0.102656
    109 H                     0.092170
    110 H                     0.101368
  ----------------------------------------
  Sum of atomic charges =     0.000000

                    Cartesian Multipole Moments
 -----------------------------------------------------------------
    Charge (ESU x 10^10)
                 0.0000
    Dipole Moment (Debye)
         X      -0.6730      Y       2.0258      Z       1.7672
       Tot       2.7713
    Quadrupole Moments (Debye-Ang)
        XX    -373.1316     XY      -3.8362     YY    -440.2671
        XZ      13.4443     YZ      -1.2893     ZZ    -446.1510

 Total job time:  105.64s(wall), 1166.89s(cpu)
        *  Thank you very much for using Q-Chem.  Have a nice day.  *
