 Q-Chem 4.4, Q-Chem, Inc., Pleasanton, CA (2016)
 Q-Chem 4.4.2 for Intel X86 Linux

User input:
--------------------------------------------------------------
$comment
SP
$end

$rem
MEM_STATIC 5000
MEM_TOTAL 20000
JOBTYPE SP
EXCHANGE B3LYP
BASIS 6-31g(d,p)
$end

$molecule
0 1
C         -12.902000    -25.809000      4.909000
C         -12.206000    -26.572000      3.942000
N         -13.824000    -24.943000      4.516000
C         -12.404000    -26.471000      2.503000
C         -14.009000    -24.768000      3.182000
C         -13.370000    -25.522000      2.169000
C         -13.529000    -25.157000      0.757000
C         -13.764000    -26.149000     -0.108000
C         -13.297000    -23.859000      0.214000
N         -13.792000    -25.979000     -1.496000
N         -13.009000    -22.835000      0.948000
C         -13.437000    -23.635000     -1.155000
C         -13.588000    -24.723000     -2.032000
S         -12.875000    -21.603000     -0.122000
N         -13.147000    -22.356000     -1.526000
C         -13.699000    -24.662000     -3.485000
S         -14.836000    -25.605000     -4.478000
C         -13.053000    -23.734000     -4.229000
C         -14.372000    -24.724000     -5.908000
S         -11.587000    -22.829000     -3.804000
C         -13.345000    -23.852000     -5.600000
C         -14.892000    -24.846000     -7.252000
C         -11.513000    -22.472000     -5.577000
C         -12.449000    -23.059000     -6.381000
N         -15.661000    -25.924000     -7.462000
S         -14.817000    -23.643000     -8.515000
C         -16.140000    -25.940000     -8.777000
C         -15.738000    -24.807000     -9.525000
C         -12.646000    -25.854000      6.437000
H         -11.379000    -27.189000      4.282000
H         -11.750000    -27.002000      1.818000
H         -14.695000    -23.971000      2.900000
H         -13.744000    -27.192000      0.206000
H         -10.777000    -21.730000     -5.855000
H         -12.496000    -23.060000     -7.464000
H         -16.688000    -26.820000     -9.086000
H         -15.929000    -24.636000    -10.576000
H         -13.630000    -26.033000      6.886000
C         -12.077000    -24.515000      6.935000
H         -12.132000    -26.764000      6.769000
H         -12.641000    -23.625000      6.631000
H         -11.056000    -24.474000      6.534000
C         -12.146000    -24.495000      8.417000
H         -13.225000    -24.599000      8.582000
C         -11.591000    -23.251000      9.090000
H         -11.667000    -25.365000      8.882000
H         -12.317000    -22.464000      8.852000
H         -10.633000    -22.951000      8.647000
C         -11.368000    -23.396000     10.622000
H         -10.759000    -24.278000     10.858000
C         -12.726000    -23.350000     11.350000
H         -10.770000    -22.516000     10.891000
H         -13.245000    -24.260000     11.025000
H         -13.368000    -22.530000     11.005000
H         -12.692000    -23.404000     12.445000
C           2.250000    -19.015000     -0.357000
C           1.272000    -19.015000      0.685000
N           2.149000    -19.789000     -1.431000
C           0.187000    -19.846000      0.617000
C           1.141000    -20.685000     -1.460000
C           0.082000    -20.781000     -0.475000
C          -0.929000    -21.860000     -0.706000
C          -1.346000    -22.257000     -1.996000
C          -1.593000    -22.546000      0.299000
N          -2.310000    -23.176000     -2.234000
N          -1.183000    -22.409000      1.560000
C          -2.590000    -23.442000      0.066000
C          -2.930000    -23.773000     -1.250000
S          -2.045000    -23.519000      2.420000
N          -2.926000    -24.130000      1.216000
C          -4.033000    -24.662000     -1.553000
S          -5.406000    -25.081000     -0.368000
C          -4.371000    -25.137000     -2.766000
C          -6.472000    -25.494000     -1.718000
S          -3.453000    -25.145000     -4.325000
C          -5.715000    -25.512000     -2.883000
C          -7.789000    -25.998000     -1.503000
C          -4.956000    -25.826000     -5.063000
C          -6.018000    -25.899000     -4.223000
N          -8.692000    -25.923000     -2.500000
S          -8.440000    -26.287000      0.080000
C          -9.930000    -26.215000     -1.996000
C          -9.997000    -26.353000     -0.641000
C           3.424000    -18.079000     -0.400000
H           1.408000    -18.445000      1.599000
H          -0.557000    -19.829000      1.407000
H           1.283000    -21.358000     -2.304000
H          -0.918000    -21.751000     -2.860000
H          -4.978000    -26.104000     -6.109000
H          -6.991000    -26.239000     -4.557000
H         -10.783000    -26.349000     -2.648000
H         -10.845000    -26.480000      0.019000
H           3.938000    -18.204000     -1.361000
C           4.521000    -18.300000      0.732000
H           3.114000    -17.033000     -0.508000
H           4.691000    -19.373000      0.889000
H           4.253000    -17.806000      1.673000
C           5.843000    -17.702000      0.179000
H           6.658000    -17.801000      0.906000
C           5.750000    -16.225000     -0.274000
H           6.081000    -18.277000     -0.725000
H           5.327000    -15.595000      0.518000
H           5.059000    -15.943000     -1.077000
C           7.106000    -15.664000     -0.731000
H           7.976000    -16.189000     -0.318000
C           7.302000    -14.202000     -0.377000
H           7.244000    -15.652000     -1.820000
H           6.409000    -13.586000     -0.544000
H           8.049000    -13.794000     -1.070000
H           7.615000    -13.981000      0.651000
$end

--------------------------------------------------------------

             Standard Nuclear Orientation (Angstroms)
    I     Atom           X                Y                Z
 ----------------------------------------------------------------
    1      C      -5.2113389236     6.1231286876     0.6565914297
    2      C      -4.8775843426     5.1199513223     1.5967600601
    3      N      -5.8479387373     5.7884187370    -0.4557030125
    4      C      -5.1616162111     3.7010365546     1.4351036975
    5      C      -6.0872022637     4.4710867636    -0.6832891213
    6      C      -5.8086484037     3.4267354972     0.2303542332
    7      C      -5.9709379754     2.0246459920    -0.1697171535
    8      C      -6.5801349041     1.2084831591     0.6964648899
    9      C      -5.3945572623     1.4308735643    -1.3310511182
   10      N      -6.6772862866    -0.1759261272     0.5226818727
   11      N      -4.7369204389     2.1112120966    -2.2113517999
   12      C      -5.5790780903     0.0735848215    -1.5911594279
   13      C      -6.1398803674    -0.7592618350    -0.6075226795
   14      S      -4.3208293324     1.0026007945    -3.3420724426
   15      N      -4.9384391012    -0.3533464264    -2.7158342232
   16      C      -6.3553693448    -2.1985371950    -0.7039692395
   17      S      -7.8137765657    -3.0663379976    -0.1672783183
   18      C      -5.5209086173    -3.0184593769    -1.3847327152
   19      C      -7.2272950414    -4.5527696192    -0.8622009441
   20      S      -3.8138509872    -2.7435474377    -1.7837110018
   21      C      -5.9561765449    -4.3560245572    -1.3676968870
   22      C      -7.8770442452    -5.8438513350    -0.9127378150
   23      C      -3.7904592773    -4.5249102462    -2.1041066515
   24      C      -4.9307295872    -5.2307256035    -1.8420202120
   25      N      -8.9597467014    -5.9597863764    -0.1305233574
   26      S      -7.5430204254    -7.1389103595    -2.0349023353
   27      C      -9.5350282549    -7.2281918951    -0.2688005221
   28      C      -8.8676733047    -8.0364700199    -1.2207043215
   29      C      -4.8470264607     7.6243026035     0.7834705198
   30      H      -4.2577955769     5.4036421440     2.4426911468
   31      H      -4.7699847636     2.9764078234     2.1425215452
   32      H      -6.5122481093     4.2285212848    -1.6558255050
   33      H      -6.8589577258     1.5461240383     1.6940126184
   34      H      -2.8874157688    -4.8836391721    -2.5788381328
   35      H      -5.0720600286    -6.3053652440    -1.8585837096
   36      H     -10.3557022406    -7.4666730862     0.3943781346
   37      H      -9.0886269758    -9.0713152775    -1.4456437976
   38      H      -5.7935489405     8.1601889061     0.6462879198
   39      C      -3.8462896335     8.0375282905    -0.3085259703
   40      H      -4.6154884909     7.9342531628     1.8095508380
   41      H      -4.1288664848     7.7602501395    -1.3312083013
   42      H      -2.9035914891     7.5498076900    -0.0285762887
   43      C      -3.7731596897     9.5190082134    -0.3453261006
   44      H      -4.8114318937     9.7782342180    -0.5842292378
   45      C      -2.7997291328    10.1101559821    -1.3510433901
   46      H      -3.5503729868     9.9634000951     0.6321440731
   47      H      -3.2618062671     9.9150892889    -2.3265036441
   48      H      -1.8394729491     9.5793820373    -1.3368983826
   49      C      -2.4975017194    11.6206852866    -1.1395302447
   50      H      -2.1759292270    11.8261839467    -0.1105198304
   51      C      -3.7026023761    12.4606895539    -1.6068515884
   52      H      -1.6331049829    11.8150520167    -1.7871449883
   53      H      -4.5066443942    12.2045584368    -0.9061381777
   54      H      -4.0844679314    12.1510275480    -2.5876049416
   55      H      -3.5896740863    13.5497953767    -1.5421004642
   56      C      10.7715015432    -0.5903315196    -1.0611275982
   57      C       9.9394318752     0.5311124448    -1.3648898445
   58      N      10.3384875383    -1.6316754758    -0.3605174096
   59      C       8.6476620083     0.5773226489    -0.9158851364
   60      C       9.1027207731    -1.5515447270     0.1744410608
   61      C       8.1589784030    -0.4775012562    -0.0636827759
   62      C       6.8452106305    -0.5936413002     0.6435998622
   63      C       6.2118079491    -1.8327285586     0.8866262172
   64      C       6.0925762650     0.4816066955     1.0895822158
   65      N       4.9918371902    -1.9639390577     1.4566754715
   66      N       6.6355727428     1.6990393332     1.0911939522
   67      C       4.8490234187     0.3576104257     1.6274625403
   68      C       4.3067403430    -0.9156383827     1.8318727595
   69      S       5.5503252100     2.6576044148     1.8774094297
   70      N       4.4189116684     1.5492944721     2.1784915921
   71      C       2.9588786119    -1.1004734248     2.3297118510
   72      S       1.6351168431     0.2078512363     2.3004482080
   73      C       2.3826988973    -2.2676310108     2.6717617097
   74      C       0.3775513391    -1.0351132558     2.3551590354
   75      S       3.1094243544    -3.8986812114     2.9629907487
   76      C       0.9840131300    -2.2597170544     2.6064509625
   77      C      -1.0062828974    -0.6955405255     2.4216659265
   78      C       1.4094206555    -4.4878959033     3.1368512402
   79      C       0.4570950079    -3.5586045820     2.8755726511
   80      N      -1.9258037209    -1.6132918991     2.0649351157
   81      S      -1.5710984313     0.9441663879     2.4962021648
   82      C      -3.1429428113    -0.9980312187     1.9556157222
   83      C      -3.1285898507     0.3608138959     2.0691584335
   84      C      12.1703413892    -0.7573848763    -1.5822429994
   85      H      10.3275712854     1.4153056109    -1.8612186098
   86      H       8.0197461201     1.4273356674    -1.1631188432
   87      H       8.9515841697    -2.3871528826     0.8558702482
   88      H       6.6975935122    -2.7427747594     0.5379941776
   89      H       1.2085248978    -5.5207549890     3.3912662626
   90      H      -0.5991217941    -3.7994307395     2.8927140930
   91      H      -4.0496844284    -1.5711012087     1.8139138296
   92      H      -3.9114313740     1.0939077006     1.9257512409
   93      H      12.5317497188    -1.7553015795    -1.3049556522
   94      C      13.2397854208     0.2819693078    -1.0257303372
   95      H      12.1941908776    -0.8651347494    -2.6729772322
   96      H      13.0794625129     0.4511794683     0.0469030982
   97      H      13.2244988584     1.2295265329    -1.5764050381
   98      C      14.6275675738    -0.3970808951    -1.1808061818
   99      H      15.4322890784     0.2598810624    -0.8295523043
  100      C      14.9604952935    -0.8779971021    -2.6137282786
  101      H      14.5924827453    -1.3031553249    -0.5625156494
  102      H      14.8277998407    -0.0690654801    -3.3425043400
  103      H      14.3234270825    -1.6259229105    -3.1001078420
  104      C      16.3774387247    -1.4633925717    -2.7227670645
  105      H      17.0731376910    -1.1130148388    -1.9505414546
  106      C      17.0509708541    -1.1648465552    -4.0488141024
  107      H      16.4146039431    -2.5601533706    -2.6937240517
  108      H      16.3838734311    -1.2705599590    -4.9140306675
  109      H      17.8231037468    -1.9293425232    -4.2039872664
  110      H      17.5076842342    -0.1733361188    -4.1579651124
 ----------------------------------------------------------------

    9   -5663.5006779460      9.17E-06 Convergence criterion met
 Total energy in the final basis set = -5663.5006779460

                    Orbital Energies (a.u.)
 --------------------------------------------------------------

 Alpha MOs
 -- Occupied --
-88.990 -88.990 -88.934 -88.926 -88.925 -88.920 -88.911 -88.908
-14.394 -14.386 -14.385 -14.376 -14.352 -14.346 -14.344 -14.342
-14.332 -14.326 -10.270 -10.267 -10.265 -10.260 -10.258 -10.257
-10.249 -10.245 -10.241 -10.238 -10.238 -10.237 -10.237 -10.236
-10.235 -10.234 -10.234 -10.231 -10.231 -10.229 -10.229 -10.227
-10.226 -10.226 -10.226 -10.225 -10.224 -10.222 -10.221 -10.218
-10.217 -10.212 -10.209 -10.208 -10.207 -10.204 -10.199 -10.192
-10.191 -10.188 -10.183 -10.182 -10.181 -10.179 -10.178 -10.176
-10.175 -10.172 -10.171 -10.169  -8.047  -8.046  -7.994  -7.988
 -7.984  -7.979  -7.971  -7.967  -6.012  -6.011  -6.006  -6.005
 -6.004  -6.004  -5.958  -5.955  -5.952  -5.951  -5.948  -5.948
 -5.945  -5.945  -5.943  -5.940  -5.940  -5.935  -5.935  -5.932
 -5.932  -5.928  -5.927  -5.923  -1.056  -1.040  -0.968  -0.967
 -0.956  -0.947  -0.943  -0.940  -0.925  -0.911  -0.908  -0.900
 -0.846  -0.838  -0.835  -0.832  -0.814  -0.812  -0.811  -0.810
 -0.805  -0.802  -0.799  -0.796  -0.783  -0.780  -0.772  -0.770
 -0.750  -0.749  -0.743  -0.738  -0.725  -0.721  -0.711  -0.709
 -0.696  -0.690  -0.675  -0.674  -0.660  -0.658  -0.651  -0.648
 -0.640  -0.637  -0.634  -0.623  -0.613  -0.612  -0.602  -0.598
 -0.594  -0.590  -0.588  -0.586  -0.577  -0.576  -0.569  -0.566
 -0.553  -0.552  -0.541  -0.539  -0.526  -0.524  -0.519  -0.516
 -0.512  -0.506  -0.504  -0.495  -0.489  -0.485  -0.481  -0.478
 -0.477  -0.475  -0.474  -0.468  -0.468  -0.465  -0.447  -0.445
 -0.443  -0.443  -0.441  -0.436  -0.434  -0.434  -0.432  -0.430
 -0.429  -0.429  -0.424  -0.423  -0.418  -0.417  -0.414  -0.412
 -0.410  -0.409  -0.408  -0.406  -0.401  -0.399  -0.398  -0.398
 -0.397  -0.394  -0.392  -0.390  -0.388  -0.386  -0.385  -0.383
 -0.379  -0.379  -0.376  -0.376  -0.368  -0.364  -0.363  -0.355
 -0.353  -0.352  -0.351  -0.349  -0.348  -0.347  -0.346  -0.342
 -0.340  -0.338  -0.336  -0.333  -0.330  -0.326  -0.325  -0.323
 -0.320  -0.311  -0.310  -0.309  -0.306  -0.303  -0.302  -0.300
 -0.299  -0.295  -0.292  -0.290  -0.288  -0.287  -0.284  -0.281
 -0.276  -0.273  -0.268  -0.268  -0.254  -0.253  -0.252  -0.250
 -0.247  -0.246  -0.241  -0.230  -0.197  -0.192

          Ground-State Mulliken Net Atomic Charges

     Atom                 Charge (a.u.)
  ----------------------------------------
      1 C                     0.273147
      2 C                    -0.140568
      3 N                    -0.471939
      4 C                    -0.060301
      5 C                     0.090251
      6 C                     0.016290
      7 C                     0.050013
      8 C                     0.026206
      9 C                     0.251753
     10 N                    -0.524003
     11 N                    -0.544047
     12 C                     0.205652
     13 C                     0.239545
     14 S                     0.601383
     15 N                    -0.522655
     16 C                    -0.206431
     17 S                     0.349841
     18 C                    -0.116339
     19 C                    -0.194420
     20 S                     0.280281
     21 C                     0.112476
     22 C                     0.048672
     23 C                    -0.308686
     24 C                    -0.052937
     25 N                    -0.434071
     26 S                     0.275118
     27 C                     0.123217
     28 C                    -0.315027
     29 C                    -0.226314
     30 H                     0.082730
     31 H                     0.106156
     32 H                     0.109318
     33 H                     0.115733
     34 H                     0.127993
     35 H                     0.115682
     36 H                     0.122830
     37 H                     0.132284
     38 H                     0.117225
     39 C                    -0.160245
     40 H                     0.098076
     41 H                     0.119375
     42 H                     0.090931
     43 C                    -0.171088
     44 H                     0.098054
     45 C                    -0.180266
     46 H                     0.081687
     47 H                     0.091002
     48 H                     0.086435
     49 C                    -0.176863
     50 H                     0.093860
     51 C                    -0.317810
     52 H                     0.090571
     53 H                     0.105567
     54 H                     0.105227
     55 H                     0.098978
     56 C                     0.269406
     57 C                    -0.118423
     58 N                    -0.473687
     59 C                    -0.044142
     60 C                     0.058060
     61 C                     0.027817
     62 C                     0.060230
     63 C                     0.048308
     64 C                     0.200266
     65 N                    -0.523171
     66 N                    -0.566508
     67 C                     0.193944
     68 C                     0.317209
     69 S                     0.605350
     70 N                    -0.537452
     71 C                    -0.223347
     72 S                     0.289276
     73 C                    -0.094507
     74 C                    -0.214319
     75 S                     0.267109
     76 C                     0.144564
     77 C                     0.039148
     78 C                    -0.302748
     79 C                    -0.045253
     80 N                    -0.427682
     81 S                     0.276150
     82 C                     0.125563
     83 C                    -0.315839
     84 C                    -0.243316
     85 H                     0.093160
     86 H                     0.110275
     87 H                     0.105579
     88 H                     0.113901
     89 H                     0.125586
     90 H                     0.127381
     91 H                     0.133196
     92 H                     0.127379
     93 H                     0.123736
     94 C                    -0.183585
     95 H                     0.111893
     96 H                     0.105520
     97 H                     0.095424
     98 C                    -0.187666
     99 H                     0.092304
    100 C                    -0.171998
    101 H                     0.104842
    102 H                     0.090543
    103 H                     0.098492
    104 C                    -0.179280
    105 H                     0.094520
    106 C                    -0.324116
    107 H                     0.098042
    108 H                     0.096345
    109 H                     0.094863
    110 H                     0.102107
  ----------------------------------------
  Sum of atomic charges =     0.000000

                    Cartesian Multipole Moments
 -----------------------------------------------------------------
    Charge (ESU x 10^10)
                 0.0000
    Dipole Moment (Debye)
         X       0.7489      Y       0.6291      Z      -1.6596
       Tot       1.9263
    Quadrupole Moments (Debye-Ang)
        XX    -448.9407     XY      32.6143     YY    -407.7613
        XZ      -7.2199     YZ      14.7336     ZZ    -442.1039

 Total job time:  87.49s(wall), 951.09s(cpu)
        *  Thank you very much for using Q-Chem.  Have a nice day.  *
