 Q-Chem 4.4, Q-Chem, Inc., Pleasanton, CA (2016)
 Q-Chem 4.4.2 for Intel X86 Linux

User input:
--------------------------------------------------------------
$comment
SP
$end

$rem
MEM_STATIC 5000
MEM_TOTAL 20000
JOBTYPE SP
EXCHANGE B3LYP
BASIS 6-31g(d,p)
$end

$molecule
0 1
C           2.660000    -31.113000      0.646000
C           2.006000    -30.517000      1.710000
N           3.810000    -30.544000      0.196000
C           2.415000    -29.270000      2.191000
C           4.162000    -29.366000      0.631000
C           3.457000    -28.625000      1.658000
C           3.882000    -27.220000      2.117000
C           2.870000    -26.297000      2.507000
C           5.194000    -26.759000      2.132000
N           3.132000    -25.028000      2.772000
N           6.256000    -27.518000      1.828000
C           5.425000    -25.391000      2.383000
C           4.406000    -24.544000      2.802000
S           7.484000    -26.601000      2.220000
N           6.721000    -25.164000      2.448000
C           4.592000    -23.163000      3.402000
S           6.142000    -22.538000      3.970000
C           3.623000    -22.204000      3.629000
C           5.394000    -21.026000      4.639000
S           1.863000    -22.295000      3.126000
C           4.063000    -21.099000      4.320000
C           6.094000    -19.860000      5.167000
C           1.767000    -20.737000      4.013000
C           2.942000    -20.300000      4.633000
N           7.340000    -19.655000      4.891000
S           5.332000    -18.614000      6.155000
C           7.824000    -18.578000      5.602000
C           6.962000    -18.019000      6.511000
C           2.139000    -32.305000     -0.059000
H           1.079000    -30.982000      2.034000
H           1.861000    -28.788000      2.991000
H           5.062000    -28.912000      0.218000
H           1.815000    -26.556000      2.426000
H           0.793000    -20.270000      4.067000
H           3.046000    -19.489000      5.344000
H           8.885000    -18.379000      5.668000
H           7.066000    -17.177000      7.183000
H           1.069000    -32.464000      0.126000
C           2.900000    -33.598000      0.234000
H           2.266000    -32.121000     -1.133000
H           2.920000    -33.828000      1.307000
H           3.940000    -33.412000     -0.058000
C           2.476000    -34.842000     -0.560000
H           1.396000    -35.005000     -0.460000
C           3.185000    -36.161000     -0.076000
H           2.669000    -34.708000     -1.632000
H           2.933000    -36.363000      0.972000
H           4.256000    -35.922000     -0.075000
C           2.817000    -37.329000     -0.940000
H           1.754000    -37.518000     -0.747000
C           3.652000    -38.541000     -0.557000
H           3.006000    -37.128000     -2.002000
H           4.695000    -38.416000     -0.874000
H           3.359000    -39.406000     -1.165000
H           3.576000    -38.800000      0.506000
C           2.250000    -19.015000     -0.357000
C           1.272000    -19.015000      0.685000
N           2.149000    -19.789000     -1.431000
C           0.187000    -19.846000      0.617000
C           1.141000    -20.685000     -1.460000
C           0.082000    -20.781000     -0.475000
C          -0.929000    -21.860000     -0.706000
C          -1.346000    -22.257000     -1.996000
C          -1.593000    -22.546000      0.299000
N          -2.310000    -23.176000     -2.234000
N          -1.183000    -22.409000      1.560000
C          -2.590000    -23.442000      0.066000
C          -2.930000    -23.773000     -1.250000
S          -2.045000    -23.519000      2.420000
N          -2.926000    -24.130000      1.216000
C          -4.033000    -24.662000     -1.553000
S          -5.406000    -25.081000     -0.368000
C          -4.371000    -25.137000     -2.766000
C          -6.472000    -25.494000     -1.718000
S          -3.453000    -25.145000     -4.325000
C          -5.715000    -25.512000     -2.883000
C          -7.789000    -25.998000     -1.503000
C          -4.956000    -25.826000     -5.063000
C          -6.018000    -25.899000     -4.223000
N          -8.692000    -25.923000     -2.500000
S          -8.440000    -26.287000      0.080000
C          -9.930000    -26.215000     -1.996000
C          -9.997000    -26.353000     -0.641000
C           3.424000    -18.079000     -0.400000
H           1.408000    -18.445000      1.599000
H          -0.557000    -19.829000      1.407000
H           1.283000    -21.358000     -2.304000
H          -0.918000    -21.751000     -2.860000
H          -4.978000    -26.104000     -6.109000
H          -6.991000    -26.239000     -4.557000
H         -10.783000    -26.349000     -2.648000
H         -10.845000    -26.480000      0.019000
H           3.938000    -18.204000     -1.361000
C           4.521000    -18.300000      0.732000
H           3.114000    -17.033000     -0.508000
H           4.691000    -19.373000      0.889000
H           4.253000    -17.806000      1.673000
C           5.843000    -17.702000      0.179000
H           6.658000    -17.801000      0.906000
C           5.750000    -16.225000     -0.274000
H           6.081000    -18.277000     -0.725000
H           5.327000    -15.595000      0.518000
H           5.059000    -15.943000     -1.077000
C           7.106000    -15.664000     -0.731000
H           7.976000    -16.189000     -0.318000
C           7.302000    -14.202000     -0.377000
H           7.244000    -15.652000     -1.820000
H           6.409000    -13.586000     -0.544000
H           8.049000    -13.794000     -1.070000
H           7.615000    -13.981000      0.651000
$end

--------------------------------------------------------------

             Standard Nuclear Orientation (Angstroms)
    I     Atom           X                Y                Z
 ----------------------------------------------------------------
    1      C       3.8153610421     5.8216557513    -0.2147323707
    2      C       3.5088555222     5.1639805812     0.9636333352
    3      N       2.8041566037     6.0964839264    -1.0811595505
    4      C       2.2313072675     4.6381826639     1.1759020494
    5      C       1.6256298509     5.5729816325    -0.8866523754
    6      C       1.2630806563     4.7700401585     0.2642942222
    7      C      -0.1278828245     4.1374603193     0.4386339546
    8      C      -0.2236700511     2.8743201747     1.0893833551
    9      C      -1.3104315795     4.6888189644    -0.0426893116
   10      N      -1.3551532182     2.1921965567     1.1500728310
   11      N      -1.3870427512     5.8847029609    -0.6429669101
   12      C      -2.4860758168     3.9122678536     0.0084477570
   13      C      -2.5333202648     2.7045476276     0.6943856680
   14      S      -2.9446374681     6.1265562305    -0.7769172512
   15      N      -3.5109441720     4.6303218609    -0.4031507088
   16      C      -3.7938230891     1.9565721941     1.0860773591
   17      S      -5.4126327309     2.6576252665     1.0250123672
   18      C      -3.8935378072     0.6646643293     1.5669120955
   19      C      -6.1738035203     1.2036626827     1.7994933769
   20      S      -2.5273274503    -0.5469927536     1.7226245680
   21      C      -5.1562271257     0.3023104217     1.9748598011
   22      C      -7.5997170084     0.9399700845     1.9594212920
   23      C      -3.8126912219    -1.5547247593     2.4680540948
   24      C      -5.0714772483    -0.9599968964     2.6012851301
   25      N      -8.4737506969     1.5738275357     1.2487829572
   26      S      -8.2634685948    -0.2705928989     3.0563602578
   27      C      -9.7518371254     1.2649050069     1.6620237496
   28      C      -9.8498529859     0.4642129361     2.7715691966
   29      C       5.1956033609     6.1893656757    -0.6008030287
   30      H       4.3400552335     4.9394340024     1.6263669724
   31      H       2.0180901633     4.0777070449     2.0812448281
   32      H       0.8465703313     5.7699771457    -1.6221413507
   33      H       0.6705616776     2.3374925690     1.4037600993
   34      H      -3.5157083246    -2.5311772344     2.8258567256
   35      H      -5.9164838216    -1.3328414266     3.1678615569
   36      H     -10.6038544797     1.8458184521     1.3360114842
   37      H     -10.7045955529     0.0615540733     3.2994375364
   38      H       5.9500480119     5.6226908330    -0.0403577669
   39      C       5.5061773482     7.6826401884    -0.4983626656
   40      H       5.3088901568     5.9332336781    -1.6614742792
   41      H       5.3289320628     8.0699945881     0.5131558354
   42      H       4.7849094958     8.1890181903    -1.1501402383
   43      C       6.8858779945     8.1352288746    -0.9976998339
   44      H       7.6752800808     7.5481532945    -0.5127713758
   45      C       7.1908847959     9.6495359447    -0.6967962804
   46      H       6.9900642818     7.9595180621    -2.0759669288
   47      H       7.1796982196     9.8297747578     0.3848694863
   48      H       6.3241906871    10.1958160060    -1.0899659847
   49      C       8.5023559583    10.0715317547    -1.2868021503
   50      H       9.2706153014     9.5326003571    -0.7191142691
   51      C       8.6811913055    11.5738755672    -1.1324033565
   52      H       8.5596727947     9.8470843820    -2.3593244844
   53      H       8.0078105723    12.1210972938    -1.8040206359
   54      H       9.6562199218    11.8789016694    -1.5324236991
   55      H       8.5898777153    11.9157609457    -0.0943271472
   56      C      -4.0047317797    -3.3169092943    -1.9083941328
   57      C      -3.6792751391    -3.7688361906    -0.5923059688
   58      N      -3.0778465052    -3.0393260922    -2.8175609238
   59      C      -2.3726144877    -3.9133744698    -0.2126263306
   60      C      -1.7882402409    -3.0781154433    -2.4236928375
   61      C      -1.3260169290    -3.5266196328    -1.1251876963
   62      C       0.1534120191    -3.4756712258    -0.9051485014
   63      C       1.0906997317    -3.7219704173    -1.9329745820
   64      C       0.7604100133    -3.2329682703     0.3172122107
   65      N       2.4305217503    -3.7555498819    -1.7479060051
   66      N       0.0167793774    -2.8107156715     1.3398099909
   67      C       2.1043594612    -3.3041557123     0.5168274151
   68      C       2.9533424853    -3.5512403341    -0.5672362428
   69      S       1.0911222575    -2.4250898580     2.5280120394
   70      N       2.4544321316    -2.8120674779     1.7594207899
   71      C       4.3828964837    -3.7120850338    -0.3962293769
   72      S       5.2142249701    -4.1004783307     1.2233256838
   73      C       5.2993747469    -3.8345736703    -1.3741363904
   74      C       6.6052731662    -4.7816954286     0.3687186504
   75      S       5.1746771508    -3.5178800032    -3.1510507470
   76      C       6.4739794034    -4.4888686589    -0.9831735165
   77      C       7.7515341634    -5.2607588410     1.0696565744
   78      C       6.8528631481    -4.1804664830    -3.2609821577
   79      C       7.3448378506    -4.6757247408    -2.0984619857
   80      N       8.5909991626    -6.1136528642     0.4508566873
   81      S       7.9003173896    -5.1811372584     2.7972951231
   82      C       9.4513613802    -6.6353710025     1.3779548691
   83      C       9.1821520556    -6.3172368877     2.6763673708
   84      C      -5.4089554085    -3.2096323469    -2.4307624483
   85      H      -4.4393013586    -3.9079961049     0.1704434422
   86      H      -2.1360080193    -4.2698762319     0.7847947805
   87      H      -1.1597544834    -2.6653105432    -3.2111106218
   88      H       0.7203976065    -3.9662827388    -2.9274110182
   89      H       7.3756081865    -4.1999059215    -4.2087393697
   90      H       8.3179269787    -5.1489096982    -2.0429773501
   91      H      10.2990009698    -7.2377729687     1.0791438966
   92      H       9.6258843489    -6.6655578325     3.5997346711
   93      H      -5.3686097813    -2.9631286773    -3.4989151393
   94      C      -6.3147939892    -2.0958740274    -1.7432503601
   95      H      -5.8990595346    -4.1877945626    -2.5005952865
   96      H      -5.7291594459    -1.1825832839    -1.5764864562
   97      H      -6.7659642163    -2.4459060540    -0.8076949066
   98      C      -7.4275600082    -1.7467007000    -2.7683975564
   99      H      -8.1113623553    -0.9881817808    -2.3688748420
  100      C      -8.2544788022    -2.9555911565    -3.2685736976
  101      H      -6.9117462618    -1.3515116363    -3.6528447188
  102      H      -8.6536294797    -3.5359299378    -2.4277534816
  103      H      -7.7557928399    -3.7769950574    -3.7962307289
  104      C      -9.3927843017    -2.5384209145    -4.2133147092
  105      H      -9.7223814417    -1.4990351896    -4.0944154235
  106      C     -10.6417995351    -3.3856892663    -4.0607588616
  107      H      -9.1628735968    -2.6668681025    -5.2790310822
  108      H     -10.4344805935    -4.4577303853    -3.9487736147
  109      H     -11.2043993483    -3.3127903662    -5.0003807007
  110      H     -11.3099475449    -3.1340113838    -3.2277939882
 ----------------------------------------------------------------

    9   -5663.5150871262      6.43E-06 Convergence criterion met
 Total energy in the final basis set = -5663.5150871262

                    Orbital Energies (a.u.)
 --------------------------------------------------------------

 Alpha MOs
 -- Occupied --
-88.992 -88.991 -88.927 -88.921 -88.921 -88.921 -88.912 -88.909
-14.388 -14.384 -14.383 -14.378 -14.351 -14.346 -14.345 -14.340
-14.325 -14.324 -10.271 -10.268 -10.268 -10.257 -10.255 -10.253
-10.250 -10.246 -10.244 -10.242 -10.241 -10.240 -10.239 -10.238
-10.231 -10.230 -10.230 -10.229 -10.229 -10.228 -10.227 -10.227
-10.227 -10.225 -10.225 -10.224 -10.222 -10.222 -10.222 -10.211
-10.211 -10.210 -10.205 -10.203 -10.203 -10.196 -10.193 -10.193
-10.184 -10.182 -10.178 -10.177 -10.176 -10.176 -10.176 -10.174
-10.173 -10.172 -10.169 -10.166  -8.048  -8.047  -7.989  -7.983
 -7.979  -7.979  -7.969  -7.968  -6.013  -6.012  -6.007  -6.006
 -6.006  -6.005  -5.953  -5.949  -5.946  -5.946  -5.944  -5.943
 -5.943  -5.940  -5.940  -5.939  -5.936  -5.936  -5.934  -5.932
 -5.931  -5.929  -5.925  -5.923  -1.056  -1.041  -0.974  -0.969
 -0.967  -0.962  -0.945  -0.938  -0.919  -0.909  -0.908  -0.901
 -0.836  -0.835  -0.833  -0.832  -0.812  -0.811  -0.810  -0.808
 -0.801  -0.800  -0.799  -0.798  -0.790  -0.781  -0.769  -0.768
 -0.750  -0.747  -0.742  -0.738  -0.722  -0.717  -0.709  -0.708
 -0.694  -0.688  -0.680  -0.674  -0.659  -0.654  -0.649  -0.648
 -0.637  -0.634  -0.627  -0.622  -0.611  -0.610  -0.600  -0.597
 -0.592  -0.591  -0.582  -0.580  -0.577  -0.575  -0.572  -0.564
 -0.553  -0.547  -0.543  -0.541  -0.529  -0.524  -0.516  -0.515
 -0.508  -0.504  -0.500  -0.496  -0.492  -0.484  -0.482  -0.479
 -0.476  -0.475  -0.474  -0.466  -0.466  -0.461  -0.453  -0.447
 -0.444  -0.440  -0.439  -0.434  -0.434  -0.432  -0.430  -0.429
 -0.427  -0.426  -0.423  -0.421  -0.417  -0.416  -0.411  -0.411
 -0.409  -0.406  -0.404  -0.402  -0.400  -0.398  -0.397  -0.397
 -0.394  -0.393  -0.391  -0.389  -0.388  -0.387  -0.387  -0.382
 -0.378  -0.375  -0.375  -0.372  -0.371  -0.360  -0.358  -0.356
 -0.355  -0.353  -0.352  -0.347  -0.344  -0.341  -0.340  -0.338
 -0.335  -0.334  -0.329  -0.328  -0.327  -0.324  -0.324  -0.318
 -0.315  -0.314  -0.310  -0.307  -0.306  -0.303  -0.301  -0.299
 -0.298  -0.297  -0.293  -0.291  -0.288  -0.286  -0.284  -0.280
 -0.277  -0.273  -0.267  -0.263  -0.252  -0.251  -0.250  -0.247
 -0.246  -0.241  -0.230  -0.228  -0.197  -0.192

          Ground-State Mulliken Net Atomic Charges

     Atom                 Charge (a.u.)
  ----------------------------------------
      1 C                     0.280258
      2 C                    -0.128782
      3 N                    -0.483948
      4 C                    -0.086576
      5 C                     0.095563
      6 C                     0.050900
      7 C                     0.013183
      8 C                     0.064324
      9 C                     0.194282
     10 N                    -0.507421
     11 N                    -0.527744
     12 C                     0.229678
     13 C                     0.293265
     14 S                     0.615576
     15 N                    -0.551002
     16 C                    -0.230135
     17 S                     0.338200
     18 C                    -0.118485
     19 C                    -0.228401
     20 S                     0.304343
     21 C                     0.164046
     22 C                     0.061971
     23 C                    -0.305971
     24 C                    -0.090105
     25 N                    -0.416326
     26 S                     0.241014
     27 C                     0.103514
     28 C                    -0.297263
     29 C                    -0.223703
     30 H                     0.084143
     31 H                     0.092973
     32 H                     0.112196
     33 H                     0.115855
     34 H                     0.120237
     35 H                     0.107622
     36 H                     0.114991
     37 H                     0.136292
     38 H                     0.095288
     39 C                    -0.179567
     40 H                     0.119178
     41 H                     0.089320
     42 H                     0.115572
     43 C                    -0.181009
     44 H                     0.083261
     45 C                    -0.168106
     46 H                     0.091987
     47 H                     0.089154
     48 H                     0.090530
     49 C                    -0.166992
     50 H                     0.094860
     51 C                    -0.317994
     52 H                     0.094081
     53 H                     0.103335
     54 H                     0.093834
     55 H                     0.101447
     56 C                     0.272303
     57 C                    -0.111030
     58 N                    -0.473915
     59 C                    -0.046829
     60 C                     0.060196
     61 C                     0.032571
     62 C                     0.062468
     63 C                     0.048043
     64 C                     0.207651
     65 N                    -0.522649
     66 N                    -0.572209
     67 C                     0.191350
     68 C                     0.318293
     69 S                     0.610224
     70 N                    -0.538867
     71 C                    -0.224288
     72 S                     0.288229
     73 C                    -0.094781
     74 C                    -0.212325
     75 S                     0.268855
     76 C                     0.144901
     77 C                     0.037900
     78 C                    -0.302524
     79 C                    -0.044222
     80 N                    -0.426100
     81 S                     0.281092
     82 C                     0.128775
     83 C                    -0.309973
     84 C                    -0.245202
     85 H                     0.093420
     86 H                     0.103296
     87 H                     0.105408
     88 H                     0.115161
     89 H                     0.125871
     90 H                     0.124748
     91 H                     0.113957
     92 H                     0.137139
     93 H                     0.123256
     94 C                    -0.184729
     95 H                     0.110102
     96 H                     0.113380
     97 H                     0.096155
     98 C                    -0.189040
     99 H                     0.098759
    100 C                    -0.171369
    101 H                     0.103792
    102 H                     0.089012
    103 H                     0.096569
    104 C                    -0.178817
    105 H                     0.095623
    106 C                    -0.323423
    107 H                     0.097011
    108 H                     0.095266
    109 H                     0.093713
    110 H                     0.101060
  ----------------------------------------
  Sum of atomic charges =     0.000000

                    Cartesian Multipole Moments
 -----------------------------------------------------------------
    Charge (ESU x 10^10)
                 0.0000
    Dipole Moment (Debye)
         X       0.6322      Y      -1.5344      Z       4.5285
       Tot       4.8230
    Quadrupole Moments (Debye-Ang)
        XX    -391.2332     XY      -1.0492     YY    -439.8946
        XZ      -0.8700     YZ     -12.9057     ZZ    -434.8175

 Total job time:  86.18s(wall), 942.89s(cpu)
        *  Thank you very much for using Q-Chem.  Have a nice day.  *
