 Q-Chem 4.4, Q-Chem, Inc., Pleasanton, CA (2016)
 Q-Chem 4.4.2 for Intel X86 Linux

User input:
--------------------------------------------------------------
$comment
SP
$end

$rem
MEM_STATIC 5000
MEM_TOTAL 20000
JOBTYPE SP
EXCHANGE B3LYP
BASIS 6-31g(d,p)
$end

$molecule
0 1
C           3.595000    -18.116000     -6.109000
C           3.152000    -18.434000     -4.811000
N           2.898000    -17.358000     -6.946000
C           1.887000    -17.885000     -4.488000
C           1.719000    -16.843000     -6.607000
C           1.077000    -17.123000     -5.336000
C          -0.243000    -16.634000     -4.898000
C          -0.490000    -15.249000     -4.961000
C          -1.274000    -17.414000     -4.444000
N          -1.691000    -14.726000     -4.548000
N          -1.297000    -18.740000     -4.437000
C          -2.527000    -16.819000     -4.046000
C          -2.692000    -15.462000     -4.038000
S          -2.874000    -19.134000     -4.011000
N          -3.519000    -17.692000     -3.603000
C          -3.773000    -14.715000     -3.391000
S          -4.858000    -15.327000     -2.090000
C          -4.178000    -13.445000     -3.779000
C          -5.549000    -13.761000     -1.954000
S          -3.626000    -12.350000     -5.094000
C          -5.155000    -12.911000     -3.011000
C          -6.595000    -13.546000     -1.007000
C          -4.929000    -11.211000     -4.633000
C          -5.628000    -11.676000     -3.523000
N          -6.939000    -12.301000     -0.784000
S          -7.093000    -14.626000      0.230000
C          -7.642000    -12.182000      0.403000
C          -7.682000    -13.296000      1.147000
C           4.933000    -18.573000     -6.630000
H           3.579000    -19.200000     -4.170000
H           1.524000    -18.153000     -3.499000
H           1.262000    -16.167000     -7.329000
H           0.309000    -14.535000     -5.153000
H          -5.041000    -10.339000     -5.264000
H          -6.400000    -11.034000     -3.112000
H          -8.066000    -11.194000      0.523000
H          -7.994000    -13.544000      2.153000
H           5.090000    -19.573000     -6.207000
C           6.001000    -17.641000     -6.016000
H           5.019000    -18.617000     -7.723000
H           6.966000    -17.978000     -6.413000
H           6.079000    -17.652000     -4.921000
C           5.858000    -16.145000     -6.410000
H           6.048000    -16.088000     -7.489000
C           6.813000    -15.207000     -5.627000
H           4.852000    -15.726000     -6.285000
H           7.813000    -15.565000     -5.902000
H           6.595000    -15.187000     -4.552000
C           6.593000    -13.729000     -5.962000
H           5.531000    -13.506000     -5.804000
C           6.912000    -13.321000     -7.383000
H           7.138000    -13.192000     -5.177000
H           7.973000    -13.552000     -7.537000
H           6.809000    -12.231000     -7.448000
H           6.256000    -13.860000     -8.077000
C           2.250000    -19.015000     -0.357000
C           1.272000    -19.015000      0.685000
N           2.149000    -19.789000     -1.431000
C           0.187000    -19.846000      0.617000
C           1.141000    -20.685000     -1.460000
C           0.082000    -20.781000     -0.475000
C          -0.929000    -21.860000     -0.706000
C          -1.346000    -22.257000     -1.996000
C          -1.593000    -22.546000      0.299000
N          -2.310000    -23.176000     -2.234000
N          -1.183000    -22.409000      1.560000
C          -2.590000    -23.442000      0.066000
C          -2.930000    -23.773000     -1.250000
S          -2.045000    -23.519000      2.420000
N          -2.926000    -24.130000      1.216000
C          -4.033000    -24.662000     -1.553000
S          -5.406000    -25.081000     -0.368000
C          -4.371000    -25.137000     -2.766000
C          -6.472000    -25.494000     -1.718000
S          -3.453000    -25.145000     -4.325000
C          -5.715000    -25.512000     -2.883000
C          -7.789000    -25.998000     -1.503000
C          -4.956000    -25.826000     -5.063000
C          -6.018000    -25.899000     -4.223000
N          -8.692000    -25.923000     -2.500000
S          -8.440000    -26.287000      0.080000
C          -9.930000    -26.215000     -1.996000
C          -9.997000    -26.353000     -0.641000
C           3.424000    -18.079000     -0.400000
H           1.408000    -18.445000      1.599000
H          -0.557000    -19.829000      1.407000
H           1.283000    -21.358000     -2.304000
H          -0.918000    -21.751000     -2.860000
H          -4.978000    -26.104000     -6.109000
H          -6.991000    -26.239000     -4.557000
H         -10.783000    -26.349000     -2.648000
H         -10.845000    -26.480000      0.019000
H           3.938000    -18.204000     -1.361000
C           4.521000    -18.300000      0.732000
H           3.114000    -17.033000     -0.508000
H           4.691000    -19.373000      0.889000
H           4.253000    -17.806000      1.673000
C           5.843000    -17.702000      0.179000
H           6.658000    -17.801000      0.906000
C           5.750000    -16.225000     -0.274000
H           6.081000    -18.277000     -0.725000
H           5.327000    -15.595000      0.518000
H           5.059000    -15.943000     -1.077000
C           7.106000    -15.664000     -0.731000
H           7.976000    -16.189000     -0.318000
C           7.302000    -14.202000     -0.377000
H           7.244000    -15.652000     -1.820000
H           6.409000    -13.586000     -0.544000
H           8.049000    -13.794000     -1.070000
H           7.615000    -13.981000      0.651000
$end

--------------------------------------------------------------

             Standard Nuclear Orientation (Angstroms)
    I     Atom           X                Y                Z
 ----------------------------------------------------------------
    1      C      -5.0583864996    -2.9886630022     2.7134869355
    2      C      -4.2618408792    -2.9262518383     1.5542643851
    3      N      -5.2442347458    -1.9516920022     3.5203906315
    4      C      -3.6638809238    -1.6605607543     1.3387998372
    5      C      -4.6813291143    -0.7699703972     3.2819408500
    6      C      -3.7742812829    -0.5428704348     2.1721233701
    7      C      -3.0731644162     0.7160820312     1.8609339944
    8      C      -3.8407021844     1.8918461370     1.7529175989
    9      C      -1.7220051324     0.8549989892     1.6805242698
   10      N      -3.2522523736     3.0938531241     1.4440405628
   11      N      -0.8135333870    -0.0917451275     1.8734197476
   12      C      -1.1480112313     2.1451652013     1.3831353887
   13      C      -1.9404425283     3.2435810589     1.1980050469
   14      S       0.6610764275     0.7031302936     1.7417384667
   15      N       0.2355964553     2.1898501201     1.2216577509
   16      C      -1.5395689580     4.5235854298     0.6097294388
   17      S      -0.0881209611     4.8141178725    -0.4165549331
   18      C      -2.1844769253     5.7274099222     0.8594679128
   19      C      -0.6202651444     6.4248820893    -0.6822506350
   20      S      -3.5839906440     6.1541805785     1.9045431054
   21      C      -1.6895743615     6.7802083366     0.1693983867
   22      C       0.1749250779     7.2920064336    -1.4902839771
   23      C      -3.3268249851     7.8730523171     1.4721118739
   24      C      -2.2881660228     8.0064899461     0.5554287448
   25      N      -0.3705639509     8.4303409274    -1.8434500849
   26      S       1.5098514794     6.8396717713    -2.4690269748
   27      C       0.2945562142     8.9897575813    -2.9214144504
   28      C       1.2247458206     8.2020895675    -3.4786023866
   29      C      -5.8109254691    -4.2360356346     3.0985591564
   30      H      -3.9189330100    -3.7816012515     0.9791491143
   31      H      -3.0215799045    -1.6141530498     0.4630089229
   32      H      -4.9591464759     0.0413985955     3.9539578672
   33      H      -4.9284109221     1.8622754181     1.7201109784
   34      H      -3.9630033914     8.5886057301     1.9764424684
   35      H      -2.0853091107     8.9998364507     0.1691894471
   36      H      -0.0426309769     9.9974745599    -3.1242229541
   37      H       1.8208312339     8.2277880604    -4.3813236987
   38      H      -5.1636936855    -5.0736156428     2.8102385915
   39      C      -7.0702133355    -4.2994878989     2.2061400397
   40      H      -6.0680152365    -4.3174826683     4.1621625751
   41      H      -7.6123748177    -5.2043090833     2.5057440308
   42      H      -6.8924599811    -4.3707767254     1.1251443653
   43      C      -8.0545836595    -3.1117619102     2.3905933966
   44      H      -8.4506262551    -3.1915485647     3.4105808241
   45      C      -9.2026385955    -3.0946306776     1.3481758292
   46      H      -7.5944330401    -2.1168216867     2.3508774145
   47      H      -9.7304335142    -4.0398433105     1.5264862395
   48      H      -8.8392182794    -2.9396591283     0.3247216325
   49      C     -10.1079603038    -1.8675318352     1.4886394746
   50      H      -9.4695052945    -0.9766373087     1.4537232332
   51      C     -10.9020987110    -1.7782456487     2.7727104099
   52      H     -10.6945246152    -1.8595027249     0.5626282209
   53      H     -11.5336435782    -2.6742946227     2.8050417708
   54      H     -11.5743613538    -0.9156349510     2.6896458368
   55      H     -10.2164399969    -1.7121858201     3.6259402891
   56      C      -2.3110602122    -2.7668894599    -2.5879982118
   57      C      -1.4002452990    -2.1034335134    -3.4669125426
   58      N      -1.9408389916    -3.2497735217    -1.4079506574
   59      C      -0.0840792339    -1.9597919417    -3.1212479829
   60      C      -0.6277568080    -3.2066162034    -1.1018891847
   61      C       0.3934175722    -2.5566309215    -1.8991620479
   62      C       1.7898875094    -2.6424625611    -1.3679110299
   63      C       2.0871725357    -2.6324516239     0.0130739064
   64      C       2.9304282043    -2.6925879356    -2.1541497787
   65      N       3.3412857884    -2.6344081411     0.5207126770
   66      N       2.8067818417    -2.8862543949    -3.4672357925
   67      C       4.1936046053    -2.6551969335    -1.6500651698
   68      C       4.3864067163    -2.6500082280    -0.2644904070
   69      S       4.3430947979    -3.1066891310    -4.0203135699
   70      N       5.1320137584    -2.9336438490    -2.6250500808
   71      C       5.7058653034    -2.5340143760     0.3222918893
   72      S       7.2086721703    -1.9042864263    -0.5776687932
   73      C       6.0152135840    -2.6356346848     1.6281306826
   74      C       7.9661152265    -1.4589927597     0.9577199416
   75      S       5.0458232943    -3.2590711198     3.0227196822
   76      C       7.1992692047    -1.9824307301     1.9914306700
   77      C       9.2860888474    -0.9209239552     1.0114004942
   78      C       6.4204576374    -2.7131491781     4.0618364497
   79      C       7.3984087197    -2.0431267285     3.4034637607
   80      N       9.6725791377    -0.2366276702     2.1056613634
   81      S      10.2699416647    -0.6969185804    -0.4010676386
   82      C      10.8535546008     0.3984418794     1.8338017992
   83      C      11.2734154607     0.3324023496     0.5380728002
   84      C      -3.7839764535    -2.8945480492    -2.8534073881
   85      H      -1.6913483342    -1.7912876078    -4.4652190870
   86      H       0.5968376195    -1.4427135291    -3.7897591301
   87      H      -0.4508378621    -3.7853459945    -0.1967922200
   88      H       1.2645427758    -2.5519106855     0.7219529055
   89      H       6.4070841836    -2.8905839609     5.1296482536
   90      H       8.2502147706    -1.6177688550     3.9205538217
   91      H      11.4160143476     0.8936000232     2.6142673307
   92      H      12.0982406560     0.8176311433     0.0330486276
   93      H      -4.2639692939    -3.3303232809    -1.9685069301
   94      C      -4.1825915683    -3.8194405493    -4.0860281138
   95      H      -4.2882662206    -1.9211264123    -2.8581134975
   96      H      -3.5504438627    -4.7166039821    -4.1051344775
   97      H      -4.1296161099    -3.2848367536    -5.0413989226
   98      C      -5.6389807760    -4.2897355447    -3.8236351014
   99      H      -6.0024279143    -4.9285469305    -4.6375031442
  100      C      -6.6583356594    -3.1496695480    -3.5858281525
  101      H      -5.6085712019    -4.8628276801    -2.8881535879
  102      H      -6.6171561499    -2.4084280552    -4.3932674984
  103      H      -6.5217149678    -2.4626383548    -2.7425388035
  104      C      -8.0942627029    -3.6710527920    -3.4167747924
  105      H      -8.2754723687    -4.6541423781    -3.8682079799
  106      C      -9.1427171249    -2.7477599998    -4.0079175372
  107      H      -8.4251419930    -3.7476509016    -2.3728587877
  108      H      -8.9555238395    -1.6849671933    -3.8073580091
  109      H     -10.0912292495    -2.9592632701    -3.4977086426
  110      H      -9.3018272031    -2.8116841289    -5.0915187963
 ----------------------------------------------------------------

   11   -5663.5113561793      6.79E-06 Convergence criterion met
 Total energy in the final basis set = -5663.5113561793

                    Orbital Energies (a.u.)
 --------------------------------------------------------------

 Alpha MOs
 -- Occupied --
-88.993 -88.982 -88.928 -88.927 -88.922 -88.920 -88.911 -88.903
-14.393 -14.390 -14.380 -14.379 -14.349 -14.347 -14.340 -14.334
-14.334 -14.318 -10.269 -10.260 -10.259 -10.253 -10.252 -10.251
-10.251 -10.247 -10.243 -10.241 -10.241 -10.239 -10.239 -10.238
-10.235 -10.232 -10.232 -10.230 -10.228 -10.228 -10.227 -10.226
-10.225 -10.225 -10.225 -10.224 -10.224 -10.220 -10.216 -10.216
-10.212 -10.208 -10.206 -10.203 -10.198 -10.196 -10.194 -10.191
-10.191 -10.187 -10.184 -10.179 -10.179 -10.178 -10.177 -10.170
-10.169 -10.168 -10.166 -10.165  -8.048  -8.037  -7.991  -7.987
 -7.983  -7.981  -7.970  -7.962  -6.013  -6.008  -6.006  -6.003
 -5.997  -5.995  -5.954  -5.951  -5.951  -5.948  -5.947  -5.947
 -5.945  -5.943  -5.943  -5.942  -5.940  -5.937  -5.934  -5.931
 -5.927  -5.925  -5.923  -5.918  -1.043  -1.028  -0.974  -0.971
 -0.970  -0.949  -0.947  -0.936  -0.913  -0.910  -0.906  -0.903
 -0.842  -0.837  -0.835  -0.827  -0.813  -0.813  -0.810  -0.807
 -0.803  -0.802  -0.799  -0.787  -0.786  -0.782  -0.772  -0.768
 -0.752  -0.744  -0.741  -0.735  -0.729  -0.723  -0.712  -0.703
 -0.692  -0.688  -0.676  -0.667  -0.663  -0.651  -0.650  -0.644
 -0.640  -0.634  -0.627  -0.625  -0.615  -0.606  -0.601  -0.594
 -0.592  -0.592  -0.588  -0.579  -0.579  -0.571  -0.570  -0.555
 -0.551  -0.548  -0.544  -0.533  -0.526  -0.524  -0.516  -0.513
 -0.510  -0.500  -0.498  -0.496  -0.489  -0.487  -0.480  -0.478
 -0.474  -0.472  -0.471  -0.468  -0.465  -0.453  -0.450  -0.447
 -0.446  -0.442  -0.439  -0.436  -0.435  -0.434  -0.432  -0.431
 -0.431  -0.428  -0.426  -0.424  -0.421  -0.417  -0.413  -0.412
 -0.410  -0.408  -0.403  -0.403  -0.400  -0.398  -0.397  -0.396
 -0.392  -0.390  -0.389  -0.388  -0.388  -0.385  -0.383  -0.382
 -0.379  -0.379  -0.375  -0.368  -0.366  -0.361  -0.357  -0.356
 -0.354  -0.353  -0.351  -0.349  -0.347  -0.343  -0.343  -0.340
 -0.338  -0.334  -0.333  -0.330  -0.329  -0.325  -0.323  -0.319
 -0.314  -0.312  -0.312  -0.305  -0.304  -0.302  -0.301  -0.298
 -0.295  -0.294  -0.292  -0.287  -0.284  -0.283  -0.280  -0.277
 -0.276  -0.271  -0.264  -0.261  -0.257  -0.253  -0.252  -0.249
 -0.244  -0.236  -0.234  -0.233  -0.195  -0.190

          Ground-State Mulliken Net Atomic Charges

     Atom                 Charge (a.u.)
  ----------------------------------------
      1 C                     0.272114
      2 C                    -0.120949
      3 N                    -0.464032
      4 C                    -0.089060
      5 C                     0.069519
      6 C                     0.033755
      7 C                     0.002779
      8 C                     0.064202
      9 C                     0.295702
     10 N                    -0.527787
     11 N                    -0.562156
     12 C                     0.122666
     13 C                     0.297895
     14 S                     0.602655
     15 N                    -0.534587
     16 C                    -0.207147
     17 S                     0.328860
     18 C                    -0.112027
     19 C                    -0.215293
     20 S                     0.259626
     21 C                     0.173209
     22 C                     0.050807
     23 C                    -0.305337
     24 C                    -0.061683
     25 N                    -0.426035
     26 S                     0.257340
     27 C                     0.126145
     28 C                    -0.317893
     29 C                    -0.214847
     30 H                     0.116311
     31 H                     0.105078
     32 H                     0.098695
     33 H                     0.126663
     34 H                     0.136893
     35 H                     0.120980
     36 H                     0.112847
     37 H                     0.144393
     38 H                     0.094481
     39 C                    -0.189109
     40 H                     0.113209
     41 H                     0.090461
     42 H                     0.095350
     43 C                    -0.169785
     44 H                     0.092282
     45 C                    -0.172548
     46 H                     0.100695
     47 H                     0.085323
     48 H                     0.088938
     49 C                    -0.182031
     50 H                     0.089248
     51 C                    -0.308854
     52 H                     0.084146
     53 H                     0.098352
     54 H                     0.099115
     55 H                     0.112421
     56 C                     0.271806
     57 C                    -0.117705
     58 N                    -0.484003
     59 C                    -0.042338
     60 C                     0.061658
     61 C                     0.028431
     62 C                     0.059181
     63 C                     0.042132
     64 C                     0.200896
     65 N                    -0.525695
     66 N                    -0.566663
     67 C                     0.194202
     68 C                     0.317493
     69 S                     0.608253
     70 N                    -0.539352
     71 C                    -0.224943
     72 S                     0.291466
     73 C                    -0.095669
     74 C                    -0.211825
     75 S                     0.268795
     76 C                     0.144807
     77 C                     0.037787
     78 C                    -0.302253
     79 C                    -0.044296
     80 N                    -0.425985
     81 S                     0.282955
     82 C                     0.128851
     83 C                    -0.309244
     84 C                    -0.247236
     85 H                     0.096433
     86 H                     0.112995
     87 H                     0.109761
     88 H                     0.123916
     89 H                     0.126878
     90 H                     0.125603
     91 H                     0.114772
     92 H                     0.137889
     93 H                     0.123238
     94 C                    -0.183193
     95 H                     0.115357
     96 H                     0.105111
     97 H                     0.097113
     98 C                    -0.188001
     99 H                     0.093541
    100 C                    -0.171956
    101 H                     0.103354
    102 H                     0.091361
    103 H                     0.099359
    104 C                    -0.185530
    105 H                     0.094718
    106 C                    -0.324022
    107 H                     0.102931
    108 H                     0.097177
    109 H                     0.095447
    110 H                     0.102248
  ----------------------------------------
  Sum of atomic charges =     0.000000

                    Cartesian Multipole Moments
 -----------------------------------------------------------------
    Charge (ESU x 10^10)
                 0.0000
    Dipole Moment (Debye)
         X       3.5397      Y       0.9590      Z      -4.4875
       Tot       5.7954
    Quadrupole Moments (Debye-Ang)
        XX    -412.4653     XY      14.7685     YY    -431.3176
        XZ       1.5085     YZ      -3.6965     ZZ    -427.0353

 Total job time:  109.11s(wall), 1184.48s(cpu)
        *  Thank you very much for using Q-Chem.  Have a nice day.  *
