 Q-Chem 4.4, Q-Chem, Inc., Pleasanton, CA (2016)
 Q-Chem 4.4.2 for Intel X86 Linux

User input:
--------------------------------------------------------------
$comment
SP
$end

$rem
MEM_STATIC 5000
MEM_TOTAL 20000
JOBTYPE SP
EXCHANGE B3LYP
BASIS 6-31g(d,p)
$end

$molecule
0 1
C          15.605000     15.486000    -14.672000
C          15.521000     16.882000    -14.344000
N          14.514000     14.655000    -14.647000
C          14.319000     17.384000    -13.979000
C          13.350000     15.204000    -14.243000
C          13.193000     16.575000    -13.867000
C          11.960000     17.132000    -13.301000
C          11.930000     18.092000    -12.289000
C          10.645000     16.729000    -13.751000
N          10.744000     18.568000    -11.731000
N          10.410000     15.871000    -14.762000
C           9.475000     17.268000    -13.244000
C           9.551000     18.185000    -12.208000
S           8.792000     15.710000    -15.004000
N           8.336000     16.808000    -13.754000
C           8.350000     18.840000    -11.564000
S           6.776000     18.004000    -11.475000
C           8.217000     20.120000    -11.063000
C           5.972000     19.579000    -10.843000
S           9.403000     21.428000    -11.129000
C           6.934000     20.581000    -10.759000
C           4.587000     19.751000    -10.512000
C           8.114000     22.569000    -10.649000
C           6.881000     21.959000    -10.464000
N           3.960000     20.839000    -10.891000
S           3.717000     18.495000     -9.672000
C           2.688000     20.814000    -10.412000
C           2.455000     19.778000     -9.538000
C          16.975000     14.891000    -14.887000
H          16.408000     17.508000    -14.351000
H          14.280000     18.448000    -13.768000
H          12.536000     14.489000    -14.348000
H          12.879000     18.304000    -11.799000
H           8.240000     23.641000    -10.568000
H           5.956000     22.495000    -10.285000
H           2.012000     21.654000    -10.506000
H           1.646000     19.651000     -8.830000
H          16.926000     14.004000    -15.531000
C          17.690000     14.618000    -13.531000
H          17.539000     15.708000    -15.354000
H          18.268000     15.499000    -13.227000
H          18.448000     13.845000    -13.705000
C          16.897000     14.236000    -12.271000
H          16.400000     15.167000    -11.971000
C          17.835000     13.855000    -11.113000
H          16.167000     13.422000    -12.360000
H          18.796000     14.362000    -11.265000
H          18.067000     12.790000    -11.240000
C          17.286000     14.248000     -9.704000
H          16.933000     15.262000     -9.478000
C          18.445000     14.024000     -8.671000
H          16.455000     13.576000     -9.457000
H          18.021000     14.129000     -7.664000
H          19.209000     14.793000     -8.839000
H          18.840000     13.007000     -8.776000
C          19.224000     18.869000    -10.254000
C          17.950000     18.232000    -10.217000
N          19.367000     20.032000    -10.884000
C          16.849000     18.819000    -10.782000
C          18.316000     20.643000    -11.492000
C          16.973000     20.085000    -11.447000
C          15.869000     20.904000    -12.017000
C          16.003000     21.784000    -13.157000
C          14.676000     21.047000    -11.250000
N          15.022000     22.599000    -13.623000
N          14.411000     20.520000     -9.999000
C          13.715000     21.926000    -11.761000
C          13.867000     22.653000    -12.962000
S          12.837000     20.962000     -9.735000
N          12.574000     21.955000    -11.027000
C          12.863000     23.542000    -13.613000
S          11.238000     23.743000    -12.921000
C          12.994000     24.253000    -14.808000
C          10.976000     25.030000    -14.085000
S          14.392000     24.372000    -15.945000
C          11.989000     25.168000    -14.983000
C           9.760000     25.815000    -14.100000
C          13.510000     25.746000    -16.697000
C          12.273000     26.064000    -16.082000
N           9.497000     26.632000    -15.133000
S           8.601000     25.834000    -12.818000
C           8.224000     27.219000    -15.008000
C           7.693000     26.926000    -13.815000
C          20.449000     18.418000     -9.497000
H          17.891000     17.305000     -9.654000
H          15.839000     18.442000    -10.659000
H          18.618000     21.576000    -11.965000
H          16.836000     21.604000    -13.835000
H          13.904000     26.213000    -17.591000
H          11.668000     26.908000    -16.396000
H           7.849000     27.873000    -15.784000
H           6.699000     27.059000    -13.410000
H          21.209000     19.209000     -9.485000
C          21.058000     17.094000     -9.861000
H          20.118000     18.343000     -8.454000
H          20.253000     16.351000     -9.808000
H          21.762000     16.775000     -9.084000
C          21.742000     17.049000    -11.253000
H          22.535000     17.801000    -11.350000
C          20.769000     17.234000    -12.456000
H          22.272000     16.109000    -11.451000
H          20.405000     18.268000    -12.415000
H          19.938000     16.541000    -12.278000
C          21.494000     16.914000    -13.790000
H          22.432000     17.468000    -13.914000
C          20.577000     17.097000    -14.970000
H          21.724000     15.842000    -13.747000
H          19.770000     16.365000    -14.842000
H          21.117000     17.084000    -15.925000
H          20.065000     18.062000    -14.874000
$end

--------------------------------------------------------------

             Standard Nuclear Orientation (Angstroms)
    I     Atom           X                Y                Z
 ----------------------------------------------------------------
    1      C       4.5075711009    -2.1326145499    -2.8798250033
    2      C       3.8810645001    -1.0037784529    -2.2500039610
    3      N       3.8322333525    -3.2952694957    -3.1511539596
    4      C       2.5792473632    -1.1069700118    -1.8969364826
    5      C       2.5469060388    -3.3518111457    -2.7458765997
    6      C       1.8632493881    -2.2850536382    -2.0823195153
    7      C       0.5116789012    -2.4011277305    -1.5249345280
    8      C       0.1079563355    -1.8098436304    -0.3274224391
    9      C      -0.5391192891    -3.1502797368    -2.1797081030
   10      N      -1.1685208671    -1.9780658843     0.2081550291
   11      N      -0.4191468662    -3.7522687704    -3.3783430854
   12      C      -1.8258131095    -3.2436318283    -1.6775384108
   13      C      -2.1151194773    -2.6560925222    -0.4564485741
   14      S      -1.8433566561    -4.4535207902    -3.8052869683
   15      N      -2.6925110297    -3.9613542533    -2.3865731319
   16      C      -3.4757277122    -2.6921164439     0.2020417509
   17      S      -4.5929040966    -4.0596656002    -0.0549003267
   18      C      -4.1012219552    -1.7282737201     0.9681058186
   19      C      -5.9510842253    -3.1221906298     0.8411757961
   20      S      -3.5265679294    -0.0945747931     1.3182723027
   21      C      -5.4614596701    -1.8837309532     1.2448952832
   22      C      -7.2911644549    -3.5805551813     1.0680169657
   23      C      -5.1598548467     0.3091340818     1.9209289132
   24      C      -6.0524489754    -0.7508647996     1.8416062007
   25      N      -8.2968502422    -2.7574604073     0.8901825196
   26      S      -7.5942921716    -5.2397523826     1.5098475153
   27      C      -9.4551597271    -3.3848035250     1.2260541466
   28      C      -9.2594056198    -4.6132860037     1.8125455180
   29      C       6.0007434227    -2.0853217488    -3.0927799479
   30      H       4.4496981793    -0.1059966514    -2.0278833279
   31      H       2.1246582623    -0.2273380799    -1.4522631039
   32      H       2.0802038869    -4.2730619722    -3.0898708092
   33      H       0.8976811365    -1.3804666127     0.2870815197
   34      H      -5.4662031189     1.2912563232     2.2573923424
   35      H      -7.1134394667    -0.6717080580     2.0489594928
   36      H     -10.4076038697    -2.8720445547     1.2626655355
   37      H      -9.9515119392    -5.2114845276     2.3913558226
   38      H       6.3038416774    -2.7333410507    -3.9247104933
   39      C       6.7682164787    -2.3924033380    -1.7732436634
   40      H       6.1963214288    -1.0265311413    -3.3034590713
   41      H       6.9530110319    -1.4630608982    -1.2211253766
   42      H       7.7690908784    -2.7475458958    -2.0461780871
   43      C       6.1923936696    -3.3487423723    -0.7167320715
   44      H       5.3694212897    -2.7845975828    -0.2604129744
   45      C       7.2069781779    -3.6175080767     0.4077021292
   46      H       5.8419323385    -4.3299958474    -1.0598581022
   47      H       7.8902143742    -2.7613070665     0.4692011545
   48      H       7.8395228301    -4.4451881146     0.0627223936
   49      C       6.5504071316    -3.8279007250     1.8097650360
   50      H       5.8269405769    -3.1164630167     2.2272977072
   51      C       7.7060140311    -3.8414082782     2.8703951504
   52      H       6.0518528155    -4.8049221391     1.8149370923
   53      H       7.2769790668    -4.1603956890     3.8290536043
   54      H       8.1049330616    -2.8232975907     2.9575457971
   55      H       8.4695109163    -4.5695649733     2.5734114241
   56      C       6.5100828713     1.1621994576     2.5233889723
   57      C       5.5901415579     0.0993155024     2.2905807301
   58      N       6.1820691386     2.4086475868     2.1937041952
   59      C       4.3457856337     0.3416697892     1.7720850853
   60      C       4.9741274428     2.7021598767     1.6438738620
   61      C       3.9596599774     1.6812390695     1.4302984254
   62      C       2.6211384310     2.1301818360     0.9598864122
   63      C       2.3953092374     3.2481531389     0.0704498820
   64      C       1.4698385864     1.6109178844     1.6208407345
   65      N       1.1716267813     3.7146604202    -0.2883177352
   66      N       1.4364201422     0.7294784476     2.6861588686
   67      C       0.2392342171     2.1532212485     1.2350908834
   68      C       0.0901011933     3.1570636881     0.2532081523
   69      S      -0.1838792266     0.4558847876     2.8918588069
   70      N      -0.8194267674     1.5605656677     1.8429348457
   71      C      -1.1842488288     3.7266599280    -0.2699841114
   72      S      -2.7556127889     3.1126303702     0.2900810696
   73      C      -1.3463680344     4.7067464360    -1.2517451821
   74      C      -3.5058053453     4.4475316576    -0.5673328801
   75      S      -0.1106137182     5.6295462043    -2.1912588103
   76      C      -2.6309156970     5.1807132032    -1.3080284482
   77      C      -4.9327500736     4.6853869254    -0.5187570238
   78      C      -1.4641042674     6.7025448742    -2.6892961459
   79      C      -2.7250961715     6.3600341871    -2.1396564030
   80      N      -5.4984363801     5.5690020778    -1.3571902442
   81      S      -6.0029055107     3.9406579216     0.6158407249
   82      C      -6.8994841151     5.5740313588    -1.2239125250
   83      C      -7.2696937372     4.8136654460    -0.1866818302
   84      C       7.8152212670     1.0405114008     3.2709722686
   85      H       5.9022522298    -0.8883259515     2.6175826979
   86      H       3.5662390263    -0.4103323336     1.7076033496
   87      H       4.8831831001     3.7655933511     1.4287916172
   88      H       3.2304802888     3.5748146032    -0.5474130499
   89      H      -1.2877577817     7.4910733460    -3.4101884861
   90      H      -3.6143038847     6.9581957632    -2.3083850952
   91      H      -7.5033768503     6.2058601558    -1.8615824519
   92      H      -8.2348812531     4.4515624072     0.1404946491
   93      H       8.2021614098     2.0319061433     3.5371278441
   94      C       8.8958313992     0.1852844134     2.6732921350
   95      H       7.5426503297     0.5878915536     4.2321566204
   96      H       8.4487523008    -0.7967464465     2.4767757995
   97      H       9.6701430472    -0.0229354391     3.4204145913
   98      C       9.5394217924     0.7527610721     1.3805018784
   99      H       9.9718366124     1.7491613488     1.5353111546
  100      C       8.5697923343     0.8448982053     0.1641579868
  101      H      10.3964776148     0.1678442328     1.0240869399
  102      H       7.8279614301     1.6159468068     0.4060339130
  103      H       8.0793713290    -0.1336528247     0.0976815293
  104      C       9.3595227015     1.1688499959    -1.1315897450
  105      H      10.0031597200     2.0511322404    -1.0344021453
  106      C       8.4421988389     1.2748809117    -2.3207290875
  107      H       9.9933312231     0.2918938752    -1.3137098162
  108      H       7.9890999067     0.2832228147    -2.4422715749
  109      H       8.9417137473     1.7071363233    -3.1967622578
  110      H       7.5916317061     1.9142946909    -2.0556431174
 ----------------------------------------------------------------

   10   -5663.5124641514      6.54E-06 Convergence criterion met
 Total energy in the final basis set = -5663.5124641514

                    Orbital Energies (a.u.)
 --------------------------------------------------------------

 Alpha MOs
 -- Occupied --
-88.988 -88.988 -88.927 -88.925 -88.925 -88.923 -88.912 -88.907
-14.389 -14.388 -14.386 -14.383 -14.356 -14.351 -14.344 -14.340
-14.332 -14.326 -10.268 -10.266 -10.266 -10.263 -10.259 -10.258
-10.255 -10.251 -10.246 -10.244 -10.244 -10.244 -10.242 -10.236
-10.233 -10.233 -10.232 -10.232 -10.232 -10.231 -10.231 -10.230
-10.230 -10.230 -10.228 -10.227 -10.227 -10.225 -10.224 -10.216
-10.215 -10.209 -10.206 -10.205 -10.202 -10.201 -10.198 -10.197
-10.188 -10.185 -10.185 -10.185 -10.184 -10.180 -10.176 -10.175
-10.175 -10.174 -10.172 -10.169  -8.043  -8.043  -7.988  -7.987
 -7.984  -7.980  -7.970  -7.966  -6.008  -6.008  -6.003  -6.002
 -6.001  -6.000  -5.952  -5.951  -5.949  -5.949  -5.947  -5.945
 -5.945  -5.945  -5.944  -5.941  -5.941  -5.937  -5.934  -5.931
 -5.931  -5.927  -5.926  -5.922  -1.029  -1.027  -0.976  -0.962
 -0.959  -0.952  -0.937  -0.934  -0.911  -0.905  -0.899  -0.897
 -0.837  -0.836  -0.833  -0.832  -0.809  -0.808  -0.806  -0.805
 -0.803  -0.801  -0.797  -0.795  -0.785  -0.784  -0.770  -0.770
 -0.750  -0.747  -0.741  -0.738  -0.725  -0.720  -0.713  -0.711
 -0.692  -0.692  -0.676  -0.673  -0.656  -0.655  -0.644  -0.643
 -0.635  -0.631  -0.627  -0.625  -0.614  -0.609  -0.598  -0.594
 -0.593  -0.591  -0.583  -0.581  -0.578  -0.577  -0.570  -0.566
 -0.552  -0.550  -0.537  -0.533  -0.527  -0.523  -0.513  -0.511
 -0.508  -0.505  -0.499  -0.498  -0.491  -0.487  -0.477  -0.475
 -0.473  -0.471  -0.468  -0.467  -0.466  -0.463  -0.451  -0.449
 -0.446  -0.445  -0.441  -0.440  -0.434  -0.433  -0.432  -0.430
 -0.425  -0.424  -0.422  -0.421  -0.419  -0.415  -0.412  -0.412
 -0.411  -0.409  -0.409  -0.406  -0.404  -0.398  -0.398  -0.395
 -0.393  -0.393  -0.389  -0.388  -0.388  -0.387  -0.386  -0.385
 -0.384  -0.379  -0.378  -0.374  -0.367  -0.365  -0.360  -0.358
 -0.357  -0.355  -0.350  -0.350  -0.346  -0.344  -0.344  -0.341
 -0.339  -0.334  -0.333  -0.331  -0.328  -0.326  -0.325  -0.317
 -0.315  -0.313  -0.311  -0.303  -0.302  -0.301  -0.300  -0.299
 -0.296  -0.294  -0.292  -0.290  -0.288  -0.286  -0.285  -0.279
 -0.277  -0.274  -0.271  -0.267  -0.255  -0.254  -0.251  -0.247
 -0.245  -0.243  -0.232  -0.231  -0.193  -0.192

          Ground-State Mulliken Net Atomic Charges

     Atom                 Charge (a.u.)
  ----------------------------------------
      1 C                     0.261111
      2 C                    -0.114268
      3 N                    -0.473850
      4 C                    -0.082261
      5 C                     0.082835
      6 C                     0.038948
      7 C                     0.060940
      8 C                     0.038505
      9 C                     0.241738
     10 N                    -0.543275
     11 N                    -0.553203
     12 C                     0.255069
     13 C                     0.289915
     14 S                     0.588533
     15 N                    -0.597826
     16 C                    -0.202128
     17 S                     0.301364
     18 C                    -0.137429
     19 C                    -0.246643
     20 S                     0.306109
     21 C                     0.191903
     22 C                     0.043271
     23 C                    -0.325251
     24 C                    -0.051376
     25 N                    -0.414894
     26 S                     0.257261
     27 C                     0.123616
     28 C                    -0.296816
     29 C                    -0.237469
     30 H                     0.099103
     31 H                     0.101043
     32 H                     0.121527
     33 H                     0.114705
     34 H                     0.131150
     35 H                     0.121172
     36 H                     0.115643
     37 H                     0.128090
     38 H                     0.118023
     39 C                    -0.196147
     40 H                     0.109411
     41 H                     0.107291
     42 H                     0.096140
     43 C                    -0.171562
     44 H                     0.094607
     45 C                    -0.186841
     46 H                     0.106924
     47 H                     0.093051
     48 H                     0.098904
     49 C                    -0.186561
     50 H                     0.095550
     51 C                    -0.329601
     52 H                     0.098194
     53 H                     0.095976
     54 H                     0.109533
     55 H                     0.106698
     56 C                     0.285027
     57 C                    -0.120794
     58 N                    -0.480869
     59 C                    -0.062141
     60 C                     0.063110
     61 C                     0.016159
     62 C                    -0.028152
     63 C                     0.062615
     64 C                     0.248849
     65 N                    -0.533611
     66 N                    -0.567388
     67 C                     0.205623
     68 C                     0.337152
     69 S                     0.640566
     70 N                    -0.569643
     71 C                    -0.229362
     72 S                     0.352629
     73 C                    -0.128146
     74 C                    -0.256796
     75 S                     0.281738
     76 C                     0.193518
     77 C                     0.064368
     78 C                    -0.312383
     79 C                    -0.048755
     80 N                    -0.459129
     81 S                     0.265123
     82 C                     0.136030
     83 C                    -0.312382
     84 C                    -0.222051
     85 H                     0.093002
     86 H                     0.114378
     87 H                     0.110089
     88 H                     0.117589
     89 H                     0.128792
     90 H                     0.128445
     91 H                     0.122884
     92 H                     0.127638
     93 H                     0.121688
     94 C                    -0.200166
     95 H                     0.107562
     96 H                     0.100023
     97 H                     0.095596
     98 C                    -0.173993
     99 H                     0.093876
    100 C                    -0.195582
    101 H                     0.085311
    102 H                     0.116197
    103 H                     0.097625
    104 C                    -0.178811
    105 H                     0.094276
    106 C                    -0.321425
    107 H                     0.091844
    108 H                     0.107274
    109 H                     0.100231
    110 H                     0.098302
  ----------------------------------------
  Sum of atomic charges =     0.000000

                    Cartesian Multipole Moments
 -----------------------------------------------------------------
    Charge (ESU x 10^10)
                 0.0000
    Dipole Moment (Debye)
         X      -2.9916      Y      -1.1515      Z       1.3149
       Tot       3.4647
    Quadrupole Moments (Debye-Ang)
        XX    -393.1185     XY      -1.9446     YY    -437.1174
        XZ      -8.4554     YZ     -12.2352     ZZ    -447.7060

 Total job time:  107.55s(wall), 1199.75s(cpu)
        *  Thank you very much for using Q-Chem.  Have a nice day.  *
