 Q-Chem 4.4, Q-Chem, Inc., Pleasanton, CA (2016)
 Q-Chem 4.4.2 for Intel X86 Linux

User input:
--------------------------------------------------------------
$comment
SP
$end

$rem
MEM_STATIC 5000
MEM_TOTAL 20000
JOBTYPE SP
EXCHANGE B3LYP
BASIS 6-31g(d,p)
$end

$molecule
0 1
C           8.030000     17.966000     -7.283000
C           6.664000     17.723000     -7.488000
N           8.841000     16.992000     -6.773000
C           6.083000     16.515000     -6.994000
C           8.352000     15.749000     -6.500000
C           6.940000     15.482000     -6.701000
C           6.445000     14.165000     -6.454000
C           5.275000     13.913000     -5.735000
C           7.057000     13.058000     -7.016000
N           4.737000     12.678000     -5.534000
N           8.215000     13.109000     -7.724000
C           6.595000     11.754000     -6.761000
C           5.436000     11.563000     -5.942000
S           8.785000     11.591000     -7.894000
N           7.469000     10.773000     -7.265000
C           4.928000     10.276000     -5.465000
S           5.609000      8.742000     -5.924000
C           3.812000     10.089000     -4.670000
C           4.296000      7.777000     -4.987000
S           2.762000     11.224000     -3.907000
C           3.505000      8.712000     -4.357000
C           4.022000      6.367000     -5.058000
C           1.759000      9.872000     -3.240000
C           2.318000      8.654000     -3.531000
N           4.473000      5.760000     -6.144000
S           3.242000      5.425000     -3.845000
C           4.187000      4.429000     -6.009000
C           3.591000      4.030000     -4.792000
C           8.622000     19.269000     -7.768000
H           6.027000     18.540000     -7.812000
H           5.018000     16.450000     -7.196000
H           9.154000     15.039000     -6.303000
H           4.593000     14.724000     -5.483000
H           0.964000     10.158000     -2.564000
H           1.818000      7.712000     -3.335000
H           4.497000      3.756000     -6.798000
H           3.288000      3.058000     -4.426000
H           9.446000     19.100000     -8.472000
C           9.037000     20.263000     -6.609000
H           7.896000     19.820000     -8.379000
H           9.981000     19.953000     -6.145000
H           8.285000     20.256000     -5.810000
C           9.210000     21.673000     -7.130000
H           9.994000     21.684000     -7.896000
C           9.576000     22.733000     -6.014000
H           8.303000     21.977000     -7.668000
H          10.390000     22.261000     -5.449000
H           8.705000     22.803000     -5.350000
C           9.882000     24.083000     -6.680000
H          10.845000     24.114000     -7.205000
C          10.014000     25.299000     -5.690000
H           9.258000     24.347000     -7.543000
H           9.113000     25.357000     -5.067000
H          10.172000     26.295000     -6.120000
H          10.912000     25.022000     -5.123000
C           4.459000      6.200000    -10.191000
C           4.353000      4.849000     -9.723000
N           3.589000      6.744000    -11.032000
C           3.416000      3.990000    -10.234000
C           2.698000      5.896000    -11.563000
C           2.541000      4.513000    -11.191000
C           1.641000      3.616000    -11.995000
C           0.436000      4.099000    -12.565000
C           1.935000      2.253000    -12.333000
N          -0.450000      3.351000    -13.267000
N           3.072000      1.568000    -12.002000
C           1.130000      1.540000    -13.187000
C          -0.065000      2.095000    -13.729000
S           3.084000      0.176000    -12.816000
N           1.599000      0.331000    -13.494000
C          -0.928000      1.256000    -14.591000
S          -0.462000      0.024000    -15.814000
C          -2.269000      1.295000    -14.491000
C          -2.159000     -0.407000    -16.104000
S          -3.256000      2.274000    -13.386000
C          -2.918000      0.358000    -15.283000
C          -2.671000     -1.259000    -17.164000
C          -4.615000      1.457000    -14.105000
C          -4.303000      0.568000    -15.138000
N          -1.742000     -1.860000    -17.816000
S          -4.308000     -1.877000    -17.415000
C          -2.232000     -2.857000    -18.595000
C          -3.609000     -3.014000    -18.499000
C           5.534000      7.026000     -9.629000
H           5.055000      4.410000     -9.020000
H           3.459000      2.918000    -10.064000
H           1.976000      6.313000    -12.264000
H           0.131000      5.133000    -12.404000
H          -5.588000      1.612000    -13.657000
H          -5.074000     -0.000000    -15.646000
H          -1.539000     -3.462000    -19.166000
H          -4.294000     -3.648000    -19.046000
H           5.447000      8.078000     -9.927000
C           6.909000      6.598000    -10.193000
H           5.568000      6.796000     -8.557000
H           6.901000      6.852000    -11.260000
H           7.109000      5.525000    -10.084000
C           8.070000      7.274000     -9.395000
H           8.876000      7.326000    -10.137000
C           8.540000      6.442000     -8.215000
H           7.776000      8.284000     -9.085000
H           8.884000      5.475000     -8.602000
H           7.721000      6.223000     -7.519000
C           9.721000      7.152000     -7.432000
H          10.732000      7.056000     -7.846000
C           9.894000      6.575000     -6.024000
H           9.579000      8.226000     -7.259000
H           9.023000      6.799000     -5.397000
H          10.774000      7.047000     -5.570000
H          10.072000      5.493000     -6.031000
$end

--------------------------------------------------------------

             Standard Nuclear Orientation (Angstroms)
    I     Atom           X                Y                Z
 ----------------------------------------------------------------
    1      C     -11.0041914710     2.8871412957     0.1696083612
    2      C     -10.1234617611     3.2313495552    -0.8661840177
    3      N     -10.7996306427     1.7573910195     0.9100921091
    4      C      -9.1125826096     2.3046480442    -1.2664447463
    5      C      -9.7094319182     0.9682391907     0.6923649124
    6      C      -8.7910081954     1.3065966080    -0.3788242042
    7      C      -7.6284962876     0.4991666785    -0.5715571104
    8      C      -7.2118410336     0.0502875843    -1.8262566593
    9      C      -6.7839898929     0.2044051389     0.4847390526
   10      N      -6.0764171037    -0.6653481397    -2.0580928298
   11      N      -7.0401154840     0.5369931702     1.7764874349
   12      C      -5.6496929924    -0.6098834475     0.3138892950
   13      C      -5.3280382377    -1.1082843106    -0.9894363736
   14      S      -6.0135592982    -0.2888135241     2.7368778249
   15      N      -5.0450190262    -0.9421696668     1.5403509793
   16      C      -4.2794418375    -2.0813182288    -1.2986492182
   17      S      -3.1687276751    -2.7088035173    -0.1153596247
   18      C      -3.9699263307    -2.5680568045    -2.5555245939
   19      C      -2.2129034218    -3.6912020004    -1.4016162932
   20      S      -4.7273397974    -2.3194369812    -4.0843826723
   21      C      -2.8700650914    -3.5044821040    -2.5974759088
   22      C      -0.9414183144    -4.3443578069    -1.2437235632
   23      C      -3.4879962843    -3.3677056729    -4.8868553550
   24      C      -2.6447358203    -3.9291983504    -3.9625589940
   25      N      -0.2052697220    -3.9066556774    -0.2348885441
   26      S      -0.3537789129    -5.6581138253    -2.1902213486
   27      C       0.9228933214    -4.6794757971    -0.1951492657
   28      C       0.9960031884    -5.7408738733    -1.1244474262
   29      C     -12.0992052904     3.8561648295     0.5509692482
   30      H     -10.3573527252     4.0855980709    -1.4937097067
   31      H      -8.5073165928     2.6751604317    -2.0884104510
   32      H      -9.5804582130     0.2370650994     1.4891479642
   33      H      -7.6610216063     0.4481774931    -2.7352502972
   34      H      -3.6465128524    -3.5728546701    -5.9373711267
   35      H      -1.7569533686    -4.4888838524    -4.2352758020
   36      H       1.6499768234    -4.4846194984     0.5826235829
   37      H       1.7499991993    -6.4988308472    -1.2903999532
   38      H     -12.0348406720     4.1413429262     1.6081748333
   39      C     -13.5552061938     3.3737700379     0.1625125140
   40      H     -11.9628283694     4.8158319327     0.0367335176
   41      H     -13.9180806553     2.6145995648     0.8657296341
   42      H     -13.5509315380     2.8992146783    -0.8267968097
   43      C     -14.5356102960     4.5262677195     0.1676981097
   44      H     -14.5709151465     4.9691481349     1.1697677206
   45      C     -16.0045817342     4.1258552940    -0.2621911824
   46      H     -14.1534546269     5.3332137702    -0.4705057102
   47      H     -16.2234060559     3.2263682271     0.3274221932
   48      H     -15.9528512630     3.8293363165    -1.3175761616
   49      C     -16.9355137807     5.3316796165    -0.0645925284
   50      H     -17.1659978043     5.5507002292     0.9855798794
   51      C     -18.3729011524     5.1716801643    -0.6846713288
   52      H     -16.5109410778     6.3134012655    -0.3091362340
   53      H     -18.2813291410     4.9084286277    -1.7456176966
   54      H     -19.0554091428     6.0274512046    -0.6236896137
   55      H     -18.7846362864     4.3582652777    -0.0735638082
   56      C       1.1365657766    -0.4066295238     1.3529714682
   57      C       2.0625973171    -1.4994756415     1.4130875989
   58      N       1.4377758029     0.7671678186     0.8129813580
   59      C       3.3714696926    -1.3449384811     1.0389988787
   60      C       2.7259546630     0.9333005043     0.4844373654
   61      C       3.7398939495    -0.0881929510     0.5492466561
   62      C       5.1847023499     0.2727524929     0.3412272518
   63      C       5.5692155108     1.2717431687    -0.5884938132
   64      C       6.2796437850    -0.2697938742     1.0930222328
   65      N       6.8468964725     1.6291128616    -0.8662027664
   66      N       6.1852619284    -1.1716993963     2.1173334620
   67      C       7.5570963316     0.2105085659     0.9409217486
   68      C       7.8682903979     1.2241569449    -0.0106502229
   69      S       7.6258155334    -1.2827096462     2.8334940834
   70      N       8.4395364134    -0.3125893276     1.7915445179
   71      C       9.2748278060     1.6550912793    -0.1770296663
   72      S      10.5583802297     1.8569491936     1.0649266767
   73      C       9.7932819737     1.9028135797    -1.3934345898
   74      C      11.7699008693     2.2421996880    -0.1734067987
   75      S       8.9897001117     1.7763794064    -2.9720116677
   76      C      11.1542569567     2.1747551271    -1.3783054684
   77      C      13.1145185288     2.7449887853     0.0521025658
   78      C      10.5378238789     2.2178100368    -3.6351728848
   79      C      11.5373969501     2.4900847248    -2.6963043266
   80      N      13.4544385946     2.7274932873     1.2904459174
   81      S      14.4320377513     2.9826264753    -1.1021787806
   82      C      14.7876199139     2.9197099057     1.4536339729
   83      C      15.4794545927     3.0714395130     0.2585034765
   84      C      -0.2281385072    -0.6518552113     1.8337953236
   85      H       1.8094280930    -2.4662637618     1.8384816215
   86      H       4.1340934160    -2.0791987710     1.2823091399
   87      H       3.0045998073     1.8909949172     0.0465420641
   88      H       4.8144392813     1.7788375766    -1.1895513019
   89      H      10.6568909434     2.1649844353    -4.7096450761
   90      H      12.5404637992     2.7637568446    -3.0030443909
   91      H      15.2010139045     2.8888520170     2.4538680451
   92      H      16.5133342902     3.3206296359     0.0600417580
   93      H      -0.9021540846     0.1844771276     1.6116957504
   94      C      -0.2590238751    -0.7473384146     3.3771144908
   95      H      -0.5067193453    -1.6480911508     1.4689026414
   96      H      -0.0130694286     0.2520838080     3.7562327194
   97      H       0.4605950547    -1.4689930739     3.7827906530
   98      C      -1.6406581438    -1.2843188505     3.8715229848
   99      H      -1.7282566690    -0.8433023053     4.8718903699
  100      C      -1.6777392967    -2.7971956818     3.9954289227
  101      H      -2.4432565554    -0.9127610175     3.2231276066
  102      H      -0.8993020584    -3.0946770577     4.7086850456
  103      H      -1.4324650287    -3.2897820888     3.0465679397
  104      C      -3.0889767344    -3.3080461828     4.5047330167
  105      H      -3.2858675094    -3.2589218500     5.5824870808
  106      C      -3.2928577547    -4.7966017763     4.2081579424
  107      H      -3.9524064838    -2.8259677534     4.0296978015
  108      H      -3.3481675109    -4.9789338472     3.1285089963
  109      H      -4.2451489135    -5.1043968287     4.6572723540
  110      H      -2.5080725692    -5.4248407135     4.6462048010
 ----------------------------------------------------------------

    9   -5663.5101531952      8.07E-06 Convergence criterion met
 Total energy in the final basis set = -5663.5101531952

                    Orbital Energies (a.u.)
 --------------------------------------------------------------

 Alpha MOs
 -- Occupied --
-88.992 -88.989 -88.937 -88.927 -88.922 -88.919 -88.909 -88.908
-14.389 -14.379 -14.375 -14.374 -14.353 -14.351 -14.350 -14.336
-14.328 -14.325 -10.272 -10.267 -10.264 -10.263 -10.259 -10.253
-10.252 -10.247 -10.246 -10.241 -10.238 -10.238 -10.237 -10.237
-10.235 -10.233 -10.233 -10.233 -10.232 -10.229 -10.229 -10.228
-10.226 -10.224 -10.223 -10.221 -10.220 -10.216 -10.215 -10.214
-10.211 -10.209 -10.208 -10.199 -10.199 -10.198 -10.196 -10.189
-10.188 -10.184 -10.181 -10.181 -10.177 -10.176 -10.175 -10.173
-10.173 -10.168 -10.167 -10.164  -8.047  -8.044  -7.999  -7.989
 -7.980  -7.977  -7.969  -7.968  -6.012  -6.009  -6.006  -6.004
 -6.004  -6.002  -5.963  -5.959  -5.956  -5.952  -5.949  -5.946
 -5.945  -5.942  -5.941  -5.938  -5.936  -5.934  -5.933  -5.933
 -5.930  -5.929  -5.925  -5.924  -1.036  -1.022  -0.981  -0.979
 -0.949  -0.943  -0.939  -0.927  -0.913  -0.905  -0.894  -0.889
 -0.840  -0.840  -0.837  -0.828  -0.823  -0.811  -0.806  -0.806
 -0.803  -0.802  -0.799  -0.797  -0.781  -0.778  -0.766  -0.763
 -0.748  -0.747  -0.741  -0.736  -0.723  -0.720  -0.709  -0.707
 -0.691  -0.688  -0.674  -0.672  -0.656  -0.646  -0.642  -0.640
 -0.635  -0.630  -0.623  -0.619  -0.612  -0.606  -0.604  -0.596
 -0.593  -0.589  -0.582  -0.578  -0.577  -0.576  -0.574  -0.560
 -0.545  -0.542  -0.540  -0.535  -0.526  -0.522  -0.519  -0.518
 -0.508  -0.500  -0.498  -0.495  -0.486  -0.484  -0.477  -0.473
 -0.472  -0.469  -0.468  -0.466  -0.461  -0.454  -0.452  -0.448
 -0.444  -0.442  -0.439  -0.438  -0.436  -0.434  -0.433  -0.429
 -0.428  -0.426  -0.423  -0.421  -0.418  -0.413  -0.413  -0.411
 -0.411  -0.407  -0.407  -0.401  -0.400  -0.397  -0.396  -0.395
 -0.395  -0.394  -0.389  -0.388  -0.387  -0.385  -0.382  -0.380
 -0.377  -0.376  -0.372  -0.367  -0.366  -0.358  -0.353  -0.351
 -0.350  -0.349  -0.344  -0.343  -0.342  -0.340  -0.336  -0.335
 -0.335  -0.331  -0.331  -0.331  -0.328  -0.324  -0.322  -0.318
 -0.315  -0.308  -0.307  -0.305  -0.303  -0.302  -0.301  -0.300
 -0.298  -0.297  -0.296  -0.295  -0.293  -0.286  -0.284  -0.282
 -0.277  -0.267  -0.263  -0.259  -0.255  -0.251  -0.250  -0.244
 -0.242  -0.240  -0.234  -0.220  -0.195  -0.190

          Ground-State Mulliken Net Atomic Charges

     Atom                 Charge (a.u.)
  ----------------------------------------
      1 C                     0.282991
      2 C                    -0.125011
      3 N                    -0.477440
      4 C                    -0.084031
      5 C                     0.095830
      6 C                     0.018826
      7 C                     0.045238
      8 C                     0.048330
      9 C                     0.236303
     10 N                    -0.529321
     11 N                    -0.561472
     12 C                     0.203722
     13 C                     0.318290
     14 S                     0.623401
     15 N                    -0.580336
     16 C                    -0.217876
     17 S                     0.347294
     18 C                    -0.118681
     19 C                    -0.234843
     20 S                     0.284304
     21 C                     0.146745
     22 C                     0.041094
     23 C                    -0.310470
     24 C                    -0.071310
     25 N                    -0.419938
     26 S                     0.301200
     27 C                     0.125115
     28 C                    -0.318635
     29 C                    -0.230086
     30 H                     0.088352
     31 H                     0.106880
     32 H                     0.125093
     33 H                     0.111680
     34 H                     0.137007
     35 H                     0.108325
     36 H                     0.107087
     37 H                     0.142019
     38 H                     0.118179
     39 C                    -0.175866
     40 H                     0.095988
     41 H                     0.110534
     42 H                     0.093737
     43 C                    -0.184837
     44 H                     0.093498
     45 C                    -0.168613
     46 H                     0.087911
     47 H                     0.098121
     48 H                     0.095689
     49 C                    -0.187563
     50 H                     0.094698
     51 C                    -0.321025
     52 H                     0.093127
     53 H                     0.100796
     54 H                     0.100072
     55 H                     0.105557
     56 C                     0.298593
     57 C                    -0.116381
     58 N                    -0.478989
     59 C                    -0.062042
     60 C                     0.073378
     61 C                     0.026279
     62 C                     0.043523
     63 C                     0.049207
     64 C                     0.230138
     65 N                    -0.518629
     66 N                    -0.566278
     67 C                     0.230140
     68 C                     0.251154
     69 S                     0.607236
     70 N                    -0.570676
     71 C                    -0.225130
     72 S                     0.343681
     73 C                    -0.097995
     74 C                    -0.226234
     75 S                     0.292153
     76 C                     0.165570
     77 C                     0.072043
     78 C                    -0.294288
     79 C                    -0.105971
     80 N                    -0.416837
     81 S                     0.276140
     82 C                     0.120988
     83 C                    -0.326864
     84 C                    -0.249194
     85 H                     0.083603
     86 H                     0.119642
     87 H                     0.092429
     88 H                     0.118042
     89 H                     0.126146
     90 H                     0.102225
     91 H                     0.115473
     92 H                     0.138531
     93 H                     0.113369
     94 C                    -0.193872
     95 H                     0.145985
     96 H                     0.096562
     97 H                     0.087375
     98 C                    -0.184336
     99 H                     0.086797
    100 C                    -0.172815
    101 H                     0.108260
    102 H                     0.089920
    103 H                     0.105334
    104 C                    -0.183552
    105 H                     0.092344
    106 C                    -0.322866
    107 H                     0.098985
    108 H                     0.108559
    109 H                     0.090643
    110 H                     0.096820
  ----------------------------------------
  Sum of atomic charges =     0.000000

                    Cartesian Multipole Moments
 -----------------------------------------------------------------
    Charge (ESU x 10^10)
                 0.0000
    Dipole Moment (Debye)
         X       2.0041      Y      -2.6196      Z      -2.1449
       Tot       3.9344
    Quadrupole Moments (Debye-Ang)
        XX    -394.5395     XY     -19.3060     YY    -424.4838
        XZ       0.6264     YZ      -0.5004     ZZ    -422.0628

 Total job time:  85.56s(wall), 933.17s(cpu)
        *  Thank you very much for using Q-Chem.  Have a nice day.  *
