 Q-Chem 4.4, Q-Chem, Inc., Pleasanton, CA (2016)
 Q-Chem 4.4.2 for Intel X86 Linux

User input:
--------------------------------------------------------------
$comment
SP
$end

$rem
MEM_STATIC 5000
MEM_TOTAL 20000
JOBTYPE SP
EXCHANGE B3LYP
BASIS 6-31g(d,p)
$end

$molecule
0 1
C         -10.758000      9.711000      0.025000
C         -10.033000      9.888000     -1.168000
N         -10.299000      9.071000      1.057000
C          -8.733000      9.386000     -1.207000
C          -9.096000      8.549000      1.059000
C          -8.216000      8.697000     -0.078000
C          -6.770000      8.280000     -0.042000
C          -5.788000      9.079000     -0.666000
C          -6.220000      7.190000      0.738000
N          -4.495000      8.854000     -0.601000
N          -6.939000      6.360000      1.487000
C          -4.849000      6.984000      0.861000
C          -3.980000      7.884000      0.193000
S          -5.904000      5.487000      2.318000
N          -4.506000      6.132000      1.850000
C          -2.553000      7.657000      0.145000
S          -1.367000      8.989000      0.172000
C          -1.934000      6.447000      0.059000
C          -0.026000      7.801000      0.019000
S          -2.679000      4.960000     -0.318000
C          -0.556000      6.570000     -0.083000
C           1.352000      8.133000     -0.114000
C          -1.071000      4.322000     -0.329000
C          -0.049000      5.247000     -0.314000
N           1.701000      9.425000     -0.004000
S           2.655000      6.994000     -0.419000
C           3.086000      9.531000     -0.093000
C           3.710000      8.339000     -0.344000
C         -12.150000     10.241000      0.226000
H         -10.574000     10.315000     -2.007000
H          -8.027000      9.431000     -2.030000
H          -8.825000      7.966000      1.938000
H          -6.096000      9.953000     -1.239000
H          -1.037000      3.244000     -0.418000
H           1.008000      5.016000     -0.386000
H           3.547000     10.441000      0.267000
H           4.777000      8.191000     -0.443000
H         -12.137000     11.275000      0.593000
C         -13.084000      9.355000      1.057000
H         -12.590000     10.365000     -0.772000
H         -12.800000      9.464000      2.111000
H         -12.969000      8.287000      0.835000
C         -14.580000      9.672000      0.932000
H         -14.891000     10.647000      1.327000
C         -15.429000      8.586000      1.668000
H         -14.882000      9.712000     -0.122000
H         -15.340000      8.595000      2.761000
H         -15.162000      7.579000      1.323000
C         -16.950000      8.725000      1.389000
H         -17.200000      9.777000      1.575000
C         -17.660000      7.786000      2.329000
H         -17.089000      8.488000      0.327000
H         -17.589000      6.734000      2.024000
H         -18.741000      7.963000      2.271000
H         -17.378000      7.800000      3.389000
C           3.481000     -1.004000     -3.589000
C           2.992000     -0.332000     -2.483000
N           3.042000     -0.834000     -4.806000
C           2.096000      0.738000     -2.688000
C           2.157000      0.105000     -5.031000
C           1.573000      0.898000     -3.974000
C           0.530000      1.856000     -4.363000
C           0.445000      3.023000     -3.618000
C          -0.513000      1.747000     -5.331000
N          -0.418000      4.021000     -3.817000
N          -0.545000      0.654000     -6.104000
C          -1.441000      2.771000     -5.583000
C          -1.309000      3.975000     -4.876000
S          -1.846000      0.922000     -7.060000
N          -2.247000      2.450000     -6.615000
C          -2.186000      5.175000     -5.059000
S          -3.536000      5.348000     -6.194000
C          -2.004000      6.462000     -4.465000
C          -3.785000      7.021000     -5.739000
S          -0.699000      6.956000     -3.447000
C          -2.869000      7.444000     -4.843000
C          -4.901000      7.838000     -6.191000
C          -1.400000      8.667000     -3.521000
C          -2.565000      8.713000     -4.287000
N          -4.620000      9.096000     -6.247000
S          -6.608000      7.337000     -6.380000
C          -5.754000      9.804000     -6.453000
C          -6.921000      9.088000     -6.535000
C           4.407000     -2.182000     -3.323000
H           3.414000     -0.539000     -1.504000
H           1.785000      1.345000     -1.843000
H           1.769000      0.118000     -6.048000
H           1.065000      3.158000     -2.733000
H          -0.962000      9.495000     -2.980000
H          -3.018000      9.686000     -4.442000
H          -5.600000     10.874000     -6.502000
H          -7.928000      9.379000     -6.803000
H           4.590000     -2.209000     -2.242000
C           5.772000     -2.146000     -4.096000
H           3.903000     -3.140000     -3.503000
H           6.260000     -1.187000     -3.882000
H           5.491000     -2.263000     -5.149000
C           6.796000     -3.245000     -3.666000
H           7.768000     -3.116000     -4.158000
C           6.299000     -4.693000     -3.901000
H           6.931000     -2.998000     -2.605000
H           5.366000     -4.823000     -3.338000
H           6.969000     -5.391000     -3.384000
C           6.229000     -5.058000     -5.371000
H           5.443000     -4.460000     -5.847000
C           5.838000     -6.483000     -5.606000
H           7.101000     -4.760000     -5.966000
H           6.567000     -7.053000     -5.017000
H           6.067000     -6.791000     -6.634000
H           4.848000     -6.683000     -5.177000
$end

--------------------------------------------------------------

             Standard Nuclear Orientation (Angstroms)
    I     Atom           X                Y                Z
 ----------------------------------------------------------------
    1      C      -9.2326668890    -0.5042465080     0.4468618637
    2      C      -8.4529020540    -0.6086347575    -0.7198741371
    3      N      -8.7663217445    -0.1018953152     1.5896394990
    4      C      -7.1211109551    -0.2048215578    -0.6374583091
    5      C      -7.5123984819     0.2556584675     1.7293847819
    6      C      -6.6048244621     0.2508445327     0.6045029105
    7      C      -5.2178546580     0.8309737928     0.6810914469
    8      C      -4.6974982591     1.5650982804    -0.4062868014
    9      C      -4.3773870406     0.8686748829     1.8605798156
   10      N      -3.5439799315     2.1943485891    -0.3945174806
   11      N      -4.6977700570     0.3307894911     3.0331394209
   12      C      -3.1846062321     1.5849305907     1.8987597044
   13      C      -2.7992398560     2.2951210357     0.7332094961
   14      S      -3.5916791203     0.8085194886     4.0686353838
   15      N      -2.6890597186     1.7648892309     3.1412260181
   16      C      -1.5088510403     2.9398825198     0.6365589251
   17      S      -1.2631084586     4.4694631516    -0.2474900974
   18      C      -0.3409166247     2.4846243022     1.1688428307
   19      C       0.4949835282     4.4041575605     0.1238342160
   20      S      -0.0623330825     0.9240890628     1.7976861949
   21      C       0.7456467903     3.2724942689     0.8044009824
   22      C       1.4679692329     5.3285008980    -0.3512291617
   23      C       1.5851642295     1.4324562755     1.9396171082
   24      C       1.9176904127     2.6057352163     1.2968287568
   25      N       1.0360053111     6.3996905596    -1.0361560769
   26      S       3.2055267034     5.1922753086    -0.1265257455
   27      C       2.1246119324     7.2087816897    -1.3487087401
   28      C       3.3265436754     6.6807125919    -0.9617408950
   29      C     -10.6928517308    -0.8574130898     0.4926722689
   30      H      -8.9184740955    -1.0901911309    -1.5744366762
   31      H      -6.3750488650    -0.2081308594    -1.4256019549
   32      H      -7.1923234017     0.5061303573     2.7397247125
   33      H      -5.2760539182     1.6383077131    -1.3266034471
   34      H       2.2087762930     0.7254631441     2.4710582679
   35      H       2.9157438558     3.0244839463     1.2310045529
   36      H       1.9272715422     8.2348524690    -1.6288096620
   37      H       4.2949321250     7.1432353153    -1.0977208234
   38      H     -11.3214836766    -0.0047799580     0.2065733010
   39      C     -11.1774800021    -1.5098681177     1.7916529752
   40      H     -10.8768394440    -1.5562315677    -0.3336335197
   41      H     -11.2577053065    -0.7235595878     2.5523998426
   42      H     -10.4616068313    -2.2345337096     2.1984924806
   43      C     -12.5303826206    -2.2284463233     1.7054562982
   44      H     -13.3971640603    -1.5828592718     1.5176311275
   45      C     -12.8166552365    -3.0086149079     3.0288148924
   46      H     -12.5441967825    -2.9311006624     0.8629564177
   47      H     -13.0111372478    -2.3758856151     3.9031611564
   48      H     -11.9804964921    -3.6730780728     3.2811841789
   49      C     -14.0580476599    -3.9348325619     2.9207930960
   50      H     -14.8663040690    -3.3161610762     2.5111991874
   51      C     -14.3587848322    -4.4355747030     4.3094022784
   52      H     -13.7900134015    -4.7234097511     2.2069039919
   53      H     -13.6672551738    -5.2189944605     4.6452745982
   54      H     -15.3163737736    -4.9705835823     4.3028510599
   55      H     -14.3914246366    -3.7071182136     5.1289178586
   56      C       8.8991818464    -1.0495429705     1.6958835620
   57      C       7.8791390296    -0.3214464928     2.2818265380
   58      N       8.7439578010    -1.8342782770     0.6649587372
   59      C       6.6308104090    -0.2657144155     1.6273721161
   60      C       7.5791850444    -1.8653902810     0.0667050548
   61      C       6.4292931922    -1.1410019396     0.5567706209
   62      C       5.1654865750    -1.3366492181    -0.1653436199
   63      C       4.2958585850    -0.2567120415    -0.2056158645
   64      C       4.6092512280    -2.5101091887    -0.7572455849
   65      N       3.1112528589    -0.2243916791    -0.8188357825
   66      N       5.3512038796    -3.6248403200    -0.7663432570
   67      C       3.3707429627    -2.5263875346    -1.4198889975
   68      C       2.6665691883    -1.3195149769    -1.5402506394
   69      S       4.3817669349    -4.7013743130    -1.5276760175
   70      N       3.1351656483    -3.7321641162    -1.9751431412
   71      C       1.3590806377    -1.1594196465    -2.2526137316
   72      S       0.4434220118    -2.4181386424    -3.0998738865
   73      C       0.6783047849     0.0686719740    -2.5184411380
   74      C      -0.7595441552    -1.2656515594    -3.6407998746
   75      S       1.2298970773     1.6604482290    -2.1371547666
   76      C      -0.4565028876    -0.0046189589    -3.2682897797
   77      C      -1.9923180584    -1.6249852604    -4.3251950785
   78      C      -0.2333248997     2.3003802567    -3.0719630069
   79      C      -1.0195863120     1.2616092079    -3.5708063688
   80      N      -2.4215553376    -0.7015055721    -5.1174081959
   81      S      -3.0650024440    -3.0131101866    -3.9744410365
   82      C      -3.6697700399    -1.0100797182    -5.5374058785
   83      C      -4.2153164563    -2.1695853795    -5.0483304968
   84      C      10.2148125211    -1.1240845143     2.4571164345
   85      H       8.0973227933     0.3047834321     3.1418299837
   86      H       5.8523889928     0.3852174609     2.0140797461
   87      H       7.5011187316    -2.6145570710    -0.7192063726
   88      H       4.5148980638     0.6483316890     0.3589791697
   89      H      -0.4489822744     3.3571042064    -3.1552420010
   90      H      -1.8687325384     1.5350035069    -4.1873850284
   91      H      -4.1035068720    -0.2737689246    -6.2012852168
   92      H      -5.1233178124    -2.7013091578    -5.3000393778
   93      H      10.1186697979    -0.4668089488     3.3297700931
   94      C      11.4884055660    -0.7311844631     1.6290824342
   95      H      10.3597215762    -2.1099966096     2.9166365170
   96      H      11.3218340750     0.2641689590     1.1987958978
   97      H      11.5750903862    -1.5202984124     0.8732756355
   98      C      12.8021406687    -0.6136133864     2.4666707113
   99      H      13.6399414428    -0.2378679842     1.8663422549
  100      C      13.2271350238    -1.9333734941     3.1569974863
  101      H      12.5257692616     0.1784599457     3.1746210499
  102      H      12.4044993935    -2.2500873692     3.8106953837
  103      H      14.0190081087    -1.7189055930     3.8852375133
  104      C      13.7171575389    -2.9784474508     2.1737765754
  105      H      12.8746492429    -3.3004235668     1.5504892003
  106      C      14.2158988007    -4.2233094411     2.8373327366
  107      H      14.4084019027    -2.6074804450     1.4071099529
  108      H      14.9701535223    -3.8565805693     3.5443488252
  109      H      14.8122331598    -4.8290111887     2.1433588717
  110      H      13.4164397292    -4.6872814161     3.4287177208
 ----------------------------------------------------------------

   10   -5663.5142455398      6.11E-06 Convergence criterion met
 Total energy in the final basis set = -5663.5142455398

                    Orbital Energies (a.u.)
 --------------------------------------------------------------

 Alpha MOs
 -- Occupied --
-88.990 -88.986 -88.930 -88.927 -88.923 -88.918 -88.909 -88.901
-14.388 -14.384 -14.383 -14.379 -14.347 -14.345 -14.341 -14.338
-14.322 -14.321 -10.269 -10.266 -10.264 -10.257 -10.256 -10.256
-10.256 -10.252 -10.243 -10.236 -10.236 -10.235 -10.231 -10.231
-10.231 -10.231 -10.230 -10.229 -10.227 -10.226 -10.225 -10.224
-10.222 -10.222 -10.222 -10.220 -10.220 -10.219 -10.217 -10.217
-10.216 -10.216 -10.204 -10.204 -10.203 -10.200 -10.198 -10.192
-10.182 -10.182 -10.177 -10.177 -10.176 -10.175 -10.175 -10.173
-10.172 -10.171 -10.169 -10.168  -8.047  -8.042  -7.990  -7.989
 -7.982  -7.976  -7.972  -7.960  -6.012  -6.007  -6.006  -6.005
 -6.002  -6.000  -5.954  -5.953  -5.951  -5.949  -5.947  -5.946
 -5.946  -5.943  -5.940  -5.939  -5.936  -5.936  -5.933  -5.932
 -5.927  -5.924  -5.921  -5.916  -1.055  -1.040  -0.983  -0.961
 -0.959  -0.956  -0.955  -0.950  -0.921  -0.913  -0.911  -0.908
 -0.848  -0.834  -0.833  -0.831  -0.816  -0.808  -0.808  -0.805
 -0.805  -0.804  -0.800  -0.796  -0.787  -0.786  -0.768  -0.767
 -0.750  -0.748  -0.744  -0.738  -0.722  -0.719  -0.712  -0.708
 -0.693  -0.690  -0.676  -0.672  -0.656  -0.652  -0.649  -0.646
 -0.636  -0.635  -0.633  -0.626  -0.613  -0.607  -0.598  -0.597
 -0.594  -0.590  -0.586  -0.581  -0.576  -0.574  -0.572  -0.554
 -0.551  -0.546  -0.544  -0.540  -0.529  -0.525  -0.518  -0.515
 -0.512  -0.511  -0.504  -0.500  -0.484  -0.482  -0.480  -0.477
 -0.473  -0.472  -0.471  -0.467  -0.465  -0.458  -0.453  -0.448
 -0.446  -0.444  -0.440  -0.435  -0.435  -0.433  -0.431  -0.429
 -0.427  -0.425  -0.421  -0.421  -0.418  -0.417  -0.415  -0.413
 -0.411  -0.411  -0.408  -0.407  -0.400  -0.396  -0.395  -0.394
 -0.393  -0.392  -0.391  -0.390  -0.389  -0.388  -0.382  -0.380
 -0.379  -0.379  -0.375  -0.372  -0.371  -0.369  -0.366  -0.354
 -0.353  -0.348  -0.348  -0.347  -0.347  -0.342  -0.340  -0.340
 -0.337  -0.336  -0.331  -0.329  -0.328  -0.326  -0.320  -0.320
 -0.316  -0.316  -0.315  -0.309  -0.305  -0.302  -0.298  -0.297
 -0.295  -0.295  -0.294  -0.292  -0.291  -0.289  -0.286  -0.281
 -0.273  -0.271  -0.269  -0.266  -0.253  -0.250  -0.246  -0.245
 -0.242  -0.240  -0.230  -0.229  -0.192  -0.191

          Ground-State Mulliken Net Atomic Charges

     Atom                 Charge (a.u.)
  ----------------------------------------
      1 C                     0.284539
      2 C                    -0.124650
      3 N                    -0.467006
      4 C                    -0.079511
      5 C                     0.091274
      6 C                     0.019181
      7 C                     0.047131
      8 C                     0.059011
      9 C                     0.202852
     10 N                    -0.475537
     11 N                    -0.537768
     12 C                     0.164591
     13 C                     0.228652
     14 S                     0.610427
     15 N                    -0.508315
     16 C                    -0.192483
     17 S                     0.312990
     18 C                    -0.092823
     19 C                    -0.221758
     20 S                     0.277178
     21 C                     0.160201
     22 C                     0.048800
     23 C                    -0.283875
     24 C                    -0.068964
     25 N                    -0.446857
     26 S                     0.285517
     27 C                     0.115414
     28 C                    -0.312755
     29 C                    -0.233886
     30 H                     0.092054
     31 H                     0.104385
     32 H                     0.119654
     33 H                     0.106006
     34 H                     0.121725
     35 H                     0.106541
     36 H                     0.117747
     37 H                     0.128427
     38 H                     0.117641
     39 C                    -0.155069
     40 H                     0.086221
     41 H                     0.112266
     42 H                     0.097725
     43 C                    -0.185281
     44 H                     0.088066
     45 C                    -0.173623
     46 H                     0.084091
     47 H                     0.091576
     48 H                     0.089430
     49 C                    -0.172804
     50 H                     0.092206
     51 C                    -0.321991
     52 H                     0.095121
     53 H                     0.102537
     54 H                     0.094461
     55 H                     0.104707
     56 C                     0.291149
     57 C                    -0.129073
     58 N                    -0.461812
     59 C                    -0.069512
     60 C                     0.076839
     61 C                     0.019403
     62 C                     0.065794
     63 C                     0.047965
     64 C                     0.180348
     65 N                    -0.517006
     66 N                    -0.545115
     67 C                     0.252424
     68 C                     0.282629
     69 S                     0.595967
     70 N                    -0.567172
     71 C                    -0.212826
     72 S                     0.312235
     73 C                    -0.141118
     74 C                    -0.265777
     75 S                     0.281928
     76 C                     0.207177
     77 C                     0.048147
     78 C                    -0.311560
     79 C                    -0.034708
     80 N                    -0.400248
     81 S                     0.261167
     82 C                     0.129758
     83 C                    -0.317266
     84 C                    -0.230222
     85 H                     0.091526
     86 H                     0.094984
     87 H                     0.122436
     88 H                     0.095636
     89 H                     0.138866
     90 H                     0.124604
     91 H                     0.111250
     92 H                     0.135775
     93 H                     0.080707
     94 C                    -0.177363
     95 H                     0.117090
     96 H                     0.087643
     97 H                     0.119093
     98 C                    -0.183303
     99 H                     0.090668
    100 C                    -0.170018
    101 H                     0.082127
    102 H                     0.089929
    103 H                     0.084621
    104 C                    -0.173372
    105 H                     0.101172
    106 C                    -0.312739
    107 H                     0.091836
    108 H                     0.095419
    109 H                     0.100562
    110 H                     0.105945
  ----------------------------------------
  Sum of atomic charges =     0.000000

                    Cartesian Multipole Moments
 -----------------------------------------------------------------
    Charge (ESU x 10^10)
                 0.0000
    Dipole Moment (Debye)
         X      -0.7802      Y      -0.7822      Z       0.5874
       Tot       1.2513
    Quadrupole Moments (Debye-Ang)
        XX    -430.2964     XY      27.1839     YY    -439.5783
        XZ      29.9159     YZ       3.2115     ZZ    -436.5626

 Total job time:  101.08s(wall), 1089.96s(cpu)
        *  Thank you very much for using Q-Chem.  Have a nice day.  *
