 Q-Chem 4.4, Q-Chem, Inc., Pleasanton, CA (2016)
 Q-Chem 4.4.2 for Intel X86 Linux

User input:
--------------------------------------------------------------
$comment
SP
$end

$rem
MEM_STATIC 5000
MEM_TOTAL 20000
JOBTYPE SP
EXCHANGE B3LYP
BASIS 6-31g(d,p)
$end

$molecule
0 1
C         -12.540000      7.085000     -2.972000
C         -12.487000      6.662000     -1.632000
N         -11.444000      7.160000     -3.768000
C         -11.300000      6.061000     -1.182000
C         -10.281000      6.611000     -3.272000
C         -10.154000      6.118000     -1.995000
C          -8.944000      5.332000     -1.598000
C          -9.123000      4.258000     -0.655000
C          -7.624000      5.587000     -1.991000
N          -8.162000      3.418000     -0.258000
N          -7.281000      6.569000     -2.822000
C          -6.708000      4.678000     -1.678000
C          -6.977000      3.574000     -0.812000
S          -5.680000      6.249000     -3.117000
N          -5.464000      4.942000     -2.203000
C          -5.962000      2.531000     -0.444000
S          -4.595000      2.027000     -1.483000
C          -6.029000      1.655000      0.637000
C          -4.063000      0.751000     -0.429000
S          -7.082000      1.673000      2.010000
C          -4.954000      0.694000      0.647000
C          -2.768000      0.104000     -0.560000
C          -6.112000      0.302000      2.647000
C          -5.110000     -0.122000      1.805000
N          -2.328000     -0.535000      0.507000
S          -1.611000      0.450000     -1.799000
C          -0.968000     -0.851000      0.337000
C          -0.487000     -0.527000     -0.939000
C         -13.828000      7.684000     -3.535000
H         -13.370000      6.808000     -1.017000
H         -11.181000      5.778000     -0.141000
H          -9.529000      6.411000     -4.034000
H         -10.111000      4.065000     -0.241000
H          -6.365000     -0.272000      3.529000
H          -4.457000     -0.937000      2.096000
H          -0.459000     -1.385000      1.128000
H           0.492000     -0.666000     -1.380000
H         -14.089000      8.638000     -3.060000
C         -15.036000      6.715000     -3.478000
H         -13.646000      8.009000     -4.567000
H         -15.708000      7.078000     -4.266000
H         -15.508000      6.873000     -2.500000
C         -14.678000      5.222000     -3.759000
H         -14.124000      5.137000     -4.702000
C         -15.940000      4.436000     -4.031000
H         -14.014000      4.759000     -3.019000
H         -16.496000      4.945000     -4.828000
H         -16.592000      4.465000     -3.149000
C         -15.669000      3.019000     -4.460000
H         -15.183000      3.024000     -5.443000
C         -17.070000      2.309000     -4.543000
H         -15.010000      2.511000     -3.744000
H         -17.676000      2.636000     -5.397000
H         -17.719000      2.465000     -3.672000
H         -16.858000      1.238000     -4.437000
C           3.481000     -1.004000     -3.589000
C           2.992000     -0.332000     -2.483000
N           3.042000     -0.834000     -4.806000
C           2.096000      0.738000     -2.688000
C           2.157000      0.105000     -5.031000
C           1.573000      0.898000     -3.974000
C           0.530000      1.856000     -4.363000
C           0.445000      3.023000     -3.618000
C          -0.513000      1.747000     -5.331000
N          -0.418000      4.021000     -3.817000
N          -0.545000      0.654000     -6.104000
C          -1.441000      2.771000     -5.583000
C          -1.309000      3.975000     -4.876000
S          -1.846000      0.922000     -7.060000
N          -2.247000      2.450000     -6.615000
C          -2.186000      5.175000     -5.059000
S          -3.536000      5.348000     -6.194000
C          -2.004000      6.462000     -4.465000
C          -3.785000      7.021000     -5.739000
S          -0.699000      6.956000     -3.447000
C          -2.869000      7.444000     -4.843000
C          -4.901000      7.838000     -6.191000
C          -1.400000      8.667000     -3.521000
C          -2.565000      8.713000     -4.287000
N          -4.620000      9.096000     -6.247000
S          -6.608000      7.337000     -6.380000
C          -5.754000      9.804000     -6.453000
C          -6.921000      9.088000     -6.535000
C           4.407000     -2.182000     -3.323000
H           3.414000     -0.539000     -1.504000
H           1.785000      1.345000     -1.843000
H           1.769000      0.118000     -6.048000
H           1.065000      3.158000     -2.733000
H          -0.962000      9.495000     -2.980000
H          -3.018000      9.686000     -4.442000
H          -5.600000     10.874000     -6.502000
H          -7.928000      9.379000     -6.803000
H           4.590000     -2.209000     -2.242000
C           5.772000     -2.146000     -4.096000
H           3.903000     -3.140000     -3.503000
H           6.260000     -1.187000     -3.882000
H           5.491000     -2.263000     -5.149000
C           6.796000     -3.245000     -3.666000
H           7.768000     -3.116000     -4.158000
C           6.299000     -4.693000     -3.901000
H           6.931000     -2.998000     -2.605000
H           5.366000     -4.823000     -3.338000
H           6.969000     -5.391000     -3.384000
C           6.229000     -5.058000     -5.371000
H           5.443000     -4.460000     -5.847000
C           5.838000     -6.483000     -5.606000
H           7.101000     -4.760000     -5.966000
H           6.567000     -7.053000     -5.017000
H           6.067000     -6.791000     -6.634000
H           4.848000     -6.683000     -5.177000
$end

--------------------------------------------------------------

             Standard Nuclear Orientation (Angstroms)
    I     Atom           X                Y                Z
 ----------------------------------------------------------------
    1      C       9.2434361029     0.1651305973    -0.2371436108
    2      C       9.0591622487     1.2529968315     0.6345949987
    3      N       8.2666089282    -0.7346064749    -0.5141614292
    4      C       7.7472723927     1.5566530393     1.0338542043
    5      C       7.0012184192    -0.4333299506    -0.0580854316
    6      C       6.7170538038     0.6429746358     0.7485904071
    7      C       5.2997943248     1.0420946049     1.0161419334
    8      C       5.0161370618     2.4466101519     1.1632494983
    9      C       4.2190555466     0.1751888591     1.2219382435
   10      N       3.7972132561     2.9694312648     1.3294206136
   11      N       4.3193924846    -1.1511831496     1.1653361807
   12      C       3.0061992528     0.7135335063     1.2716438911
   13      C       2.7865362828     2.1245659803     1.3148704656
   14      S       2.7341986840    -1.6359713510     1.2343797485
   15      N       1.9922436769    -0.2127530549     1.3537675579
   16      C       1.4274285045     2.7597502375     1.3683962187
   17      S      -0.0600143174     2.0454623236     0.6759132747
   18      C       1.1376456909     4.0641894999     1.7619570548
   19      C      -1.0649963926     3.4223722370     1.0168621258
   20      S       2.1401658004     5.2250371902     2.5629864363
   21      C      -0.2523657863     4.4062079553     1.5883555878
   22      C      -2.5166357790     3.3771357767     0.9577710561
   23      C       0.6850503585     6.2745814667     2.6490437575
   24      C      -0.4327815029     5.7429101148     2.0486093287
   25      N      -3.1539765993     4.3287935014     1.6124116091
   26      S      -3.4440377764     1.9955834013     0.4837198256
   27      C      -4.5171618553     3.9971367318     1.7128394197
   28      C      -4.8518197972     2.8385994884     0.9984806040
   29      C      10.6402686448    -0.1701127161    -0.7578976511
   30      H       9.9374566108     1.8118069271     0.9437232740
   31      H       7.5549792747     2.3421766424     1.7576684247
   32      H       6.2100864633    -0.9959112801    -0.5518064825
   33      H       5.8287747726     3.1683673086     1.1042956369
   34      H       0.6887832250     7.3035270581     2.9847013741
   35      H      -1.3694510375     6.2887620134     2.0519089938
   36      H      -5.1799604496     4.6846287477     2.2207476314
   37      H      -5.8059722996     2.3457355850     0.8609263426
   38      H      11.3187390375    -0.4941057838     0.0412071095
   39      C      11.2884491940     0.9791199862    -1.5706707879
   40      H      10.5827459896    -1.0828525228    -1.3640083583
   41      H      12.0205227929     0.4732339434    -2.2128892533
   42      H      11.8190342455     1.6060177168    -0.8428584917
   43      C      10.2897828095     1.7784736203    -2.4650271041
   44      H       9.7199465937     1.0914373812    -3.1027244409
   45      C      11.0552312173     2.6168268978    -3.4628630210
   46      H       9.5182545714     2.3313652191    -1.9155545773
   47      H      11.7486092834     1.9599022062    -4.0024024608
   48      H      11.6852046050     3.3415589446    -2.9320466770
   49      C      10.1625215102     3.3021823603    -4.4622269532
   50      H       9.6921414734     2.5487940720    -5.1053900024
   51      C      11.0935409962     4.2447432820    -5.3099129951
   52      H       9.3743959763     3.8752722030    -3.9568289170
   53      H      11.7479631675     3.7034456155    -6.0043260263
   54      H      11.7772113950     4.8693716799    -4.7211752348
   55      H      10.4291920804     5.0164133316    -5.7178184409
   56      C      -8.7141311568     0.2645969654    -0.2065567288
   57      C      -7.9334498922     0.5989106283     0.8855568816
   58      N      -8.2933201034    -0.4349410015    -1.2245325095
   59      C      -6.6622348064     0.0007602222     1.0119265662
   60      C      -7.0913103921    -0.9532677650    -1.1789143093
   61      C      -6.1735325148    -0.7041048675    -0.0913686235
   62      C      -4.8282456247    -1.2803671037    -0.2140838157
   63      C      -4.2012264314    -1.6584782682     0.9640578899
   64      C      -3.9828200124    -1.4237820168    -1.3548912915
   65      N      -2.9914692698    -2.2117731524     1.0676261337
   66      N      -4.4732883956    -1.0766219881    -2.5516045736
   67      C      -2.7054216472    -2.0055488636    -1.2995310855
   68      C      -2.2572319974    -2.5067517726    -0.0687546306
   69      S      -3.2282315481    -1.4001969023    -3.5632832385
   70      N      -2.1690880668    -2.1128701774    -2.5318173453
   71      C      -0.9439867862    -3.1929697852     0.1482934154
   72      S       0.2953747920    -3.5372670076    -1.0707620801
   73      C      -0.5077576264    -3.8388500653     1.3461547529
   74      C       1.2839496790    -4.4011367344     0.0887221966
   75      S      -1.4131280275    -4.0349658574     2.8039709391
   76      C       0.6896447560    -4.4863535881     1.2971677876
   77      C       2.6289370248    -4.8874266774    -0.1791959458
   78      C      -0.0243218417    -5.0882735832     3.4253872351
   79      C       1.0073286315    -5.1830662273     2.4911449455
   80      N       2.9383699501    -5.9326082569     0.5110994480
   81      S       3.9227265696    -4.0565860633    -1.0937359874
   82      C       4.2602850000    -6.1869517267     0.3787892063
   83      C       4.9795729465    -5.3186955548    -0.4022518105
   84      C     -10.0580800473     0.9675881954    -0.3311388716
   85      H      -8.3649083305     1.1895052633     1.6883118835
   86      H      -6.0798617757     0.1667829973     1.9132994586
   87      H      -6.7784907839    -1.4366388207    -2.1027640347
   88      H      -4.6602966304    -1.4401126932     1.9270849030
   89      H      -0.0242152302    -5.5179702569     4.4180955293
   90      H       1.8412717218    -5.8308500975     2.7378795796
   91      H       4.5993777570    -7.0479548967     0.9397764106
   92      H       5.9990665497    -5.3491149676    -0.7631693252
   93      H     -10.1914900618     1.5687023469     0.5764086726
   94      C     -11.2918147611     0.0188301457    -0.5306553346
   95      H     -10.0432750021     1.7292446607    -1.1209744491
   96      H     -11.2905492025    -0.7178971274     0.2822729054
   97      H     -11.1341567828    -0.4274913006    -1.5192908228
   98      C     -12.6815936214     0.7286742443    -0.4537588134
   99      H     -13.5116056564     0.0125443512    -0.4953159801
  100      C     -12.8943656400     1.8122658214    -1.5398045593
  101      H     -12.6503348119     1.1344918530     0.5656969018
  102      H     -12.0968780821     2.5581731512    -1.4302881205
  103      H     -13.7850722133     2.4016255371    -1.2894249961
  104      C     -13.0524455998     1.2269643670    -2.9295735810
  105      H     -12.1012190514     0.7741720167    -3.2330915231
  106      C     -13.3496442829     2.2578872404    -3.9724551524
  107      H     -13.7215302757     0.3602598527    -2.9956188786
  108      H     -14.2330055175     2.7768470150    -3.5805167877
  109      H     -13.7321466185     1.7928483576    -4.8897990360
  110      H     -12.5377652511     2.9943508902    -4.0235895848
 ----------------------------------------------------------------

   10   -5663.5123557301      7.29E-06 Convergence criterion met
 Total energy in the final basis set = -5663.5123557301

                    Orbital Energies (a.u.)
 --------------------------------------------------------------

 Alpha MOs
 -- Occupied --
-88.990 -88.985 -88.933 -88.930 -88.923 -88.915 -88.910 -88.906
-14.391 -14.387 -14.385 -14.376 -14.351 -14.346 -14.345 -14.339
-14.331 -14.328 -10.272 -10.271 -10.264 -10.260 -10.259 -10.259
-10.250 -10.246 -10.243 -10.242 -10.237 -10.237 -10.236 -10.235
-10.235 -10.233 -10.232 -10.231 -10.230 -10.229 -10.228 -10.228
-10.226 -10.226 -10.223 -10.222 -10.222 -10.221 -10.221 -10.215
-10.212 -10.211 -10.208 -10.206 -10.204 -10.203 -10.203 -10.189
-10.185 -10.185 -10.183 -10.180 -10.179 -10.178 -10.177 -10.175
-10.173 -10.172 -10.169 -10.169  -8.045  -8.040  -7.993  -7.989
 -7.985  -7.975  -7.969  -7.966  -6.010  -6.005  -6.005  -6.003
 -6.000  -5.999  -5.957  -5.954  -5.954  -5.950  -5.950  -5.949
 -5.946  -5.946  -5.942  -5.939  -5.935  -5.933  -5.932  -5.930
 -5.930  -5.927  -5.925  -5.922  -1.043  -1.041  -0.987  -0.966
 -0.962  -0.961  -0.954  -0.931  -0.920  -0.912  -0.904  -0.898
 -0.842  -0.839  -0.836  -0.834  -0.813  -0.811  -0.809  -0.808
 -0.808  -0.807  -0.801  -0.790  -0.789  -0.785  -0.771  -0.760
 -0.752  -0.744  -0.744  -0.736  -0.728  -0.713  -0.712  -0.708
 -0.694  -0.691  -0.677  -0.670  -0.659  -0.652  -0.650  -0.646
 -0.640  -0.632  -0.631  -0.623  -0.618  -0.609  -0.602  -0.596
 -0.595  -0.591  -0.588  -0.581  -0.577  -0.571  -0.569  -0.557
 -0.556  -0.545  -0.545  -0.538  -0.529  -0.520  -0.518  -0.517
 -0.506  -0.505  -0.502  -0.497  -0.487  -0.485  -0.481  -0.475
 -0.475  -0.473  -0.469  -0.467  -0.464  -0.461  -0.455  -0.449
 -0.446  -0.443  -0.440  -0.438  -0.435  -0.434  -0.431  -0.430
 -0.428  -0.427  -0.425  -0.423  -0.420  -0.418  -0.416  -0.414
 -0.413  -0.409  -0.407  -0.401  -0.400  -0.398  -0.397  -0.396
 -0.395  -0.393  -0.392  -0.388  -0.387  -0.385  -0.385  -0.381
 -0.381  -0.378  -0.377  -0.373  -0.369  -0.363  -0.357  -0.354
 -0.351  -0.351  -0.350  -0.348  -0.348  -0.345  -0.344  -0.340
 -0.339  -0.335  -0.333  -0.331  -0.330  -0.328  -0.327  -0.323
 -0.319  -0.316  -0.311  -0.310  -0.307  -0.303  -0.300  -0.299
 -0.298  -0.296  -0.293  -0.292  -0.290  -0.286  -0.284  -0.280
 -0.278  -0.277  -0.271  -0.265  -0.256  -0.253  -0.251  -0.249
 -0.248  -0.238  -0.236  -0.226  -0.199  -0.189

          Ground-State Mulliken Net Atomic Charges

     Atom                 Charge (a.u.)
  ----------------------------------------
      1 C                     0.272666
      2 C                    -0.107930
      3 N                    -0.486209
      4 C                    -0.095934
      5 C                     0.069947
      6 C                     0.062830
      7 C                     0.005504
      8 C                     0.054843
      9 C                     0.261060
     10 N                    -0.515165
     11 N                    -0.568160
     12 C                     0.179271
     13 C                     0.296369
     14 S                     0.630125
     15 N                    -0.530758
     16 C                    -0.223402
     17 S                     0.301920
     18 C                    -0.109303
     19 C                    -0.241181
     20 S                     0.275125
     21 C                     0.162906
     22 C                     0.072051
     23 C                    -0.302880
     24 C                    -0.063449
     25 N                    -0.437414
     26 S                     0.283652
     27 C                     0.105040
     28 C                    -0.316568
     29 C                    -0.245855
     30 H                     0.095338
     31 H                     0.106883
     32 H                     0.116943
     33 H                     0.103771
     34 H                     0.119392
     35 H                     0.121884
     36 H                     0.115234
     37 H                     0.135994
     38 H                     0.105922
     39 C                    -0.186048
     40 H                     0.115626
     41 H                     0.099927
     42 H                     0.092675
     43 C                    -0.177409
     44 H                     0.097514
     45 C                    -0.159876
     46 H                     0.096750
     47 H                     0.088152
     48 H                     0.086572
     49 C                    -0.179836
     50 H                     0.097980
     51 C                    -0.323566
     52 H                     0.094349
     53 H                     0.106938
     54 H                     0.100669
     55 H                     0.097280
     56 C                     0.290545
     57 C                    -0.130578
     58 N                    -0.459341
     59 C                    -0.097851
     60 C                     0.079453
     61 C                     0.023005
     62 C                     0.059312
     63 C                     0.059489
     64 C                     0.187668
     65 N                    -0.516040
     66 N                    -0.545995
     67 C                     0.254556
     68 C                     0.287687
     69 S                     0.603428
     70 N                    -0.567658
     71 C                    -0.206445
     72 S                     0.314288
     73 C                    -0.136161
     74 C                    -0.272158
     75 S                     0.274596
     76 C                     0.205662
     77 C                     0.038686
     78 C                    -0.312528
     79 C                    -0.042623
     80 N                    -0.402146
     81 S                     0.269965
     82 C                     0.128644
     83 C                    -0.305881
     84 C                    -0.231251
     85 H                     0.097275
     86 H                     0.113813
     87 H                     0.125115
     88 H                     0.105124
     89 H                     0.126518
     90 H                     0.128562
     91 H                     0.113088
     92 H                     0.145190
     93 H                     0.081621
     94 C                    -0.178004
     95 H                     0.119067
     96 H                     0.088808
     97 H                     0.119731
     98 C                    -0.183395
     99 H                     0.091802
    100 C                    -0.170818
    101 H                     0.082696
    102 H                     0.089760
    103 H                     0.085785
    104 C                    -0.173491
    105 H                     0.100688
    106 C                    -0.313036
    107 H                     0.092315
    108 H                     0.095852
    109 H                     0.101091
    110 H                     0.106353
  ----------------------------------------
  Sum of atomic charges =     0.000000

                    Cartesian Multipole Moments
 -----------------------------------------------------------------
    Charge (ESU x 10^10)
                 0.0000
    Dipole Moment (Debye)
         X       1.1240      Y      -0.3209      Z       1.1950
       Tot       1.6716
    Quadrupole Moments (Debye-Ang)
        XX    -399.1658     XY      -9.6514     YY    -439.1633
        XZ      -7.6533     YZ       0.3389     ZZ    -440.4988

 Total job time:  102.92s(wall), 1123.22s(cpu)
        *  Thank you very much for using Q-Chem.  Have a nice day.  *
