 Q-Chem 4.4, Q-Chem, Inc., Pleasanton, CA (2016)
 Q-Chem 4.4.2 for Intel X86 Linux

User input:
--------------------------------------------------------------
$comment
SP
$end

$rem
MEM_STATIC 5000
MEM_TOTAL 20000
JOBTYPE SP
EXCHANGE B3LYP
BASIS 6-31g(d,p)
$end

$molecule
0 1
C         -14.969000     11.225000    -15.476000
C         -14.748000     12.479000    -14.935000
N         -14.017000     10.277000    -15.408000
C         -13.629000     12.738000    -14.112000
C         -12.890000     10.533000    -14.618000
C         -12.625000     11.784000    -13.958000
C         -11.397000     11.988000    -13.111000
C         -11.403000     12.832000    -12.008000
C         -10.136000     11.411000    -13.413000
N         -10.398000     13.172000    -11.178000
N          -9.788000     10.614000    -14.479000
C          -9.047000     11.650000    -12.525000
C          -9.202000     12.548000    -11.420000
S          -8.171000     10.431000    -14.337000
N          -7.888000     11.108000    -12.888000
C          -8.069000     13.006000    -10.557000
S          -6.742000     11.969000    -10.032000
C          -7.945000     14.161000     -9.767000
C          -6.003000     13.172000     -9.029000
S          -8.887000     15.698000     -9.978000
C          -6.840000     14.310000     -8.989000
C          -4.701000     13.050000     -8.420000
C          -7.741000     16.431000     -8.794000
C          -6.711000     15.632000     -8.349000
N          -3.970000     14.114000     -8.223000
S          -3.794000     11.514000     -8.478000
C          -2.637000     13.746000     -8.034000
C          -2.311000     12.423000     -8.233000
C         -16.181000     10.811000    -16.322000
H         -15.483000     13.258000    -15.115000
H         -13.481000     13.697000    -13.625000
H         -12.139000      9.758000    -14.475000
H         -12.368000     13.225000    -11.693000
H          -7.930000     17.444000     -8.465000
H          -5.984000     15.943000     -7.608000
H          -1.854000     14.488000     -7.949000
H          -1.371000     11.913000     -8.393000
H         -16.919000     10.433000    -15.604000
C         -15.927000      9.772000    -17.479000
H         -16.639000     11.728000    -16.713000
H         -15.762000      8.770000    -17.066000
H         -14.989000      9.918000    -18.028000
C         -17.138000      9.768000    -18.414000
H         -18.014000      9.723000    -17.754000
C         -17.108000      8.630000    -19.443000
H         -17.194000     10.602000    -19.124000
H         -16.478000      7.803000    -19.092000
H         -16.684000      8.985000    -20.390000
C         -18.561000      8.182000    -19.801000
H         -18.515000      7.237000    -20.356000
C         -19.359000      9.190000    -20.693000
H         -19.124000      7.982000    -18.881000
H         -18.780000      9.315000    -21.617000
H         -19.448000     10.212000    -20.307000
H         -20.304000      8.765000    -21.053000
C           3.481000     -1.004000     -3.589000
C           2.992000     -0.332000     -2.483000
N           3.042000     -0.834000     -4.806000
C           2.096000      0.738000     -2.688000
C           2.157000      0.105000     -5.031000
C           1.573000      0.898000     -3.974000
C           0.530000      1.856000     -4.363000
C           0.445000      3.023000     -3.618000
C          -0.513000      1.747000     -5.331000
N          -0.418000      4.021000     -3.817000
N          -0.545000      0.654000     -6.104000
C          -1.441000      2.771000     -5.583000
C          -1.309000      3.975000     -4.876000
S          -1.846000      0.922000     -7.060000
N          -2.247000      2.450000     -6.615000
C          -2.186000      5.175000     -5.059000
S          -3.536000      5.348000     -6.194000
C          -2.004000      6.462000     -4.465000
C          -3.785000      7.021000     -5.739000
S          -0.699000      6.956000     -3.447000
C          -2.869000      7.444000     -4.843000
C          -4.901000      7.838000     -6.191000
C          -1.400000      8.667000     -3.521000
C          -2.565000      8.713000     -4.287000
N          -4.620000      9.096000     -6.247000
S          -6.608000      7.337000     -6.380000
C          -5.754000      9.804000     -6.453000
C          -6.921000      9.088000     -6.535000
C           4.407000     -2.182000     -3.323000
H           3.414000     -0.539000     -1.504000
H           1.785000      1.345000     -1.843000
H           1.769000      0.118000     -6.048000
H           1.065000      3.158000     -2.733000
H          -0.962000      9.495000     -2.980000
H          -3.018000      9.686000     -4.442000
H          -5.600000     10.874000     -6.502000
H          -7.928000      9.379000     -6.803000
H           4.590000     -2.209000     -2.242000
C           5.772000     -2.146000     -4.096000
H           3.903000     -3.140000     -3.503000
H           6.260000     -1.187000     -3.882000
H           5.491000     -2.263000     -5.149000
C           6.796000     -3.245000     -3.666000
H           7.768000     -3.116000     -4.158000
C           6.299000     -4.693000     -3.901000
H           6.931000     -2.998000     -2.605000
H           5.366000     -4.823000     -3.338000
H           6.969000     -5.391000     -3.384000
C           6.229000     -5.058000     -5.371000
H           5.443000     -4.460000     -5.847000
C           5.838000     -6.483000     -5.606000
H           7.101000     -4.760000     -5.966000
H           6.567000     -7.053000     -5.017000
H           6.067000     -6.791000     -6.634000
H           4.848000     -6.683000     -5.177000
$end

--------------------------------------------------------------

             Standard Nuclear Orientation (Angstroms)
    I     Atom           X                Y                Z
 ----------------------------------------------------------------
    1      C      11.9805128381    -3.0766225859    -0.7101612032
    2      C      12.2427051517    -1.7183644674    -0.6894712517
    3      N      10.7731642617    -3.5424074400    -0.3427569505
    4      C      11.2095511886    -0.7727858715    -0.5022681337
    5      C       9.7483202544    -2.6134801076    -0.1269937194
    6      C       9.9220620519    -1.1854697810    -0.1647600393
    7      C       8.7717225991    -0.2413906964     0.0642439458
    8      C       8.7090516301     0.9977828069    -0.5598573108
    9      C       7.7205103489    -0.5002712095     0.9819517887
   10      N       7.7959304900     1.9801571525    -0.4346557587
   11      N       7.5511318784    -1.5840166921     1.8122985010
   12      C       6.6670971395     0.4528451605     1.0980370826
   13      C       6.7368915889     1.6941814627     0.3869344742
   14      S       6.2524281878    -1.1965055627     2.7241898590
   15      N       5.7348575321     0.1626423651     2.0011016716
   16      C       5.7816946109     2.8262982555     0.5970113664
   17      S       4.0486963301     2.6244817689     0.8576069621
   18      C       5.9417201550     4.2003176342     0.3521367610
   19      C       3.7029670240     4.3214419540     0.8692850160
   20      S       7.5248360718     5.0784112700     0.2219462819
   21      C       4.8806345101     5.0295312292     0.5392518803
   22      C       2.4380958649     4.9015951617     1.2494063208
   23      C       6.5567949337     6.5993936092     0.2663318516
   24      C       5.1971830332     6.4663272624     0.4426123877
   25      N       2.4027475074     6.0795854751     1.8118610436
   26      S       1.0066238536     3.8796791808     1.5525310620
   27      C       1.1819807020     6.2577114742     2.4645734882
   28      C       0.3383502968     5.1717889972     2.5371414801
   29      C      13.0066759713    -4.1870697722    -0.9746461184
   30      H      13.2600613469    -1.3840762869    -0.8703131290
   31      H      11.3903230674     0.2965411324    -0.5534080072
   32      H       8.7392958390    -2.9583993317     0.0920392872
   33      H       9.4480275632     1.1982060075    -1.3335782625
   34      H       7.0771417572     7.5366818600     0.1218987595
   35      H       4.5053413386     7.3004018826     0.4449782833
   36      H       0.9903864743     7.1317285899     3.0730664900
   37      H      -0.5186943303     4.9461556605     3.1567091556
   38      H      12.9838768036    -4.3492297191    -2.0591904234
   39      C      12.8164006960    -5.5410267554    -0.1915230071
   40      H      14.0029909908    -3.7658249575    -0.7917713303
   41      H      11.9696610476    -6.1050985406    -0.5997545454
   42      H      12.4951705694    -5.4261486949     0.8506743048
   43      C      14.1033536802    -6.3609124635    -0.3024348744
   44      H      14.3829829352    -6.3199308390    -1.3631558491
   45      C      13.9568972430    -7.7962256667     0.2202615199
   46      H      14.9234113511    -6.0511766036     0.3566259069
   47      H      12.9070014615    -8.1144286109     0.1979964291
   48      H      14.2953041721    -7.8578671146     1.2615545057
   49      C      14.9042355647    -8.7597781668    -0.5634435800
   50      H      14.6269209227    -9.7957888493    -0.3333469587
   51      C      16.4234311723    -8.6127927430    -0.2185204134
   52      H      14.7590270787    -8.6251254435    -1.6424024021
   53      H      16.5191285070    -8.8060784239     0.8576415937
   54      H      16.8516583710    -7.6108304654    -0.3372388216
   55      H      17.0278120788    -9.4121922641    -0.6645407332
   56      C     -13.1002841313    -1.8004053661     0.0491825841
   57      C     -12.9178103564    -0.8393493225    -0.9290891585
   58      N     -12.1287856783    -2.3968257801     0.6841498633
   59      C     -11.6199216513    -0.3263357108    -1.1341329186
   60      C     -10.8993703270    -1.9976166116     0.4726293350
   61      C     -10.5624126471    -0.9896389788    -0.5059382986
   62      C      -9.1348649340    -0.7024734107    -0.6971906541
   63      C      -8.8006845038     0.5986155265    -1.0430663800
   64      C      -8.0064329740    -1.5761983731    -0.6971501910
   65      N      -7.5673257382     1.0653461767    -1.2464444898
   66      N      -8.2057588241    -2.8645789646    -0.3912962114
   67      C      -6.6886314808    -1.1334764877    -0.8987948207
   68      C      -6.4689170063     0.2413428862    -1.0675734893
   69      S      -6.7001191065    -3.4987955923    -0.4871049278
   70      N      -5.8098333696    -2.1440380154    -0.7432947296
   71      C      -5.1250681224     0.8769888198    -1.2482456353
   72      S      -3.5517351705     0.0615439422    -1.2663308197
   73      C      -4.8427886389     2.2774669794    -1.2844149288
   74      C      -2.6950703572     1.5835017945    -1.3994649375
   75      S      -5.9722397735     3.5660704692    -1.0670990744
   76      C      -3.5323775595     2.6410202714    -1.3624201003
   77      C      -1.2622185581     1.7029853037    -1.6228668464
   78      C      -4.5293733309     4.7242143109    -1.1022739379
   79      C      -3.3274091022     4.0429450502    -1.2952796048
   80      N      -0.7590656230     2.7831774792    -1.1282124340
   81      S      -0.2446756920     0.7075027519    -2.7064682514
   82      C       0.5122782653     2.9315186415    -1.5656317034
   83      C       0.9856552792     1.9695890863    -2.4211284793
   84      C     -14.5057602324    -2.3624515693     0.2062080436
   85      H     -13.7852271180    -0.3970880193    -1.4100955008
   86      H     -11.4742801262     0.5023790528    -1.8205842182
   87      H     -10.1418317403    -2.6075024246     0.9616861668
   88      H      -9.5795228368     1.3301734710    -1.2530278639
   89      H      -4.6475317321     5.7971413510    -1.0317391327
   90      H      -2.4156428232     4.6294056744    -1.2686490063
   91      H       1.0004902032     3.8251050775    -1.1993403096
   92      H       1.9737501129     1.7830036361    -2.8203883815
   93      H     -15.1571606492    -1.7910523649    -0.4660712482
   94      C     -15.0799385750    -2.3264071874     1.6660265369
   95      H     -14.5808079415    -3.3799760965    -0.1977618535
   96      H     -15.0091328866    -1.2956694006     2.0350619950
   97      H     -14.4501264790    -3.0296231756     2.2230570547
   98      C     -16.5889803785    -2.7136745896     1.7847438249
   99      H     -16.9699766725    -2.5743700561     2.8040205640
  100      C     -16.9055269981    -4.1568096565     1.3198810320
  101      H     -17.0505443916    -1.9423713192     1.1546605550
  102      H     -16.5858196298    -4.2501791977     0.2742102772
  103      H     -17.9924764291    -4.2751170030     1.2307894715
  104      C     -16.3603124622    -5.2103211380     2.2642748420
  105      H     -15.2648774310    -5.1865855604     2.2263972128
  106      C     -16.7388681764    -6.6041329569     1.8734869394
  107      H     -16.5322003702    -5.0133514921     3.3295778532
  108      H     -17.8325026309    -6.5649056495     1.7980754119
  109      H     -16.5807484823    -7.3038589710     2.7038306439
  110      H     -16.3536392979    -6.8381126570     0.8729904571
 ----------------------------------------------------------------

   10   -5663.5227672490      3.79E-06 Convergence criterion met
 Total energy in the final basis set = -5663.5227672490

                    Orbital Energies (a.u.)
 --------------------------------------------------------------

 Alpha MOs
 -- Occupied --
-88.992 -88.987 -88.929 -88.928 -88.926 -88.920 -88.908 -88.907
-14.392 -14.389 -14.389 -14.384 -14.358 -14.350 -14.348 -14.342
-14.332 -14.321 -10.274 -10.272 -10.270 -10.267 -10.265 -10.262
-10.257 -10.256 -10.248 -10.247 -10.246 -10.240 -10.238 -10.235
-10.234 -10.234 -10.233 -10.232 -10.231 -10.231 -10.230 -10.229
-10.228 -10.227 -10.226 -10.222 -10.221 -10.219 -10.218 -10.216
-10.215 -10.214 -10.214 -10.206 -10.204 -10.201 -10.199 -10.197
-10.191 -10.181 -10.179 -10.179 -10.177 -10.176 -10.174 -10.174
-10.173 -10.173 -10.170 -10.167  -8.048  -8.043  -7.990  -7.988
 -7.985  -7.981  -7.967  -7.966  -6.013  -6.008  -6.007  -6.005
 -6.002  -6.000  -5.953  -5.952  -5.950  -5.949  -5.948  -5.946
 -5.945  -5.945  -5.945  -5.942  -5.941  -5.938  -5.932  -5.930
 -5.928  -5.927  -5.923  -5.922  -1.044  -1.040  -0.983  -0.970
 -0.959  -0.954  -0.951  -0.929  -0.916  -0.915  -0.909  -0.909
 -0.840  -0.839  -0.837  -0.833  -0.809  -0.808  -0.805  -0.804
 -0.804  -0.800  -0.796  -0.794  -0.786  -0.777  -0.767  -0.767
 -0.748  -0.746  -0.740  -0.737  -0.727  -0.724  -0.709  -0.709
 -0.695  -0.690  -0.676  -0.674  -0.656  -0.655  -0.649  -0.645
 -0.637  -0.636  -0.629  -0.626  -0.613  -0.611  -0.598  -0.595
 -0.592  -0.590  -0.587  -0.581  -0.577  -0.576  -0.562  -0.554
 -0.553  -0.550  -0.541  -0.540  -0.528  -0.526  -0.516  -0.513
 -0.512  -0.509  -0.504  -0.502  -0.484  -0.483  -0.482  -0.477
 -0.472  -0.471  -0.469  -0.465  -0.464  -0.457  -0.452  -0.451
 -0.445  -0.441  -0.440  -0.438  -0.435  -0.433  -0.432  -0.430
 -0.428  -0.427  -0.426  -0.422  -0.421  -0.418  -0.415  -0.413
 -0.412  -0.411  -0.409  -0.401  -0.400  -0.396  -0.395  -0.395
 -0.394  -0.392  -0.392  -0.391  -0.388  -0.384  -0.383  -0.381
 -0.379  -0.375  -0.372  -0.368  -0.366  -0.365  -0.354  -0.354
 -0.353  -0.351  -0.350  -0.347  -0.345  -0.345  -0.344  -0.342
 -0.341  -0.337  -0.333  -0.331  -0.331  -0.327  -0.320  -0.319
 -0.319  -0.317  -0.316  -0.308  -0.305  -0.303  -0.301  -0.298
 -0.295  -0.294  -0.293  -0.292  -0.291  -0.289  -0.287  -0.285
 -0.280  -0.274  -0.267  -0.266  -0.254  -0.252  -0.251  -0.249
 -0.245  -0.245  -0.238  -0.233  -0.199  -0.195

          Ground-State Mulliken Net Atomic Charges

     Atom                 Charge (a.u.)
  ----------------------------------------
      1 C                     0.278320
      2 C                    -0.121216
      3 N                    -0.494943
      4 C                    -0.089850
      5 C                     0.074882
      6 C                     0.054858
      7 C                     0.063837
      8 C                     0.036093
      9 C                     0.217846
     10 N                    -0.503957
     11 N                    -0.552499
     12 C                     0.212380
     13 C                     0.272727
     14 S                     0.611907
     15 N                    -0.541969
     16 C                    -0.227884
     17 S                     0.327185
     18 C                    -0.116981
     19 C                    -0.244208
     20 S                     0.254099
     21 C                     0.160239
     22 C                     0.042082
     23 C                    -0.303232
     24 C                    -0.033735
     25 N                    -0.415529
     26 S                     0.264442
     27 C                     0.102790
     28 C                    -0.296831
     29 C                    -0.240354
     30 H                     0.087336
     31 H                     0.098846
     32 H                     0.118271
     33 H                     0.108054
     34 H                     0.125667
     35 H                     0.127348
     36 H                     0.113829
     37 H                     0.150383
     38 H                     0.121451
     39 C                    -0.166050
     40 H                     0.101110
     41 H                     0.112893
     42 H                     0.104532
     43 C                    -0.165635
     44 H                     0.090659
     45 C                    -0.190742
     46 H                     0.096947
     47 H                     0.089894
     48 H                     0.091634
     49 C                    -0.175766
     50 H                     0.088702
     51 C                    -0.326934
     52 H                     0.092783
     53 H                     0.099097
     54 H                     0.107102
     55 H                     0.104520
     56 C                     0.290899
     57 C                    -0.128641
     58 N                    -0.461886
     59 C                    -0.069765
     60 C                     0.076590
     61 C                     0.018838
     62 C                     0.067256
     63 C                     0.050845
     64 C                     0.181220
     65 N                    -0.517874
     66 N                    -0.543138
     67 C                     0.253396
     68 C                     0.283444
     69 S                     0.598147
     70 N                    -0.568935
     71 C                    -0.212263
     72 S                     0.316982
     73 C                    -0.138698
     74 C                    -0.266320
     75 S                     0.267460
     76 C                     0.210270
     77 C                     0.048443
     78 C                    -0.316378
     79 C                    -0.041888
     80 N                    -0.402678
     81 S                     0.263832
     82 C                     0.132265
     83 C                    -0.316579
     84 C                    -0.230720
     85 H                     0.092452
     86 H                     0.101911
     87 H                     0.121585
     88 H                     0.102494
     89 H                     0.123849
     90 H                     0.128637
     91 H                     0.115695
     92 H                     0.142302
     93 H                     0.081204
     94 C                    -0.177403
     95 H                     0.117177
     96 H                     0.087966
     97 H                     0.118857
     98 C                    -0.183132
     99 H                     0.090426
    100 C                    -0.170622
    101 H                     0.082386
    102 H                     0.090174
    103 H                     0.084659
    104 C                    -0.173047
    105 H                     0.101154
    106 C                    -0.312716
    107 H                     0.091702
    108 H                     0.095355
    109 H                     0.100346
    110 H                     0.106029
  ----------------------------------------
  Sum of atomic charges =     0.000000

                    Cartesian Multipole Moments
 -----------------------------------------------------------------
    Charge (ESU x 10^10)
                 0.0000
    Dipole Moment (Debye)
         X       0.8520      Y       2.0508      Z      -0.5606
       Tot       2.2904
    Quadrupole Moments (Debye-Ang)
        XX    -413.7536     XY      -7.1758     YY    -435.3763
        XZ       1.8406     YZ       3.6667     ZZ    -443.1373

 Total job time:  92.02s(wall), 988.55s(cpu)
        *  Thank you very much for using Q-Chem.  Have a nice day.  *
