 Q-Chem 4.4, Q-Chem, Inc., Pleasanton, CA (2016)
 Q-Chem 4.4.2 for Intel X86 Linux

User input:
--------------------------------------------------------------
$comment
SP
$end

$rem
MEM_STATIC 5000
MEM_TOTAL 20000
JOBTYPE SP
EXCHANGE B3LYP
BASIS 6-31g(d,p)
$end

$molecule
0 1
C           8.030000     17.966000     -7.283000
C           6.664000     17.723000     -7.488000
N           8.841000     16.992000     -6.773000
C           6.083000     16.515000     -6.994000
C           8.352000     15.749000     -6.500000
C           6.940000     15.482000     -6.701000
C           6.445000     14.165000     -6.454000
C           5.275000     13.913000     -5.735000
C           7.057000     13.058000     -7.016000
N           4.737000     12.678000     -5.534000
N           8.215000     13.109000     -7.724000
C           6.595000     11.754000     -6.761000
C           5.436000     11.563000     -5.942000
S           8.785000     11.591000     -7.894000
N           7.469000     10.773000     -7.265000
C           4.928000     10.276000     -5.465000
S           5.609000      8.742000     -5.924000
C           3.812000     10.089000     -4.670000
C           4.296000      7.777000     -4.987000
S           2.762000     11.224000     -3.907000
C           3.505000      8.712000     -4.357000
C           4.022000      6.367000     -5.058000
C           1.759000      9.872000     -3.240000
C           2.318000      8.654000     -3.531000
N           4.473000      5.760000     -6.144000
S           3.242000      5.425000     -3.845000
C           4.187000      4.429000     -6.009000
C           3.591000      4.030000     -4.792000
C           8.622000     19.269000     -7.768000
H           6.027000     18.540000     -7.812000
H           5.018000     16.450000     -7.196000
H           9.154000     15.039000     -6.303000
H           4.593000     14.724000     -5.483000
H           0.964000     10.158000     -2.564000
H           1.818000      7.712000     -3.335000
H           4.497000      3.756000     -6.798000
H           3.288000      3.058000     -4.426000
H           9.446000     19.100000     -8.472000
C           9.037000     20.263000     -6.609000
H           7.896000     19.820000     -8.379000
H           9.981000     19.953000     -6.145000
H           8.285000     20.256000     -5.810000
C           9.210000     21.673000     -7.130000
H           9.994000     21.684000     -7.896000
C           9.576000     22.733000     -6.014000
H           8.303000     21.977000     -7.668000
H          10.390000     22.261000     -5.449000
H           8.705000     22.803000     -5.350000
C           9.882000     24.083000     -6.680000
H          10.845000     24.114000     -7.205000
C          10.014000     25.299000     -5.690000
H           9.258000     24.347000     -7.543000
H           9.113000     25.357000     -5.067000
H          10.172000     26.295000     -6.120000
H          10.912000     25.022000     -5.123000
C           3.481000     -1.004000     -3.589000
C           2.992000     -0.332000     -2.483000
N           3.042000     -0.834000     -4.806000
C           2.096000      0.738000     -2.688000
C           2.157000      0.105000     -5.031000
C           1.573000      0.898000     -3.974000
C           0.530000      1.856000     -4.363000
C           0.445000      3.023000     -3.618000
C          -0.513000      1.747000     -5.331000
N          -0.418000      4.021000     -3.817000
N          -0.545000      0.654000     -6.104000
C          -1.441000      2.771000     -5.583000
C          -1.309000      3.975000     -4.876000
S          -1.846000      0.922000     -7.060000
N          -2.247000      2.450000     -6.615000
C          -2.186000      5.175000     -5.059000
S          -3.536000      5.348000     -6.194000
C          -2.004000      6.462000     -4.465000
C          -3.785000      7.021000     -5.739000
S          -0.699000      6.956000     -3.447000
C          -2.869000      7.444000     -4.843000
C          -4.901000      7.838000     -6.191000
C          -1.400000      8.667000     -3.521000
C          -2.565000      8.713000     -4.287000
N          -4.620000      9.096000     -6.247000
S          -6.608000      7.337000     -6.380000
C          -5.754000      9.804000     -6.453000
C          -6.921000      9.088000     -6.535000
C           4.407000     -2.182000     -3.323000
H           3.414000     -0.539000     -1.504000
H           1.785000      1.345000     -1.843000
H           1.769000      0.118000     -6.048000
H           1.065000      3.158000     -2.733000
H          -0.962000      9.495000     -2.980000
H          -3.018000      9.686000     -4.442000
H          -5.600000     10.874000     -6.502000
H          -7.928000      9.379000     -6.803000
H           4.590000     -2.209000     -2.242000
C           5.772000     -2.146000     -4.096000
H           3.903000     -3.140000     -3.503000
H           6.260000     -1.187000     -3.882000
H           5.491000     -2.263000     -5.149000
C           6.796000     -3.245000     -3.666000
H           7.768000     -3.116000     -4.158000
C           6.299000     -4.693000     -3.901000
H           6.931000     -2.998000     -2.605000
H           5.366000     -4.823000     -3.338000
H           6.969000     -5.391000     -3.384000
C           6.229000     -5.058000     -5.371000
H           5.443000     -4.460000     -5.847000
C           5.838000     -6.483000     -5.606000
H           7.101000     -4.760000     -5.966000
H           6.567000     -7.053000     -5.017000
H           6.067000     -6.791000     -6.634000
H           4.848000     -6.683000     -5.177000
$end

--------------------------------------------------------------

             Standard Nuclear Orientation (Angstroms)
    I     Atom           X                Y                Z
 ----------------------------------------------------------------
    1      C      11.3297285912    -1.1543008134    -0.8170903260
    2      C      10.6339622977     0.0413493294    -1.0480881634
    3      N      10.6676364385    -2.2759552837    -0.4047528056
    4      C       9.2574691347     0.1364673428    -0.6778448169
    5      C       9.3122555367    -2.2717749420    -0.2577013324
    6      C       8.5773456297    -1.0418679253    -0.4872011338
    7      C       7.1535048050    -1.0575952214    -0.3733900713
    8      C       6.4331162020    -0.0792563452     0.3145476469
    9      C       6.3968944948    -2.0047859069    -1.0413778286
   10      N       5.0743554105    -0.0240501868     0.3906488392
   11      N       6.9252331040    -3.0439579879    -1.7383776134
   12      C       4.9962000978    -2.0469583913    -0.9182450232
   13      C       4.3270615400    -1.0605063469    -0.1247155942
   14      S       5.7350961499    -4.1116727560    -2.0572556538
   15      N       4.4450437090    -3.1957971330    -1.5154461457
   16      C       2.9049138780    -1.0611415255     0.2209108283
   17      S       1.7667066437    -2.2284702056    -0.3868934530
   18      C       2.2571364452    -0.1126031593     0.9910467678
   19      C       0.3123514096    -1.3781764687     0.4467817919
   20      S       2.8640895767     1.2467519935     1.8609062189
   21      C       0.8387106696    -0.3274749816     1.1649588694
   22      C      -1.0889825959    -1.6226995755     0.2353853512
   23      C       1.1865061683     1.6787113467     2.3880940651
   24      C       0.2824426236     0.7323055791     1.9786172892
   25      N      -1.3897377405    -2.2236549535    -0.9046343752
   26      S      -2.3569118004    -1.2711412177     1.3470936104
   27      C      -2.7412552763    -2.4357406875    -0.9032230712
   28      C      -3.4392312798    -2.0625043037     0.2668325259
   29      C      12.7975713547    -1.2261196962    -1.1689108336
   30      H      11.1951175027     0.9383057155    -1.2905919310
   31      H       8.8345765312     1.1144484292    -0.8875323002
   32      H       8.9214748376    -3.2803606197    -0.1305857313
   33      H       6.9186874479     0.8381868207     0.6444985560
   34      H       1.1042266175     2.5001968232     3.0875143161
   35      H      -0.7900528176     0.8566703684     2.0789513710
   36      H      -3.1816082408    -2.9385786444    -1.7545709765
   37      H      -4.4849502583    -2.1384912931     0.5337534794
   38      H      13.0015461894    -2.0320224629    -1.8845000994
   39      C      13.7611497131    -1.2981932198     0.0840313656
   40      H      13.1066001061    -0.3312487744    -1.7236227085
   41      H      13.7678298815    -2.3057266839     0.5168866463
   42      H      13.4105726210    -0.6254656065     0.8768032501
   43      C      15.1817037360    -0.9394419659    -0.2938493113
   44      H      15.5443692258    -1.6417316036    -1.0533201846
   45      C      16.1930691031    -0.9407858384     0.9227649612
   46      H      15.1896245114     0.0338973867    -0.8008569701
   47      H      15.9932486785    -1.8881035841     1.4397426073
   48      H      15.8840366121    -0.1249528253     1.5886121016
   49      C      17.6190834523    -0.7227247523     0.3949160826
   50      H      18.0418843831    -1.5931224926    -0.1223866784
   51      C      18.7033549336    -0.4457266486     1.5011743732
   52      H      17.7216056225    -0.0169357934    -0.4388657534
   53      H      18.3762670697     0.3952179268     2.1249690112
   54      H      19.7254284192    -0.2236460900     1.1726534219
   55      H      18.7145797708    -1.4020122595     2.0397036977
   56      C      -8.2676264885    -3.7951783260     0.9631840474
   57      C      -7.9219685420    -3.1362408792     2.1294871920
   58      N      -8.1530508099    -3.2837178374    -0.2318015519
   59      C      -7.2296740690    -1.9112623098     2.0300041911
   60      C      -7.5766407768    -2.1150447104    -0.3641858258
   61      C      -7.1480150559    -1.3226165146     0.7651907925
   62      C      -6.5951944429     0.0058712640     0.4711778814
   63      C      -5.6112332899     0.4762515249     1.3283253947
   64      C      -6.9794110546     0.9734080333    -0.5050414563
   65      N      -4.9745677986     1.6445453074     1.2277237552
   66      N      -7.9339098572     0.6395944010    -1.3829380872
   67      C      -6.3369118358     2.2134447030    -0.6559315216
   68      C      -5.2373087284     2.4956903789     0.1675363797
   69      S      -8.0614250551     1.9820339120    -2.3102767705
   70      N      -6.8272049404     2.8862672561    -1.7164141871
   71      C      -4.4195019788     3.7485404493     0.1029080464
   72      S      -4.6360694877     5.1088826970    -1.0120903766
   73      C      -3.2143147056     4.0175002451     0.8222919945
   74      C      -3.2136482644     5.9225617999    -0.3935443549
   75      S      -2.3832921312     2.9409316835     1.8870861591
   76      C      -2.5764806363     5.1879819364     0.5419826826
   77      C      -2.8120614821     7.2710542446    -0.7644151985
   78      C      -1.0379487737     4.2079850120     1.9820867539
   79      C      -1.3407672963     5.3378953292     1.2220205611
   80      N      -1.5375412343     7.4591207697    -0.6944858042
   81      S      -3.8711221669     8.6925564697    -1.0058544044
   82      C      -1.2666759883     8.7772743626    -0.8314497560
   83      C      -2.3420861275     9.6143349351    -0.9866645446
   84      C      -9.0552134458    -5.0887279289     1.1126906005
   85      H      -8.0547355906    -3.6370099913     3.0839384517
   86      H      -6.8562310434    -1.4329081596     2.9305110559
   87      H      -7.6083621308    -1.7139122951    -1.3756642196
   88      H      -5.3465869833    -0.0842790564     2.2236565065
   89      H      -0.1625185852     4.0760522588     2.6036370202
   90      H      -0.5846091485     6.1129899685     1.1635726733
   91      H      -0.2129399501     9.0166494253    -0.7735106408
   92      H      -2.4073180275    10.6673174016    -1.2265118387
   93      H      -9.1159028604    -5.3056042875     2.1860313852
   94      C      -8.4605944003    -6.3243297514     0.3499545210
   95      H     -10.1088239992    -4.9536765832     0.8372891922
   96      H      -7.4149662335    -6.4452303332     0.6592533832
   97      H      -8.5713935518    -6.0682398548    -0.7100457209
   98      C      -9.1550406523    -7.6867317760     0.6707069589
   99      H      -8.6410650629    -8.5317012671     0.1960021532
  100      C     -10.6561939673    -7.7310752194     0.2918793151
  101      H      -8.9765109678    -7.7604235468     1.7512862826
  102      H     -11.1637746165    -6.9252653308     0.8372143570
  103      H     -11.1130415859    -8.6229096523     0.7383259497
  104      C     -10.8827950617    -7.7463775215    -1.2072680371
  105      H     -10.5642240086    -6.7832728211    -1.6231019226
  106      C     -12.3246201188    -7.8814891690    -1.5835875124
  107      H     -10.2379991594    -8.4342557030    -1.7678702595
  108      H     -12.6481664668    -8.7851950334    -1.0526492190
  109      H     -12.4325449179    -8.1705133697    -2.6366336886
  110      H     -12.9051043388    -7.0429081586    -1.1786665828
 ----------------------------------------------------------------

   10   -5663.5111983937      3.59E-06 Convergence criterion met
 Total energy in the final basis set = -5663.5111983937

                    Orbital Energies (a.u.)
 --------------------------------------------------------------

 Alpha MOs
 -- Occupied --
-88.991 -88.987 -88.933 -88.929 -88.927 -88.916 -88.911 -88.905
-14.393 -14.388 -14.384 -14.374 -14.353 -14.347 -14.345 -14.339
-14.328 -14.326 -10.273 -10.272 -10.262 -10.262 -10.261 -10.261
-10.255 -10.250 -10.248 -10.242 -10.241 -10.238 -10.238 -10.235
-10.234 -10.233 -10.233 -10.230 -10.229 -10.229 -10.228 -10.228
-10.227 -10.227 -10.227 -10.226 -10.224 -10.223 -10.222 -10.211
-10.210 -10.210 -10.208 -10.207 -10.204 -10.203 -10.203 -10.196
-10.187 -10.185 -10.183 -10.180 -10.180 -10.180 -10.179 -10.176
-10.176 -10.172 -10.172 -10.169  -8.047  -8.042  -7.993  -7.989
 -7.988  -7.974  -7.970  -7.964  -6.012  -6.007  -6.006  -6.004
 -6.001  -6.000  -5.957  -5.954  -5.953  -5.953  -5.950  -5.949
 -5.949  -5.946  -5.945  -5.938  -5.935  -5.934  -5.931  -5.930
 -5.929  -5.926  -5.925  -5.921  -1.045  -1.017  -0.987  -0.969
 -0.961  -0.956  -0.945  -0.925  -0.920  -0.914  -0.899  -0.884
 -0.843  -0.840  -0.835  -0.832  -0.814  -0.812  -0.809  -0.808
 -0.802  -0.801  -0.801  -0.794  -0.790  -0.779  -0.772  -0.762
 -0.752  -0.744  -0.743  -0.736  -0.728  -0.718  -0.713  -0.705
 -0.694  -0.687  -0.678  -0.668  -0.660  -0.653  -0.651  -0.641
 -0.638  -0.632  -0.631  -0.619  -0.618  -0.607  -0.602  -0.597
 -0.596  -0.591  -0.589  -0.581  -0.580  -0.576  -0.572  -0.558
 -0.556  -0.546  -0.539  -0.535  -0.530  -0.520  -0.520  -0.518
 -0.511  -0.506  -0.504  -0.493  -0.487  -0.482  -0.481  -0.476
 -0.473  -0.470  -0.470  -0.465  -0.461  -0.457  -0.455  -0.451
 -0.448  -0.443  -0.439  -0.437  -0.436  -0.435  -0.433  -0.430
 -0.428  -0.427  -0.425  -0.423  -0.421  -0.418  -0.417  -0.416
 -0.414  -0.409  -0.406  -0.405  -0.400  -0.399  -0.398  -0.397
 -0.396  -0.392  -0.392  -0.390  -0.388  -0.386  -0.382  -0.382
 -0.381  -0.379  -0.372  -0.370  -0.369  -0.365  -0.358  -0.354
 -0.351  -0.350  -0.348  -0.347  -0.345  -0.340  -0.339  -0.338
 -0.335  -0.334  -0.331  -0.330  -0.329  -0.323  -0.323  -0.321
 -0.320  -0.314  -0.311  -0.308  -0.305  -0.302  -0.300  -0.298
 -0.297  -0.296  -0.295  -0.292  -0.290  -0.290  -0.287  -0.283
 -0.279  -0.272  -0.272  -0.259  -0.257  -0.251  -0.251  -0.246
 -0.241  -0.239  -0.236  -0.229  -0.199  -0.189

          Ground-State Mulliken Net Atomic Charges

     Atom                 Charge (a.u.)
  ----------------------------------------
      1 C                     0.282505
      2 C                    -0.125417
      3 N                    -0.478304
      4 C                    -0.084929
      5 C                     0.094342
      6 C                     0.021201
      7 C                     0.043039
      8 C                     0.048022
      9 C                     0.237550
     10 N                    -0.530696
     11 N                    -0.562471
     12 C                     0.198448
     13 C                     0.317110
     14 S                     0.614581
     15 N                    -0.571414
     16 C                    -0.216774
     17 S                     0.340514
     18 C                    -0.117308
     19 C                    -0.227580
     20 S                     0.278494
     21 C                     0.143430
     22 C                     0.030121
     23 C                    -0.321483
     24 C                    -0.055255
     25 N                    -0.409416
     26 S                     0.303832
     27 C                     0.111552
     28 C                    -0.315670
     29 C                    -0.229964
     30 H                     0.086837
     31 H                     0.105456
     32 H                     0.125157
     33 H                     0.109389
     34 H                     0.126391
     35 H                     0.109116
     36 H                     0.112920
     37 H                     0.138297
     38 H                     0.117570
     39 C                    -0.175389
     40 H                     0.095279
     41 H                     0.110343
     42 H                     0.093576
     43 C                    -0.184872
     44 H                     0.093278
     45 C                    -0.168997
     46 H                     0.087649
     47 H                     0.098177
     48 H                     0.095612
     49 C                    -0.186863
     50 H                     0.094462
     51 C                    -0.321228
     52 H                     0.092858
     53 H                     0.100730
     54 H                     0.099767
     55 H                     0.105560
     56 C                     0.289500
     57 C                    -0.124775
     58 N                    -0.457202
     59 C                    -0.076637
     60 C                     0.073242
     61 C                    -0.000517
     62 C                     0.076761
     63 C                     0.047853
     64 C                     0.183826
     65 N                    -0.522743
     66 N                    -0.544653
     67 C                     0.252724
     68 C                     0.288145
     69 S                     0.602361
     70 N                    -0.566760
     71 C                    -0.214707
     72 S                     0.320880
     73 C                    -0.141408
     74 C                    -0.261495
     75 S                     0.278530
     76 C                     0.208675
     77 C                     0.047300
     78 C                    -0.302807
     79 C                    -0.040173
     80 N                    -0.401469
     81 S                     0.266593
     82 C                     0.130311
     83 C                    -0.313144
     84 C                    -0.230927
     85 H                     0.096029
     86 H                     0.105169
     87 H                     0.125144
     88 H                     0.100174
     89 H                     0.109789
     90 H                     0.128532
     91 H                     0.112807
     92 H                     0.138962
     93 H                     0.082504
     94 C                    -0.178343
     95 H                     0.118808
     96 H                     0.088842
     97 H                     0.119259
     98 C                    -0.183315
     99 H                     0.092069
    100 C                    -0.170459
    101 H                     0.082953
    102 H                     0.089653
    103 H                     0.085711
    104 C                    -0.174065
    105 H                     0.100623
    106 C                    -0.312594
    107 H                     0.092637
    108 H                     0.095870
    109 H                     0.100965
    110 H                     0.105854
  ----------------------------------------
  Sum of atomic charges =     0.000000

                    Cartesian Multipole Moments
 -----------------------------------------------------------------
    Charge (ESU x 10^10)
                 0.0000
    Dipole Moment (Debye)
         X      -2.1721      Y       4.1947      Z       1.4906
       Tot       4.9533
    Quadrupole Moments (Debye-Ang)
        XX    -423.4355     XY      14.9062     YY    -402.3298
        XZ     -13.9336     YZ      -7.4155     ZZ    -442.1028

 Total job time:  94.94s(wall), 1022.60s(cpu)
        *  Thank you very much for using Q-Chem.  Have a nice day.  *
