 Q-Chem 4.4, Q-Chem, Inc., Pleasanton, CA (2016)
 Q-Chem 4.4.2 for Intel X86 Linux

User input:
--------------------------------------------------------------
$comment
SP
$end

$rem
MEM_STATIC 5000
MEM_TOTAL 20000
JOBTYPE SP
EXCHANGE B3LYP
BASIS 6-31g(d,p)
$end

$molecule
0 1
C           3.269000     -3.900000     -9.310000
C           3.239000     -3.084000     -8.196000
N           2.834000     -3.485000    -10.478000
C           2.603000     -1.838000     -8.249000
C           2.203000     -2.304000    -10.637000
C           1.931000     -1.475000     -9.521000
C           1.166000     -0.223000     -9.594000
C           1.596000      0.969000     -9.007000
C          -0.077000     -0.144000    -10.246000
N           1.009000      2.170000     -9.060000
N          -0.770000     -1.130000    -10.834000
C          -0.734000      1.105000    -10.275000
C          -0.184000      2.313000     -9.719000
S          -2.239000     -0.526000    -11.280000
N          -1.982000      0.993000    -10.780000
C          -0.887000      3.608000     -9.646000
S          -2.526000      3.952000    -10.226000
C          -0.444000      4.747000     -8.964000
C          -2.393000      5.643000     -9.671000
S           1.050000      4.976000     -8.037000
C          -1.244000      5.838000     -9.026000
C          -3.303000      6.713000    -10.054000
C           0.352000      6.491000     -7.553000
C          -0.870000      6.816000     -8.164000
N          -4.076000      6.368000    -11.113000
S          -3.741000      8.209000     -9.287000
C          -4.886000      7.341000    -11.556000
C          -4.790000      8.378000    -10.678000
C           4.142000     -5.144000     -9.293000
H           3.659000     -3.414000     -7.250000
H           2.479000     -1.166000     -7.405000
H           1.975000     -2.101000    -11.682000
H           2.527000      0.898000     -8.446000
H           0.924000      7.147000     -6.910000
H          -1.465000      7.698000     -7.953000
H          -5.547000      7.156000    -12.393000
H          -5.373000      9.286000    -10.749000
H           5.023000     -4.967000     -9.922000
C           3.451000     -6.441000     -9.742000
H           4.506000     -5.340000     -8.277000
H           3.579000     -6.691000    -10.802000
H           2.381000     -6.373000     -9.512000
C           3.981000     -7.615000     -8.890000
H           5.067000     -7.674000     -9.033000
C           3.377000     -8.986000     -9.270000
H           3.713000     -7.351000     -7.859000
H           2.301000     -9.013000     -9.058000
H           3.802000     -9.745000     -8.602000
C           3.500000     -9.326000    -10.763000
H           2.790000     -8.702000    -11.319000
C           3.208000    -10.791000    -11.056000
H           4.546000     -9.069000    -10.970000
H           3.266000    -11.044000    -12.122000
H           2.194000    -11.056000    -10.735000
H           3.946000    -11.441000    -10.570000
C           3.481000     -1.004000     -3.589000
C           2.992000     -0.332000     -2.483000
N           3.042000     -0.834000     -4.806000
C           2.096000      0.738000     -2.688000
C           2.157000      0.105000     -5.031000
C           1.573000      0.898000     -3.974000
C           0.530000      1.856000     -4.363000
C           0.445000      3.023000     -3.618000
C          -0.513000      1.747000     -5.331000
N          -0.418000      4.021000     -3.817000
N          -0.545000      0.654000     -6.104000
C          -1.441000      2.771000     -5.583000
C          -1.309000      3.975000     -4.876000
S          -1.846000      0.922000     -7.060000
N          -2.247000      2.450000     -6.615000
C          -2.186000      5.175000     -5.059000
S          -3.536000      5.348000     -6.194000
C          -2.004000      6.462000     -4.465000
C          -3.785000      7.021000     -5.739000
S          -0.699000      6.956000     -3.447000
C          -2.869000      7.444000     -4.843000
C          -4.901000      7.838000     -6.191000
C          -1.400000      8.667000     -3.521000
C          -2.565000      8.713000     -4.287000
N          -4.620000      9.096000     -6.247000
S          -6.608000      7.337000     -6.380000
C          -5.754000      9.804000     -6.453000
C          -6.921000      9.088000     -6.535000
C           4.407000     -2.182000     -3.323000
H           3.414000     -0.539000     -1.504000
H           1.785000      1.345000     -1.843000
H           1.769000      0.118000     -6.048000
H           1.065000      3.158000     -2.733000
H          -0.962000      9.495000     -2.980000
H          -3.018000      9.686000     -4.442000
H          -5.600000     10.874000     -6.502000
H          -7.928000      9.379000     -6.803000
H           4.590000     -2.209000     -2.242000
C           5.772000     -2.146000     -4.096000
H           3.903000     -3.140000     -3.503000
H           6.260000     -1.187000     -3.882000
H           5.491000     -2.263000     -5.149000
C           6.796000     -3.245000     -3.666000
H           7.768000     -3.116000     -4.158000
C           6.299000     -4.693000     -3.901000
H           6.931000     -2.998000     -2.605000
H           5.366000     -4.823000     -3.338000
H           6.969000     -5.391000     -3.384000
C           6.229000     -5.058000     -5.371000
H           5.443000     -4.460000     -5.847000
C           5.838000     -6.483000     -5.606000
H           7.101000     -4.760000     -5.966000
H           6.567000     -7.053000     -5.017000
H           6.067000     -6.791000     -6.634000
H           4.848000     -6.683000     -5.177000
$end

--------------------------------------------------------------

             Standard Nuclear Orientation (Angstroms)
    I     Atom           X                Y                Z
 ----------------------------------------------------------------
    1      C       6.7549455371    -1.5541660945    -0.6760112043
    2      C       5.9949837823    -0.4049439510    -0.5785504625
    3      N       6.2237095424    -2.7013748914    -1.0329065592
    4      C       4.6028175300    -0.4641808108    -0.7134026787
    5      C       4.8941354553    -2.8668115429    -1.1847830259
    6      C       3.9983027784    -1.8052616660    -0.9067962024
    7      C       2.5353735922    -1.9305002931    -0.9538226029
    8      C       1.7121806636    -1.0148226383    -1.6127769524
    9      C       1.8543155119    -2.9788788891    -0.3108169957
   10      N       0.3837809796    -1.0637713589    -1.7635658855
   11      N       2.3657110817    -3.9572500752     0.4504013656
   12      C       0.4477743263    -3.0237800382    -0.4208932417
   13      C      -0.3260248140    -2.0876810333    -1.1928087444
   14      S       1.1102799107    -4.8076763572     1.1002942135
   15      N      -0.0783969600    -3.9761101314     0.3799089630
   16      C      -1.7998467925    -2.0490877496    -1.2468673629
   17      S      -2.9147329498    -3.1335840334    -0.3971887962
   18      C      -2.5748834082    -1.0521564268    -1.8503076515
   19      C      -4.3168050621    -2.2674552802    -1.0821776828
   20      S      -2.0395504537     0.3977302799    -2.7192456041
   21      C      -3.9184585885    -1.2104709540    -1.7881204718
   22      C      -5.6858361622    -2.7623912197    -1.0602399865
   23      C      -3.7160822874     0.8514382123    -2.7105782878
   24      C      -4.5986197988    -0.1063341372    -2.1851930316
   25      N      -5.7450176431    -4.0796050244    -0.7448349373
   26      S      -7.2238331118    -1.9569450400    -1.1232545458
   27      C      -6.9770198567    -4.6088865122    -0.7781463817
   28      C      -7.8515550799    -3.5848987424    -0.9833443123
   29      C       8.2689663580    -1.4372026011    -0.7393712479
   30      H       6.4548708661     0.5510462100    -0.3444507354
   31      H       3.9288436904     0.3779905989    -0.5876943647
   32      H       4.6459592463    -3.8631113234    -1.5467406432
   33      H       2.2294226757    -0.1659201311    -2.0581399886
   34      H      -4.0095518476     1.7727272451    -3.1964498093
   35      H      -5.6689153648     0.0220240161    -2.0649366977
   36      H      -7.1246370471    -5.6527676370    -0.5327154088
   37      H      -8.9263072085    -3.7027995648    -1.0033757396
   38      H       8.5971731510    -1.6401318969    -1.7661287664
   39      C       9.0419195121    -2.3462984179     0.2288122149
   40      H       8.5824009873    -0.4142567741    -0.4974858038
   41      H       9.3655695509    -3.3047482527    -0.1943999856
   42      H       8.4230469329    -2.5315263594     1.1148773030
   43      C      10.2849149025    -1.5897430401     0.7461770954
   44      H      10.9007389437    -1.3179146293    -0.1199614994
   45      C      11.1631933322    -2.4169365024     1.7122179722
   46      H       9.8783574935    -0.7081511865     1.2580246087
   47      H      10.6233039154    -2.6383175726     2.6411737513
   48      H      12.0043910890    -1.7903342633     2.0326644857
   49      C      11.5791633077    -3.7864153709     1.1542980781
   50      H      10.7021182028    -4.4446613621     1.1650730020
   51      C      12.6950495928    -4.4336538041     1.9625172374
   52      H      11.9064838229    -3.5293825824     0.1395028150
   53      H      12.9854569314    -5.4246760257     1.5920209027
   54      H      12.3863639314    -4.5766786225     3.0044956747
   55      H      13.6116620684    -3.8330336901     1.9133537546
   56      C       4.1490418499     4.2474352222     0.1679610316
   57      C       3.2762523923     5.1885070978     0.6842587052
   58      N       3.8275158682     3.0090082879    -0.0882220506
   59      C       1.9070975203     4.8602363762     0.7702486444
   60      C       2.5770041876     2.6425726444     0.0441276972
   61      C       1.5537063120     3.5255206203     0.5544396896
   62      C       0.2122978751     2.9539447706     0.7301054336
   63      C      -0.8612894943     3.8126752932     0.5453595278
   64      C      -0.1917619688     1.6603184314     1.1773419895
   65      N      -2.1520515308     3.4890658549     0.6432589491
   66      N       0.7593569251     0.7454592327     1.4045148230
   67      C      -1.5360819145     1.2687916476     1.2903670360
   68      C      -2.5279991335     2.1823108331     0.9050464834
   69      S      -0.1008581807    -0.5655725498     1.8731155455
   70      N      -1.6339220629    -0.0320421085     1.6308958077
   71      C      -3.9995699144     1.9052241877     0.9229469816
   72      S      -4.7963171186     0.3957724658     1.3998152988
   73      C      -5.0321329688     2.7506395658     0.4116590227
   74      C      -6.3756334408     1.0228823219     0.9750233700
   75      S      -4.8247814131     4.2602296412    -0.4016847772
   76      C      -6.3028505562     2.2610576273     0.4435861068
   77      C      -7.6313353817     0.3404206165     1.2483503835
   78      C      -6.6476641806     4.2432216742    -0.7198154814
   79      C      -7.2555927841     3.1150243987    -0.1687340713
   80      N      -8.5612872224     0.6288693027     0.4017997770
   81      S      -8.0739353383    -0.5716505277     2.7223932954
   82      C      -9.7430811796     0.1424151535     0.8449491914
   83      C      -9.7278589091    -0.5073639200     2.0527672399
   84      C       5.6235982132     4.6224294502     0.1366742878
   85      H       3.6305061180     6.1979036281     0.8713334028
   86      H       1.1924034527     5.6202960822     1.0714406645
   87      H       2.4079191996     1.5757839337    -0.0914234504
   88      H      -0.6939639237     4.8752571587     0.3757366154
   89      H      -7.1532101508     5.0529624273    -1.2285906624
   90      H      -8.3155660209     2.9823563011    -0.3553323379
   91      H     -10.5777897031     0.3542391391     0.1896559136
   92      H     -10.4846726116    -1.0788696147     2.5735054280
   93      H       5.6964320849     5.6668048630     0.4634069373
   94      C       6.3277709352     4.4466854261    -1.2544780459
   95      H       6.1915659291     4.0908317320     0.9106229551
   96      H       5.7493040332     5.0032122820    -2.0023248898
   97      H       6.3265838202     3.3638647237    -1.4246453674
   98      C       7.7784164294     5.0221508940    -1.3302681864
   99      H       8.1889473624     4.9690873879    -2.3462099256
  100      C       8.7717589146     4.3527900957    -0.3483492342
  101      H       7.5927699121     6.0808143974    -1.1072839777
  102      H       8.3792478235     4.4848356250     0.6679465011
  103      H       9.6931598733     4.9468188731    -0.3090671139
  104      C       9.1087662283     2.9262564994    -0.7362319087
  105      H       8.2115345460     2.3068641792    -0.6208869396
  106      C      10.1370204215     2.3013951914     0.1531345287
  107      H       9.3273443963     2.7730936487    -1.8001763271
  108      H      10.9762619770     3.0067493403     0.1155694363
  109      H      10.5610341509     1.3995818776    -0.3062499554
  110      H       9.7805986310     2.2773944449     1.1906934290
 ----------------------------------------------------------------

   10   -5663.5006102983      7.29E-06 Convergence criterion met
 Total energy in the final basis set = -5663.5006102983

                    Orbital Energies (a.u.)
 --------------------------------------------------------------

 Alpha MOs
 -- Occupied --
-88.984 -88.984 -88.934 -88.934 -88.927 -88.916 -88.908 -88.908
-14.385 -14.380 -14.375 -14.368 -14.348 -14.346 -14.346 -14.331
-14.328 -14.312 -10.273 -10.266 -10.263 -10.263 -10.254 -10.254
-10.250 -10.247 -10.247 -10.239 -10.239 -10.236 -10.235 -10.232
-10.231 -10.231 -10.229 -10.228 -10.226 -10.225 -10.225 -10.224
-10.221 -10.219 -10.219 -10.219 -10.217 -10.217 -10.214 -10.213
-10.211 -10.206 -10.206 -10.202 -10.201 -10.192 -10.186 -10.186
-10.185 -10.180 -10.180 -10.177 -10.175 -10.175 -10.172 -10.171
-10.170 -10.168 -10.168 -10.167  -8.039  -8.039  -7.994  -7.994
 -7.985  -7.974  -7.967  -7.967  -6.004  -6.004  -5.999  -5.999
 -5.997  -5.997  -5.958  -5.958  -5.955  -5.954  -5.951  -5.951
 -5.950  -5.946  -5.942  -5.938  -5.935  -5.932  -5.931  -5.930
 -5.928  -5.928  -5.924  -5.923  -1.037  -1.028  -0.988  -0.966
 -0.959  -0.950  -0.949  -0.932  -0.918  -0.917  -0.907  -0.891
 -0.841  -0.840  -0.834  -0.825  -0.810  -0.808  -0.807  -0.806
 -0.802  -0.800  -0.799  -0.789  -0.787  -0.778  -0.769  -0.761
 -0.751  -0.750  -0.742  -0.739  -0.725  -0.714  -0.711  -0.705
 -0.693  -0.690  -0.674  -0.670  -0.657  -0.647  -0.645  -0.638
 -0.637  -0.628  -0.627  -0.616  -0.616  -0.606  -0.601  -0.598
 -0.594  -0.590  -0.589  -0.582  -0.579  -0.570  -0.557  -0.556
 -0.550  -0.542  -0.541  -0.535  -0.527  -0.519  -0.519  -0.517
 -0.515  -0.503  -0.497  -0.494  -0.485  -0.479  -0.477  -0.473
 -0.471  -0.469  -0.465  -0.462  -0.461  -0.458  -0.455  -0.451
 -0.449  -0.443  -0.442  -0.438  -0.435  -0.434  -0.430  -0.429
 -0.427  -0.424  -0.422  -0.419  -0.416  -0.415  -0.414  -0.412
 -0.412  -0.407  -0.404  -0.401  -0.400  -0.397  -0.396  -0.396
 -0.395  -0.394  -0.391  -0.390  -0.389  -0.385  -0.383  -0.381
 -0.380  -0.378  -0.373  -0.369  -0.367  -0.360  -0.354  -0.354
 -0.351  -0.349  -0.347  -0.345  -0.344  -0.342  -0.341  -0.338
 -0.337  -0.333  -0.330  -0.327  -0.326  -0.323  -0.321  -0.315
 -0.313  -0.310  -0.306  -0.303  -0.300  -0.300  -0.298  -0.297
 -0.296  -0.295  -0.294  -0.292  -0.289  -0.288  -0.275  -0.273
 -0.270  -0.268  -0.267  -0.260  -0.257  -0.252  -0.251  -0.245
 -0.236  -0.235  -0.234  -0.224  -0.196  -0.186

          Ground-State Mulliken Net Atomic Charges

     Atom                 Charge (a.u.)
  ----------------------------------------
      1 C                     0.294842
      2 C                    -0.147990
      3 N                    -0.482042
      4 C                    -0.054593
      5 C                     0.093783
      6 C                    -0.004001
      7 C                     0.035566
      8 C                     0.063309
      9 C                     0.251872
     10 N                    -0.539226
     11 N                    -0.578464
     12 C                     0.178991
     13 C                     0.308354
     14 S                     0.599577
     15 N                    -0.560546
     16 C                    -0.224611
     17 S                     0.362386
     18 C                    -0.133209
     19 C                    -0.243152
     20 S                     0.292113
     21 C                     0.207299
     22 C                     0.033721
     23 C                    -0.309557
     24 C                    -0.089196
     25 N                    -0.426401
     26 S                     0.314537
     27 C                     0.146678
     28 C                    -0.329860
     29 C                    -0.230880
     30 H                     0.100325
     31 H                     0.112894
     32 H                     0.111239
     33 H                     0.109403
     34 H                     0.129163
     35 H                     0.111684
     36 H                     0.125003
     37 H                     0.112957
     38 H                     0.118691
     39 C                    -0.166039
     40 H                     0.101282
     41 H                     0.108854
     42 H                     0.096329
     43 C                    -0.195425
     44 H                     0.088349
     45 C                    -0.172985
     46 H                     0.094731
     47 H                     0.084803
     48 H                     0.084880
     49 C                    -0.172798
     50 H                     0.105099
     51 C                    -0.318651
     52 H                     0.090649
     53 H                     0.097492
     54 H                     0.101386
     55 H                     0.100929
     56 C                     0.298717
     57 C                    -0.131101
     58 N                    -0.486363
     59 C                    -0.070229
     60 C                     0.084079
     61 C                     0.024564
     62 C                     0.067264
     63 C                     0.053366
     64 C                     0.190126
     65 N                    -0.522372
     66 N                    -0.552641
     67 C                     0.257042
     68 C                     0.294637
     69 S                     0.609346
     70 N                    -0.572676
     71 C                    -0.205203
     72 S                     0.328246
     73 C                    -0.137988
     74 C                    -0.279653
     75 S                     0.264049
     76 C                     0.209715
     77 C                     0.048231
     78 C                    -0.316481
     79 C                    -0.043113
     80 N                    -0.405692
     81 S                     0.272621
     82 C                     0.122072
     83 C                    -0.311520
     84 C                    -0.230748
     85 H                     0.094294
     86 H                     0.103888
     87 H                     0.123221
     88 H                     0.100662
     89 H                     0.123887
     90 H                     0.124789
     91 H                     0.110639
     92 H                     0.137751
     93 H                     0.083117
     94 C                    -0.179337
     95 H                     0.116266
     96 H                     0.090150
     97 H                     0.116120
     98 C                    -0.183067
     99 H                     0.092213
    100 C                    -0.172023
    101 H                     0.083696
    102 H                     0.090436
    103 H                     0.086947
    104 C                    -0.181994
    105 H                     0.101687
    106 C                    -0.315962
    107 H                     0.095030
    108 H                     0.095024
    109 H                     0.109471
    110 H                     0.105260
  ----------------------------------------
  Sum of atomic charges =     0.000000

                    Cartesian Multipole Moments
 -----------------------------------------------------------------
    Charge (ESU x 10^10)
                 0.0000
    Dipole Moment (Debye)
         X      -4.9816      Y       2.8623      Z       1.6384
       Tot       5.9744
    Quadrupole Moments (Debye-Ang)
        XX    -383.4733     XY      24.3697     YY    -427.5649
        XZ      -1.0018     YZ      -9.5448     ZZ    -447.0543

 Total job time:  118.77s(wall), 1306.03s(cpu)
        *  Thank you very much for using Q-Chem.  Have a nice day.  *
