 Q-Chem 4.4, Q-Chem, Inc., Pleasanton, CA (2016)
 Q-Chem 4.4.2 for Intel X86 Linux

User input:
--------------------------------------------------------------
$comment
SP
$end

$rem
MEM_STATIC 5000
MEM_TOTAL 20000
JOBTYPE SP
EXCHANGE B3LYP
BASIS 6-31g(d,p)
$end

$molecule
0 1
C           5.243000    -21.699000     -3.794000
C           6.227000    -22.674000     -4.072000
N           5.577000    -20.495000     -3.299000
C           7.602000    -22.242000     -3.921000
C           6.868000    -20.158000     -3.181000
C           7.962000    -20.975000     -3.419000
C           9.428000    -20.627000     -3.305000
C          10.451000    -21.540000     -3.024000
C           9.957000    -19.352000     -3.490000
N          11.780000    -21.300000     -2.886000
N           9.179000    -18.266000     -3.723000
C          11.325000    -19.026000     -3.488000
C          12.223000    -20.031000     -3.074000
S          10.156000    -16.987000     -3.815000
N          11.553000    -17.643000     -3.605000
C          13.617000    -19.844000     -2.662000
S          14.428000    -20.802000     -1.422000
C          14.604000    -19.067000     -3.218000
C          16.018000    -20.172000     -1.781000
S          14.386000    -18.048000     -4.601000
C          15.914000    -19.222000     -2.769000
C          17.240000    -20.426000     -1.068000
C          16.128000    -17.963000     -4.676000
C          16.827000    -18.532000     -3.630000
N          17.327000    -21.584000     -0.504000
S          18.549000    -19.303000     -0.841000
C          18.536000    -21.591000      0.234000
C          19.376000    -20.527000      0.049000
C           3.788000    -22.098000     -3.752000
H           6.120000    -23.637000     -4.563000
H           8.332000    -22.997000     -4.195000
H           7.003000    -19.161000     -2.763000
H          10.168000    -22.584000     -2.898000
H          16.612000    -17.407000     -5.468000
H          17.902000    -18.477000     -3.506000
H          18.725000    -22.516000      0.761000
H          20.349000    -20.366000      0.494000
H           3.597000    -23.018000     -3.186000
C           3.210000    -22.436000     -5.198000
H           3.127000    -21.345000     -3.303000
H           3.638000    -23.395000     -5.518000
H           3.481000    -21.572000     -5.817000
C           1.653000    -22.534000     -5.230000
H           1.293000    -23.366000     -4.612000
C           1.079000    -22.625000     -6.675000
H           1.210000    -21.712000     -4.654000
H           1.549000    -23.453000     -7.219000
H           1.105000    -21.676000     -7.225000
C          -0.366000    -23.101000     -6.593000
H          -0.698000    -23.582000     -7.521000
C          -1.370000    -22.024000     -6.231000
H          -0.476000    -23.983000     -5.951000
H          -1.186000    -21.040000     -6.682000
H          -1.463000    -21.747000     -5.174000
H          -2.391000    -22.348000     -6.465000
C           4.013000    -28.239000     -2.556000
C           5.260000    -27.954000     -3.205000
N           3.550000    -27.549000     -1.505000
C           5.963000    -26.854000     -2.787000
C           4.297000    -26.500000     -1.052000
C           5.483000    -26.026000     -1.706000
C           6.255000    -24.931000     -1.039000
C           7.653000    -25.078000     -0.849000
C           5.686000    -23.705000     -0.528000
N           8.445000    -24.134000     -0.246000
N           4.377000    -23.425000     -0.604000
C           6.542000    -22.728000     -0.022000
C           7.916000    -22.936000      0.104000
S           4.281000    -21.929000      0.036000
N           5.832000    -21.642000      0.317000
C           8.878000    -22.084000      0.868000
S           8.396000    -20.536000      1.484000
C          10.254000    -22.198000      1.019000
C          10.021000    -20.063000      1.896000
S          11.254000    -23.427000      0.421000
C          10.859000    -21.062000      1.537000
C          10.447000    -18.767000      2.340000
C          12.644000    -22.443000      0.889000
C          12.281000    -21.276000      1.487000
N          11.754000    -18.521000      2.392000
S           9.430000    -17.376000      2.246000
C          12.014000    -17.238000      2.642000
C          10.850000    -16.499000      2.662000
C           3.256000    -29.506000     -2.982000
H           5.553000    -28.576000     -4.046000
H           6.829000    -26.630000     -3.403000
H           3.867000    -25.931000     -0.229000
H           8.115000    -26.048000     -1.028000
H          13.623000    -22.848000      0.670000
H          13.060000    -20.631000      1.876000
H          13.050000    -16.936000      2.721000
H          10.728000    -15.433000      2.800000
H           3.903000    -30.336000     -2.672000
C           2.933000    -29.428000     -4.463000
H           2.298000    -29.543000     -2.448000
H           3.863000    -29.312000     -5.033000
H           2.377000    -28.509000     -4.687000
C           2.161000    -30.697000     -4.886000
H           2.789000    -31.585000     -4.743000
C           1.915000    -30.647000     -6.428000
H           1.158000    -30.753000     -4.445000
H           2.011000    -31.682000     -6.779000
H           2.757000    -30.142000     -6.917000
C           0.589000    -29.867000     -6.785000
H          -0.279000    -30.151000     -6.178000
C           0.202000    -30.214000     -8.262000
H           0.799000    -28.806000     -6.596000
H           0.098000    -31.303000     -8.348000
H           1.025000    -29.910000     -8.921000
H          -0.707000    -29.657000     -8.524000
$end

--------------------------------------------------------------

             Standard Nuclear Orientation (Angstroms)
    I     Atom           X                Y                Z
 ----------------------------------------------------------------
    1      C       3.2784508131    -2.0374908250    -1.0881034886
    2      C       2.9889968652    -0.6903062503    -1.4003135681
    3      N       2.2959217016    -2.9227838088    -0.8491686068
    4      C       1.5864029392    -0.3724558239    -1.5785027521
    5      C       1.0179267974    -2.5644250059    -1.0293962218
    6      C       0.5497941818    -1.2991460854    -1.3470282534
    7      C      -0.8798657928    -0.8616574972    -1.5659622439
    8      C      -1.3654324203     0.4335546061    -1.3521640733
    9      C      -1.8988342986    -1.6873807067    -2.0345509395
   10      N      -2.6331732787     0.8941019874    -1.5058332810
   11      N      -1.7147441948    -3.0094334207    -2.2738341508
   12      C      -3.2086555961    -1.2768211207    -2.3403498845
   13      C      -3.5761376179     0.0301665174    -1.9601324761
   14      S      -3.1348764870    -3.6151235013    -2.7377283185
   15      N      -4.0428313000    -2.3500647318    -2.7018205557
   16      C      -4.9382143613     0.5603325246    -1.8523366044
   17      S      -5.4521357656     1.7558606481    -0.6608323887
   18      C      -6.0129056597     0.4076327023    -2.6942127102
   19      C      -7.0100648356     2.0283545544    -1.4041257923
   20      S      -5.9935540647    -0.5359899297    -4.1460308270
   21      C      -7.1473784853     1.1889720828    -2.4839600518
   22      C      -8.0854274654     2.8419380634    -0.9062843633
   23      C      -7.4830144997     0.2739584874    -4.5618495065
   24      C      -8.0449291878     1.0838143309    -3.5949661650
   25      N      -7.7319482245     3.8658844976    -0.2039915995
   26      S      -9.7854303178     2.5281984532    -1.1004408948
   27      C      -8.9220187973     4.4591303929     0.2840302642
   28      C     -10.1004939022     3.9725656418    -0.2123286484
   29      C       4.6863814730    -2.4305383057    -0.7122911221
   30      H       3.6627358817     0.1018550261    -1.7140893633
   31      H       1.4031670893     0.6565006323    -1.8712043656
   32      H       0.3215465616    -3.3693600330    -0.7968189887
   33      H      -0.6513826885     1.1864297577    -1.0216901913
   34      H      -7.9710125730     0.0651670466    -5.5046750549
   35      H      -9.0059081204     1.5758881407    -3.6866659841
   36      H      -8.7584743268     5.3349779538     0.8965816958
   37      H     -11.1035043470     4.3112062097     0.0112057188
   38      H       5.1580326910    -1.7524080679     0.0094578018
   39      C       5.6813124513    -2.3842013984    -1.9561597805
   40      H       4.7707993782    -3.4285927647    -0.2625223880
   41      H       5.8620721231    -1.3305633260    -2.2060352566
   42      H       5.1820989728    -2.9718731716    -2.7362404108
   43      C       7.0468725298    -3.0859118497    -1.6773675380
   44      H       7.6057245000    -2.5707958122    -0.8861103463
   45      C       7.9185082745    -3.2505340224    -2.9575755949
   46      H       6.8841036311    -4.0373734215    -1.1558925501
   47      H       8.0538325609    -2.2812920437    -3.4522242826
   48      H       7.5678622652    -4.0376150676    -3.6367867583
   49      C       9.3458003150    -3.5734455537    -2.5334405056
   50      H      10.0795086925    -3.2963418647    -3.3000268102
   51      C       9.5826379760    -5.0214215760    -2.1509978806
   52      H       9.7127486908    -2.8896014629    -1.7589121659
   53      H       9.0584537097    -5.7620203297    -2.7692675150
   54      H       9.2747342031    -5.3417442397    -1.1483934433
   55      H      10.6547388352    -5.2506870669    -2.1365036631
   56      C       7.1877106909     2.9386130463     1.3146494054
   57      C       6.1547703779     3.3445813330     0.4059915711
   58      N       6.9925164909     2.0753437786     2.3204999886
   59      C       4.9304234441     2.7380357322     0.5155818073
   60      C       5.7475077838     1.5338725388     2.4632627837
   61      C       4.6755148640     1.7462166579     1.5333546404
   62      C       3.3361648750     1.1707450480     1.8722824103
   63      C       2.1854864605     1.9981320272     1.8132656915
   64      C       3.0991683202    -0.1906084901     2.2947835076
   65      N       0.9177297312     1.5650442430     2.1086245351
   66      N       4.0833182118    -1.0913799593     2.4278877942
   67      C       1.7846763684    -0.6166226428     2.4789677915
   68      C       0.6990118271     0.2533083275     2.3714103155
   69      S       3.2866384159    -2.4505641553     2.8459208361
   70      N       1.7751910365    -1.9229563511     2.7819847402
   71      C      -0.7056202488    -0.0197607188     2.8044068830
   72      S      -1.1969016418    -1.6181610506     3.2646709076
   73      C      -1.8444772993     0.7693245095     2.7068255271
   74      C      -2.8919875387    -1.2177701378     3.2863254503
   75      S      -1.9480392204     2.3540236298     2.1185665480
   76      C      -3.0276238558     0.0789286906     2.9267410544
   77      C      -3.9843726526    -2.1341994400     3.4446924201
   78      C      -3.7063047973     2.1932133672     2.1635356520
   79      C      -4.1088281533     0.9840445144     2.6401357291
   80      N      -5.2160055476    -1.6871425031     3.2108345419
   81      S      -3.7800570787    -3.8445827499     3.3405287061
   82      C      -6.1161354483    -2.6699665296     3.2143122815
   83      C      -5.4993275620    -3.8962787745     3.3451683456
   84      C       8.5403376517     3.6620940014     1.2322503001
   85      H       6.4100371938     4.0564184764    -0.3738422150
   86      H       4.2398437205     3.0028781744    -0.2797458774
   87      H       5.6375196341     0.7990467658     3.2594560330
   88      H       2.3093513401     3.0738441358     1.6954270268
   89      H      -4.2818222572     3.0445242636     1.8251920235
   90      H      -5.1697456218     0.8091462600     2.7744924394
   91      H      -7.1532541200    -2.4090924332     3.0497809266
   92      H      -5.9460987738    -4.8815092301     3.3445098748
   93      H       8.3240978798     4.6946904942     1.5332384130
   94      C       9.1274077618     3.4798541853    -0.1555217760
   95      H       9.2372788972     3.1921898856     1.9377657303
   96      H       8.4243321747     3.8686664680    -0.9023589253
   97      H       9.2034312186     2.4137322231    -0.4034681329
   98      C      10.4929134882     4.1973772981    -0.2318676580
   99      H      10.3605769839     5.2758200649    -0.0807873862
  100      C      11.0432850501     4.0802001593    -1.6893108514
  101      H      11.2591035128     3.7241354921     0.3947271387
  102      H      11.5476884722     5.0325078562    -1.8950515576
  103      H      10.2064669186     4.0865024050    -2.3983987842
  104      C      11.8664348270     2.7489308421    -1.8997186693
  105      H      12.5899176712     2.5350992964    -1.1038684043
  106      C      12.7123617000     2.9006111616    -3.2085761123
  107      H      11.1305032711     1.9342116638    -1.9131129050
  108      H      13.3480954713     3.7897049866    -3.1111710685
  109      H      12.0294562991     3.0761437789    -4.0493225150
  110      H      13.2699607779     1.9693417071    -3.3728760559
 ----------------------------------------------------------------

   10   -5663.5137066371      4.26E-06 Convergence criterion met
 Total energy in the final basis set = -5663.5137066371

                    Orbital Energies (a.u.)
 --------------------------------------------------------------

 Alpha MOs
 -- Occupied --
-88.993 -88.985 -88.927 -88.926 -88.916 -88.914 -88.906 -88.895
-14.385 -14.380 -14.377 -14.372 -14.348 -14.346 -14.340 -14.333
-14.329 -14.327 -10.263 -10.262 -10.260 -10.260 -10.259 -10.253
-10.252 -10.250 -10.236 -10.235 -10.234 -10.233 -10.232 -10.230
-10.230 -10.230 -10.229 -10.228 -10.227 -10.226 -10.225 -10.224
-10.224 -10.223 -10.222 -10.222 -10.220 -10.218 -10.217 -10.214
-10.214 -10.208 -10.204 -10.203 -10.201 -10.199 -10.197 -10.184
-10.184 -10.184 -10.183 -10.183 -10.180 -10.180 -10.179 -10.178
-10.178 -10.175 -10.174 -10.168  -8.049  -8.040  -7.988  -7.988
 -7.975  -7.975  -7.968  -7.956  -6.014  -6.008  -6.008  -6.005
 -6.000  -5.998  -5.952  -5.951  -5.949  -5.948  -5.945  -5.945
 -5.940  -5.939  -5.936  -5.935  -5.932  -5.932  -5.931  -5.928
 -5.924  -5.921  -5.917  -5.913  -1.046  -1.043  -0.976  -0.973
 -0.955  -0.948  -0.939  -0.932  -0.915  -0.914  -0.904  -0.902
 -0.845  -0.845  -0.830  -0.826  -0.813  -0.810  -0.810  -0.809
 -0.805  -0.802  -0.795  -0.795  -0.783  -0.781  -0.767  -0.766
 -0.747  -0.745  -0.743  -0.734  -0.720  -0.718  -0.709  -0.708
 -0.695  -0.689  -0.672  -0.669  -0.656  -0.648  -0.646  -0.640
 -0.635  -0.628  -0.624  -0.621  -0.608  -0.607  -0.600  -0.597
 -0.591  -0.589  -0.583  -0.580  -0.576  -0.575  -0.571  -0.569
 -0.547  -0.545  -0.538  -0.537  -0.525  -0.522  -0.518  -0.509
 -0.508  -0.504  -0.502  -0.502  -0.486  -0.483  -0.476  -0.473
 -0.471  -0.470  -0.469  -0.466  -0.465  -0.460  -0.453  -0.444
 -0.443  -0.438  -0.437  -0.436  -0.435  -0.431  -0.430  -0.428
 -0.425  -0.424  -0.422  -0.420  -0.419  -0.417  -0.415  -0.414
 -0.412  -0.408  -0.402  -0.399  -0.396  -0.396  -0.395  -0.394
 -0.390  -0.390  -0.389  -0.389  -0.387  -0.382  -0.380  -0.378
 -0.377  -0.376  -0.375  -0.375  -0.363  -0.362  -0.359  -0.355
 -0.353  -0.349  -0.348  -0.346  -0.343  -0.342  -0.341  -0.338
 -0.337  -0.336  -0.335  -0.332  -0.330  -0.327  -0.326  -0.321
 -0.312  -0.311  -0.307  -0.306  -0.301  -0.300  -0.298  -0.294
 -0.293  -0.292  -0.291  -0.290  -0.288  -0.286  -0.282  -0.278
 -0.275  -0.270  -0.267  -0.264  -0.255  -0.250  -0.247  -0.245
 -0.241  -0.238  -0.234  -0.228  -0.196  -0.187

          Ground-State Mulliken Net Atomic Charges

     Atom                 Charge (a.u.)
  ----------------------------------------
      1 C                     0.274772
      2 C                    -0.112208
      3 N                    -0.489084
      4 C                    -0.109512
      5 C                     0.079340
      6 C                     0.076324
      7 C                     0.090071
      8 C                     0.044335
      9 C                     0.189641
     10 N                    -0.500485
     11 N                    -0.556192
     12 C                     0.191203
     13 C                     0.246268
     14 S                     0.630604
     15 N                    -0.516436
     16 C                    -0.219141
     17 S                     0.364214
     18 C                    -0.129728
     19 C                    -0.233909
     20 S                     0.279127
     21 C                     0.140827
     22 C                     0.061655
     23 C                    -0.298261
     24 C                    -0.080956
     25 N                    -0.420503
     26 S                     0.269481
     27 C                     0.097595
     28 C                    -0.297457
     29 C                    -0.251828
     30 H                     0.097919
     31 H                     0.096156
     32 H                     0.116442
     33 H                     0.114265
     34 H                     0.119475
     35 H                     0.114300
     36 H                     0.110054
     37 H                     0.139182
     38 H                     0.133901
     39 C                    -0.186772
     40 H                     0.108274
     41 H                     0.094440
     42 H                     0.104862
     43 C                    -0.181015
     44 H                     0.093125
     45 C                    -0.166387
     46 H                     0.095525
     47 H                     0.090882
     48 H                     0.097568
     49 C                    -0.180172
     50 H                     0.085869
     51 C                    -0.318559
     52 H                     0.092512
     53 H                     0.099850
     54 H                     0.101406
     55 H                     0.097846
     56 C                     0.256617
     57 C                    -0.098862
     58 N                    -0.479739
     59 C                    -0.093589
     60 C                     0.077881
     61 C                     0.025689
     62 C                     0.015849
     63 C                     0.052561
     64 C                     0.229042
     65 N                    -0.529501
     66 N                    -0.563763
     67 C                     0.227165
     68 C                     0.319324
     69 S                     0.618051
     70 N                    -0.555605
     71 C                    -0.224095
     72 S                     0.309463
     73 C                    -0.124459
     74 C                    -0.259550
     75 S                     0.279475
     76 C                     0.179647
     77 C                     0.068293
     78 C                    -0.301162
     79 C                    -0.055102
     80 N                    -0.429892
     81 S                     0.281737
     82 C                     0.145194
     83 C                    -0.327697
     84 C                    -0.219264
     85 H                     0.093502
     86 H                     0.094601
     87 H                     0.119605
     88 H                     0.116234
     89 H                     0.143000
     90 H                     0.121711
     91 H                     0.118551
     92 H                     0.123918
     93 H                     0.113104
     94 C                    -0.184882
     95 H                     0.118251
     96 H                     0.089539
     97 H                     0.106366
     98 C                    -0.174588
     99 H                     0.090725
    100 C                    -0.183487
    101 H                     0.100722
    102 H                     0.083028
    103 H                     0.088133
    104 C                    -0.180217
    105 H                     0.095712
    106 C                    -0.313742
    107 H                     0.097942
    108 H                     0.108188
    109 H                     0.101832
    110 H                     0.097842
  ----------------------------------------
  Sum of atomic charges =     0.000000

                    Cartesian Multipole Moments
 -----------------------------------------------------------------
    Charge (ESU x 10^10)
                 0.0000
    Dipole Moment (Debye)
         X      -2.4199      Y      -0.0908      Z      -2.6508
       Tot       3.5904
    Quadrupole Moments (Debye-Ang)
        XX    -384.1163     XY      11.3655     YY    -427.5857
        XZ      -6.3276     YZ      -7.1812     ZZ    -448.7431

 Total job time:  106.14s(wall), 1166.38s(cpu)
        *  Thank you very much for using Q-Chem.  Have a nice day.  *
