 Q-Chem 4.4, Q-Chem, Inc., Pleasanton, CA (2016)
 Q-Chem 4.4.2 for Intel X86 Linux

User input:
--------------------------------------------------------------
$comment
SP
$end

$rem
MEM_STATIC 5000
MEM_TOTAL 20000
JOBTYPE SP
EXCHANGE B3LYP
BASIS 6-31g(d,p)
$end

$molecule
0 1
C           2.660000    -31.113000      0.646000
C           2.006000    -30.517000      1.710000
N           3.810000    -30.544000      0.196000
C           2.415000    -29.270000      2.191000
C           4.162000    -29.366000      0.631000
C           3.457000    -28.625000      1.658000
C           3.882000    -27.220000      2.117000
C           2.870000    -26.297000      2.507000
C           5.194000    -26.759000      2.132000
N           3.132000    -25.028000      2.772000
N           6.256000    -27.518000      1.828000
C           5.425000    -25.391000      2.383000
C           4.406000    -24.544000      2.802000
S           7.484000    -26.601000      2.220000
N           6.721000    -25.164000      2.448000
C           4.592000    -23.163000      3.402000
S           6.142000    -22.538000      3.970000
C           3.623000    -22.204000      3.629000
C           5.394000    -21.026000      4.639000
S           1.863000    -22.295000      3.126000
C           4.063000    -21.099000      4.320000
C           6.094000    -19.860000      5.167000
C           1.767000    -20.737000      4.013000
C           2.942000    -20.300000      4.633000
N           7.340000    -19.655000      4.891000
S           5.332000    -18.614000      6.155000
C           7.824000    -18.578000      5.602000
C           6.962000    -18.019000      6.511000
C           2.139000    -32.305000     -0.059000
H           1.079000    -30.982000      2.034000
H           1.861000    -28.788000      2.991000
H           5.062000    -28.912000      0.218000
H           1.815000    -26.556000      2.426000
H           0.793000    -20.270000      4.067000
H           3.046000    -19.489000      5.344000
H           8.885000    -18.379000      5.668000
H           7.066000    -17.177000      7.183000
H           1.069000    -32.464000      0.126000
C           2.900000    -33.598000      0.234000
H           2.266000    -32.121000     -1.133000
H           2.920000    -33.828000      1.307000
H           3.940000    -33.412000     -0.058000
C           2.476000    -34.842000     -0.560000
H           1.396000    -35.005000     -0.460000
C           3.185000    -36.161000     -0.076000
H           2.669000    -34.708000     -1.632000
H           2.933000    -36.363000      0.972000
H           4.256000    -35.922000     -0.075000
C           2.817000    -37.329000     -0.940000
H           1.754000    -37.518000     -0.747000
C           3.652000    -38.541000     -0.557000
H           3.006000    -37.128000     -2.002000
H           4.695000    -38.416000     -0.874000
H           3.359000    -39.406000     -1.165000
H           3.576000    -38.800000      0.506000
C           4.013000    -28.239000     -2.556000
C           5.260000    -27.954000     -3.205000
N           3.550000    -27.549000     -1.505000
C           5.963000    -26.854000     -2.787000
C           4.297000    -26.500000     -1.052000
C           5.483000    -26.026000     -1.706000
C           6.255000    -24.931000     -1.039000
C           7.653000    -25.078000     -0.849000
C           5.686000    -23.705000     -0.528000
N           8.445000    -24.134000     -0.246000
N           4.377000    -23.425000     -0.604000
C           6.542000    -22.728000     -0.022000
C           7.916000    -22.936000      0.104000
S           4.281000    -21.929000      0.036000
N           5.832000    -21.642000      0.317000
C           8.878000    -22.084000      0.868000
S           8.396000    -20.536000      1.484000
C          10.254000    -22.198000      1.019000
C          10.021000    -20.063000      1.896000
S          11.254000    -23.427000      0.421000
C          10.859000    -21.062000      1.537000
C          10.447000    -18.767000      2.340000
C          12.644000    -22.443000      0.889000
C          12.281000    -21.276000      1.487000
N          11.754000    -18.521000      2.392000
S           9.430000    -17.376000      2.246000
C          12.014000    -17.238000      2.642000
C          10.850000    -16.499000      2.662000
C           3.256000    -29.506000     -2.982000
H           5.553000    -28.576000     -4.046000
H           6.829000    -26.630000     -3.403000
H           3.867000    -25.931000     -0.229000
H           8.115000    -26.048000     -1.028000
H          13.623000    -22.848000      0.670000
H          13.060000    -20.631000      1.876000
H          13.050000    -16.936000      2.721000
H          10.728000    -15.433000      2.800000
H           3.903000    -30.336000     -2.672000
C           2.933000    -29.428000     -4.463000
H           2.298000    -29.543000     -2.448000
H           3.863000    -29.312000     -5.033000
H           2.377000    -28.509000     -4.687000
C           2.161000    -30.697000     -4.886000
H           2.789000    -31.585000     -4.743000
C           1.915000    -30.647000     -6.428000
H           1.158000    -30.753000     -4.445000
H           2.011000    -31.682000     -6.779000
H           2.757000    -30.142000     -6.917000
C           0.589000    -29.867000     -6.785000
H          -0.279000    -30.151000     -6.178000
C           0.202000    -30.214000     -8.262000
H           0.799000    -28.806000     -6.596000
H           0.098000    -31.303000     -8.348000
H           1.025000    -29.910000     -8.921000
H          -0.707000    -29.657000     -8.524000
$end

--------------------------------------------------------------

             Standard Nuclear Orientation (Angstroms)
    I     Atom           X                Y                Z
 ----------------------------------------------------------------
    1      C       6.5235237418     1.6951226897    -1.2996945015
    2      C       5.8908734325     2.9258861700    -1.3013802802
    3      N       5.7552582948     0.5755417134    -1.3708818625
    4      C       4.4997697844     3.0133142968    -1.1972747430
    5      C       4.4610676640     0.6699298981    -1.2405957090
    6      C       3.7369374207     1.9191748475    -1.1146693529
    7      C       2.2123633172     1.9871044755    -0.9239067555
    8      C       1.6734451409     3.0330583142    -0.1215846464
    9      C       1.3113909547     1.0623096707    -1.4407175247
   10      N       0.3954972708     3.0810045861     0.2157288518
   11      N       1.6608299916     0.0461553242    -2.2417566645
   12      C      -0.0344264846     1.1277860033    -1.0256581677
   13      C      -0.5158697519     2.1951970127    -0.2772083582
   14      S       0.2699221388    -0.5390511120    -2.7165679662
   15      N      -0.7467790439     0.2381627409    -1.6863353071
   16      C      -1.9780050785     2.5325396729    -0.0533396103
   17      S      -3.3041315555     1.8196686841    -0.9747258053
   18      C      -2.5069676030     3.4374156972     0.8475316504
   19      C      -4.5453607251     2.8907174108    -0.1966424077
   20      S      -1.5798511503     4.3720404460     2.1226087704
   21      C      -3.8621879222     3.6392894492     0.7261608350
   22      C      -5.9949625920     2.7945270260    -0.3298408962
   23      C      -3.1861450255     5.1190479842     2.4144113140
   24      C      -4.2264210451     4.7064074185     1.5756338903
   25      N      -6.5497881011     1.7073193833    -0.7551233859
   26      S      -7.1153306879     4.0816498395     0.1144497665
   27      C      -7.9049093956     1.8895228389    -0.9287729697
   28      C      -8.3720398227     3.1642513198    -0.7321452408
   29      C       7.9889968650     1.5387445741    -1.1683003992
   30      H       6.5291665814     3.8016055163    -1.2224658802
   31      H       4.0189380027     3.9856186197    -1.1456501227
   32      H       3.8737171259    -0.2474325354    -1.2528640012
   33      H       2.3266241100     3.7346782400     0.3958645917
   34      H      -3.2319210402     5.8869496515     3.1746169347
   35      H      -5.2088616896     5.1533999711     1.4804181462
   36      H      -8.5038289615     1.1705489666    -1.4710366736
   37      H      -9.3673024671     3.5860052838    -0.7863657418
   38      H       8.4691260247     2.4376146988    -0.7609743764
   39      C       8.7006241348     1.1255615670    -2.4565881898
   40      H       8.1598431058     0.7206783326    -0.4576386044
   41      H       8.5132502875     1.8337334214    -3.2739086080
   42      H       8.2464128725     0.1766645508    -2.7643975169
   43      C      10.2046807383     0.8353167118    -2.3501943100
   44      H      10.7218658460     1.6832081588    -1.8848249315
   45      C      10.8914238040     0.5893583422    -3.7446786025
   46      H      10.3923352903    -0.0317525740    -1.7041559035
   47      H      10.7928757063     1.4799239372    -4.3769706185
   48      H      10.2772844355    -0.1794978801    -4.2303286263
   49      C      12.3336518397     0.2139340650    -3.5859999806
   50      H      12.8339448642     1.1118041570    -3.2032792111
   51      C      12.9161753479    -0.1879835722    -4.9321004877
   52      H      12.4620519528    -0.6403366016    -2.9094639215
   53      H      12.5217327791    -1.1589273527    -5.2571331554
   54      H      13.9809126667    -0.4293299391    -4.8233605540
   55      H      12.7938037808     0.5819882908    -5.7034593728
   56      C       4.6724143130    -1.3479692346     1.4673028644
   57      C       4.1796440569    -2.6871467672     1.3216456957
   58      N       3.8909409609    -0.2609880184     1.4139996227
   59      C       2.8238984100    -2.8636949715     1.2230684553
   60      C       2.5496952118    -0.4480037067     1.2416512175
   61      C       1.9204302286    -1.7375428911     1.2315382256
   62      C       0.4552431566    -1.7944477884     0.9317271570
   63      C      -0.0202283170    -2.6900085033    -0.0602460704
   64      C      -0.5545125478    -0.9748221252     1.5614613782
   65      N      -1.3415289611    -2.8120955758    -0.4084821319
   66      N      -0.2667508772    -0.0601587090     2.4986065410
   67      C      -1.8944708948    -1.2083259281     1.2560295489
   68      C      -2.2861718007    -2.1329089520     0.2871473929
   69      S      -1.7334092053     0.5152424064     2.9165286692
   70      N      -2.6703084773    -0.4098634550     2.0036596208
   71      C      -3.6502899821    -2.2730444267    -0.3083252227
   72      S      -5.0054046668    -1.4304034488     0.3711630950
   73      C      -4.1318819541    -3.1777216057    -1.2457692874
   74      C      -6.1755495751    -2.3114465447    -0.5715043738
   75      S      -3.2538308639    -4.3709970436    -2.0662356256
   76      C      -5.5160089996    -3.2128861970    -1.3340912754
   77      C      -7.6020639749    -2.2594584307    -0.4280404301
   78      C      -4.7906088559    -5.0192664690    -2.6471316192
   79      C      -5.8592016769    -4.2929860809    -2.2206481133
   80      N      -8.3303050330    -3.1651154907    -1.0768233298
   81      S      -8.3693901794    -1.5192866577     0.9289276028
   82      C      -9.6141952834    -3.1253244356    -0.7215326084
   83      C      -9.8079282563    -2.2298217567     0.3089815774
   84      C       6.1943750563    -1.1451423108     1.5153729701
   85      H       4.8943261026    -3.5036553402     1.3722156855
   86      H       2.5173681541    -3.9054709570     1.2412343072
   87      H       1.9390137814     0.4536215447     1.2530572158
   88      H       0.6951430140    -3.1931421726    -0.7094651164
   89      H      -4.7418738264    -5.9007388087    -3.2724782521
   90      H      -6.8448667121    -4.5654473599    -2.5790003004
   91      H     -10.2961679428    -3.8125082117    -1.2046813948
   92      H     -10.7209786119    -1.9980866693     0.8408856077
   93      H       6.5478201786    -1.4425579905     0.5202702322
   94      C       6.7706382029    -1.9182436572     2.6875543101
   95      H       6.4049797595    -0.0838465417     1.6986376679
   96      H       6.5158307039    -2.9801393799     2.5840815474
   97      H       6.2761537314    -1.6243193409     3.6218811286
   98      C       8.2989913955    -1.7025275211     2.7411926109
   99      H       8.7678573800    -2.1028557600     1.8338453842
  100      C       8.8911469042    -2.5746958260     3.8942122558
  101      H       8.5756625721    -0.6728560944     2.9997575216
  102      H       9.8623451401    -2.9316238423     3.5294954097
  103      H       8.3090295493    -3.4994058898     3.9899237123
  104      C       8.8565317667    -1.8168964519     5.2793717776
  105      H       9.2182756000    -0.7825449301     5.2370949695
  106      C       9.8191809721    -2.5599790729     6.2656991703
  107      H       7.8029345641    -1.7924623001     5.5873943528
  108      H      10.8200611014    -2.5925452386     5.8170217676
  109      H       9.4757831905    -3.5961625499     6.3771790588
  110      H       9.7824500727    -2.0512777661     7.2378348715
 ----------------------------------------------------------------

    9   -5663.5085628925      8.33E-06 Convergence criterion met
 Total energy in the final basis set = -5663.5085628925

                    Orbital Energies (a.u.)
 --------------------------------------------------------------

 Alpha MOs
 -- Occupied --
-88.988 -88.982 -88.923 -88.921 -88.920 -88.915 -88.909 -88.895
-14.381 -14.379 -14.376 -14.373 -14.350 -14.343 -14.339 -14.332
-14.325 -14.319 -10.270 -10.266 -10.258 -10.257 -10.252 -10.250
-10.249 -10.247 -10.245 -10.239 -10.239 -10.234 -10.231 -10.230
-10.230 -10.229 -10.228 -10.225 -10.225 -10.225 -10.225 -10.222
-10.222 -10.221 -10.220 -10.218 -10.217 -10.214 -10.210 -10.209
-10.205 -10.204 -10.203 -10.197 -10.195 -10.194 -10.187 -10.184
-10.181 -10.181 -10.178 -10.176 -10.176 -10.176 -10.176 -10.174
-10.174 -10.173 -10.173 -10.169  -8.044  -8.037  -7.986  -7.982
 -7.979  -7.973  -7.969  -7.956  -6.009  -6.004  -6.002  -6.002
 -5.997  -5.995  -5.949  -5.946  -5.945  -5.943  -5.943  -5.942
 -5.940  -5.938  -5.937  -5.935  -5.934  -5.933  -5.929  -5.929
 -5.926  -5.921  -5.917  -5.913  -1.053  -1.040  -0.974  -0.973
 -0.961  -0.945  -0.939  -0.928  -0.916  -0.911  -0.909  -0.901
 -0.843  -0.835  -0.832  -0.823  -0.808  -0.808  -0.806  -0.804
 -0.802  -0.800  -0.796  -0.792  -0.788  -0.778  -0.767  -0.762
 -0.748  -0.742  -0.742  -0.732  -0.717  -0.716  -0.708  -0.705
 -0.693  -0.687  -0.678  -0.667  -0.652  -0.646  -0.645  -0.637
 -0.632  -0.625  -0.623  -0.618  -0.608  -0.604  -0.598  -0.594
 -0.591  -0.587  -0.580  -0.579  -0.575  -0.572  -0.572  -0.567
 -0.547  -0.545  -0.541  -0.534  -0.527  -0.520  -0.515  -0.506
 -0.505  -0.500  -0.500  -0.498  -0.490  -0.486  -0.479  -0.477
 -0.473  -0.467  -0.466  -0.463  -0.461  -0.456  -0.451  -0.449
 -0.443  -0.441  -0.438  -0.434  -0.433  -0.430  -0.429  -0.425
 -0.425  -0.423  -0.419  -0.418  -0.416  -0.415  -0.412  -0.410
 -0.406  -0.405  -0.402  -0.398  -0.395  -0.394  -0.392  -0.391
 -0.391  -0.390  -0.387  -0.386  -0.385  -0.385  -0.383  -0.379
 -0.376  -0.372  -0.371  -0.371  -0.367  -0.358  -0.358  -0.354
 -0.353  -0.351  -0.345  -0.343  -0.342  -0.339  -0.337  -0.337
 -0.334  -0.332  -0.331  -0.329  -0.327  -0.327  -0.326  -0.323
 -0.314  -0.312  -0.307  -0.306  -0.303  -0.303  -0.298  -0.296
 -0.291  -0.290  -0.288  -0.287  -0.285  -0.279  -0.279  -0.275
 -0.273  -0.268  -0.265  -0.257  -0.253  -0.247  -0.244  -0.241
 -0.238  -0.232  -0.227  -0.224  -0.196  -0.185

          Ground-State Mulliken Net Atomic Charges

     Atom                 Charge (a.u.)
  ----------------------------------------
      1 C                     0.287922
      2 C                    -0.133020
      3 N                    -0.503788
      4 C                    -0.088741
      5 C                     0.127097
      6 C                     0.073114
      7 C                    -0.001435
      8 C                     0.062597
      9 C                     0.201380
     10 N                    -0.506051
     11 N                    -0.528813
     12 C                     0.232828
     13 C                     0.284196
     14 S                     0.630761
     15 N                    -0.565083
     16 C                    -0.236171
     17 S                     0.351260
     18 C                    -0.116173
     19 C                    -0.225748
     20 S                     0.275701
     21 C                     0.168138
     22 C                     0.065166
     23 C                    -0.302155
     24 C                    -0.084470
     25 N                    -0.416895
     26 S                     0.242600
     27 C                     0.107786
     28 C                    -0.301567
     29 C                    -0.228256
     30 H                     0.080414
     31 H                     0.090388
     32 H                     0.113556
     33 H                     0.120762
     34 H                     0.124589
     35 H                     0.109739
     36 H                     0.120161
     37 H                     0.135871
     38 H                     0.093964
     39 C                    -0.178657
     40 H                     0.118255
     41 H                     0.089931
     42 H                     0.112991
     43 C                    -0.180546
     44 H                     0.083137
     45 C                    -0.168004
     46 H                     0.089531
     47 H                     0.089664
     48 H                     0.090012
     49 C                    -0.166537
     50 H                     0.094967
     51 C                    -0.317932
     52 H                     0.092863
     53 H                     0.102925
     54 H                     0.093560
     55 H                     0.101819
     56 C                     0.260009
     57 C                    -0.095046
     58 N                    -0.484030
     59 C                    -0.095227
     60 C                     0.063441
     61 C                     0.038392
     62 C                     0.004593
     63 C                     0.045694
     64 C                     0.216261
     65 N                    -0.526009
     66 N                    -0.559622
     67 C                     0.233489
     68 C                     0.326642
     69 S                     0.617853
     70 N                    -0.558457
     71 C                    -0.219158
     72 S                     0.344900
     73 C                    -0.128055
     74 C                    -0.251296
     75 S                     0.267389
     76 C                     0.177631
     77 C                     0.066326
     78 C                    -0.308196
     79 C                    -0.053537
     80 N                    -0.433204
     81 S                     0.287428
     82 C                     0.142241
     83 C                    -0.331081
     84 C                    -0.221057
     85 H                     0.094262
     86 H                     0.099591
     87 H                     0.118803
     88 H                     0.114142
     89 H                     0.122929
     90 H                     0.116787
     91 H                     0.115668
     92 H                     0.121494
     93 H                     0.131147
     94 C                    -0.187206
     95 H                     0.113990
     96 H                     0.088427
     97 H                     0.105078
     98 C                    -0.175067
     99 H                     0.090182
    100 C                    -0.183031
    101 H                     0.098239
    102 H                     0.081381
    103 H                     0.088837
    104 C                    -0.180083
    105 H                     0.094263
    106 C                    -0.313931
    107 H                     0.099772
    108 H                     0.107170
    109 H                     0.102023
    110 H                     0.097219
  ----------------------------------------
  Sum of atomic charges =     0.000000

                    Cartesian Multipole Moments
 -----------------------------------------------------------------
    Charge (ESU x 10^10)
                 0.0000
    Dipole Moment (Debye)
         X      -1.4945      Y       1.0866      Z       0.7834
       Tot       2.0070
    Quadrupole Moments (Debye-Ang)
        XX    -380.9568     XY      -7.9701     YY    -425.0598
        XZ      -4.0513     YZ       6.2174     ZZ    -444.9978

 Total job time:  106.67s(wall), 1147.81s(cpu)
        *  Thank you very much for using Q-Chem.  Have a nice day.  *
