 Q-Chem 4.4, Q-Chem, Inc., Pleasanton, CA (2016)
 Q-Chem 4.4.2 for Intel X86 Linux

User input:
--------------------------------------------------------------
$comment
SP
$end

$rem
MEM_STATIC 5000
MEM_TOTAL 20000
JOBTYPE SP
EXCHANGE B3LYP
BASIS 6-31g(d,p)
$end

$molecule
0 1
C         -26.117000     19.740000     -5.257000
C         -24.743000     19.469000     -5.121000
N         -27.018000     18.777000     -5.364000
C         -24.282000     18.159000     -4.954000
C         -26.597000     17.530000     -5.143000
C         -25.250000     17.147000     -4.955000
C         -24.760000     15.746000     -4.787000
C         -23.729000     15.423000     -3.835000
C         -25.229000     14.617000     -5.530000
N         -23.227000     14.197000     -3.696000
N         -26.218000     14.754000     -6.439000
C         -24.655000     13.358000     -5.398000
C         -23.617000     13.181000     -4.489000
S         -26.613000     13.158000     -6.766000
N         -25.318000     12.331000     -6.104000
C         -23.021000     11.859000     -4.216000
S         -22.676000     11.320000     -2.567000
C         -22.878000     10.814000     -5.070000
C         -22.374000      9.684000     -3.082000
S         -22.800000     10.836000     -6.784000
C         -22.575000      9.596000     -4.459000
C         -21.846000      8.654000     -2.185000
C         -22.477000      9.108000     -6.740000
C         -22.319000      8.599000     -5.472000
N         -21.997000      7.344000     -2.533000
S         -20.907000      9.004000     -0.769000
C         -21.358000      6.566000     -1.576000
C         -20.752000      7.252000     -0.557000
C         -26.591000     21.211000     -5.230000
H         -24.100000     20.327000     -4.952000
H         -23.272000     17.930000     -4.630000
H         -27.325000     16.730000     -5.269000
H         -23.406000     16.148000     -3.090000
H         -22.336000      8.513000     -7.633000
H         -22.043000      7.590000     -5.188000
H         -21.313000      5.519000     -1.848000
H         -20.060000      6.850000      0.171000
H         -25.988000     21.698000     -6.007000
C         -26.561000     22.047000     -3.945000
H         -27.625000     21.329000     -5.576000
H         -25.614000     21.984000     -3.395000
H         -27.296000     21.603000     -3.262000
C         -27.044000     23.502000     -4.167000
H         -26.376000     23.949000     -4.914000
C         -26.950000     24.289000     -2.840000
H         -28.097000     23.529000     -4.471000
H         -27.107000     25.330000     -3.148000
H         -25.940000     24.113000     -2.449000
C         -27.985000     24.009000     -1.787000
H         -28.963000     24.226000     -2.233000
C         -27.805000     24.975000     -0.615000
H         -28.021000     22.932000     -1.580000
H         -28.674000     24.892000      0.049000
H         -27.693000     25.981000     -1.037000
H         -26.881000     24.730000     -0.075000
C         -23.925000     19.608000     -9.187000
C         -22.692000     20.070000     -8.780000
N         -24.410000     18.349000     -8.891000
C         -21.878000     19.270000     -7.973000
C         -23.622000     17.559000     -8.109000
C         -22.341000     17.975000     -7.638000
C         -21.589000     16.994000     -6.721000
C         -21.642000     15.611000     -7.001000
C         -20.871000     17.347000     -5.549000
N         -20.948000     14.688000     -6.239000
N         -20.712000     18.638000     -5.190000
C         -20.155000     16.474000     -4.791000
C         -20.217000     15.090000     -5.144000
S         -19.775000     18.601000     -3.835000
N         -19.488000     17.020000     -3.717000
C         -19.635000     13.977000     -4.382000
S         -19.045000     12.480000     -5.121000
C         -19.561000     13.883000     -2.997000
C         -18.847000     11.735000     -3.605000
S         -20.396000     14.703000     -1.757000
C         -19.178000     12.603000     -2.616000
C         -18.733000     10.363000     -3.310000
C         -20.215000     13.366000     -0.690000
C         -19.472000     12.360000     -1.284000
N         -19.250000      9.512000     -4.229000
S         -17.607000      9.687000     -2.075000
C         -18.885000      8.219000     -3.862000
C         -18.071000      8.121000     -2.692000
C         -24.850000     20.435000    -10.045000
H         -22.386000     21.073000     -9.063000
H         -20.883000     19.577000     -7.664000
H         -24.087000     16.637000     -7.763000
H         -22.181000     15.194000     -7.851000
H         -20.654000     13.291000      0.296000
H         -19.227000     11.464000     -0.725000
H         -19.315000      7.390000     -4.408000
H         -17.665000      7.266000     -2.168000
H         -24.368000     21.389000    -10.292000
C         -26.219000     20.711000     -9.411000
H         -25.108000     19.895000    -10.964000
H         -25.980000     21.184000     -8.450000
H         -26.743000     19.780000     -9.161000
C         -27.149000     21.643000    -10.261000
H         -26.588000     22.524000    -10.595000
C         -28.483000     22.032000     -9.614000
H         -27.462000     21.021000    -11.110000
H         -28.259000     22.422000     -8.613000
H         -29.015000     21.079000     -9.509000
C         -29.332000     23.008000    -10.389000
H         -28.799000     23.937000    -10.628000
C         -30.650000     23.275000     -9.704000
H         -29.432000     22.580000    -11.393000
H         -31.296000     22.432000     -9.429000
H         -31.227000     23.812000    -10.467000
H         -30.566000     23.884000     -8.796000
$end

--------------------------------------------------------------

             Standard Nuclear Orientation (Angstroms)
    I     Atom           X                Y                Z
 ----------------------------------------------------------------
    1      C      -5.3933042717     0.4393353443     1.1658448478
    2      C      -4.5004121549     1.0430128002     0.2613393492
    3      N      -5.0149415848    -0.5189066355     1.9960454171
    4      C      -3.1333154450     0.7492629682     0.2969430286
    5      C      -3.7051887474    -0.7604752856     2.0813864520
    6      C      -2.7156455341    -0.1843601544     1.2535352670
    7      C      -1.2577865661    -0.5078141430     1.2874431857
    8      C      -0.2596681340     0.5214821320     1.1536419387
    9      C      -0.7109814728    -1.8213807064     1.4364333646
   10      N       1.0473336647     0.2661629891     1.1226672149
   11      N      -1.5205475824    -2.8887995455     1.6049288727
   12      C       0.6550076537    -2.0646512412     1.3535228516
   13      C       1.5208829525    -0.9939234910     1.1564034669
   14      S      -0.4325796567    -4.0828231318     2.0530398724
   15      N       1.0365992964    -3.3908558852     1.6506811602
   16      C       2.9879782705    -1.1522279949     1.1565129011
   17      S       4.0424633913    -0.0229523502     2.0176427683
   18      C       3.7129373389    -2.2263355377     0.7533785120
   19      C       5.4321166083    -1.0554936197     1.8288374106
   20      S       3.2730193129    -3.4581717031    -0.3572140289
   21      C       5.0481985812    -2.2174093421     1.1603818754
   22      C       6.7865591112    -0.6391587967     2.1982204389
   23      C       4.8993505030    -4.1084122188    -0.2007431629
   24      C       5.7415498350    -3.3349639079     0.5636827627
   25      N       7.7373363851    -1.5988195329     2.3855139172
   26      S       7.2949151148     1.0177917185     2.2714745428
   27      C       8.9444002214    -0.9653196241     2.6522136747
   28      C       8.9097939181     0.4039371156     2.6636759928
   29      C      -6.8513373653     0.9492879461     1.2235842801
   30      H      -4.8907359869     1.8781502783    -0.3116935459
   31      H      -2.3919626983     1.3457593184    -0.2246940186
   32      H      -3.3914142046    -1.5747638702     2.7328000205
   33      H      -0.5294604918     1.5748413120     1.2048817825
   34      H       5.2308889157    -4.9959157535    -0.7239780592
   35      H       6.7998784722    -3.4817508847     0.7461850345
   36      H       9.7814814949    -1.6514466637     2.6794648573
   37      H       9.7607155577     1.0720398931     2.6684761947
   38      H      -7.1969901185     0.8818717415     0.1841198846
   39      C      -7.2050720966     2.3239038990     1.8035185194
   40      H      -7.5152421853     0.2719010452     1.7741961002
   41      H      -6.5731724537     3.1398524072     1.4317539794
   42      H      -6.9811752789     2.2811282653     2.8767801185
   43      C      -8.7199846268     2.6363001494     1.7195744391
   44      H      -8.9940369707     2.6019352064     0.6576157001
   45      C      -8.9917344835     4.0481245398     2.2870582767
   46      H      -9.3040875927     1.9376850516     2.3300780595
   47      H     -10.0293693950     4.2472118943     1.9923176861
   48      H      -8.2775299536     4.7201032261     1.7948047499
   49      C      -8.9452838535     4.2221042739     3.7790393058
   50      H      -9.6943698759     3.5435762404     4.2044318759
   51      C      -9.3711249858     5.6440902825     4.1474889244
   52      H      -7.9920034262     3.8414878164     4.1669330272
   53      H      -9.5199352654     5.6992112592     5.2327369047
   54      H     -10.2867614594     5.8651740635     3.5858878115
   55      H      -8.5978340655     6.3543820319     3.8266964942
   56      C      -5.3290879462    -1.5459312681    -2.8741775211
   57      C      -5.0506874081    -0.4522254089    -3.6651785539
   58      N      -4.4022825641    -2.1545306113    -2.0504296087
   59      C      -3.7851214141     0.1393941882    -3.6185527318
   60      C      -3.1637265461    -1.5887153991    -2.0014384278
   61      C      -2.8073210873    -0.4473164975    -2.7799252268
   62      C      -1.3870149069     0.1106680806    -2.5795816106
   63      C      -0.3114403486    -0.7882892446    -2.4095430942
   64      C      -1.0470090891     1.4853163110    -2.4876289790
   65      N       0.9918585809    -0.3446961760    -2.2722620326
   66      N      -1.9750730767     2.4477190795    -2.6701697859
   67      C       0.2227983523     1.9601245653    -2.3804133861
   68      C       1.2756626782     1.0020964069    -2.2478699628
   69      S      -1.1552677642     3.8719669278    -2.5485132358
   70      N       0.3495457070     3.3311002499    -2.3513999338
   71      C       2.6892281819     1.3026577204    -1.9839903244
   72      S       4.0324761457     0.3025779087    -2.5591035984
   73      C       3.1719119118     2.3244520266    -1.1743670709
   74      C       5.1594082551     1.1658087158    -1.6224384532
   75      S       2.4253402244     3.2594924176     0.0403572528
   76      C       4.5350010681     2.1688323241    -0.9552313593
   77      C       6.4550375397     0.7778949316    -1.2309379387
   78      C       3.9275490664     3.4950546548     0.8445326238
   79      C       4.9622781856     2.9099201040     0.1346916505
   80      N       6.6969868773    -0.5552214400    -1.2132671156
   81      S       7.8716459028     1.8920845878    -1.1875887085
   82      C       8.0591759188    -0.7358289361    -0.9861439160
   83      C       8.8253874161     0.4644398601    -0.8704946257
   84      C      -6.6817877394    -2.2137040186    -2.8732702152
   85      H      -5.8382692960    -0.0395837676    -4.2890179930
   86      H      -3.5097472097     0.9758051296    -4.2544306954
   87      H      -2.5006371414    -1.9885955909    -1.2356491137
   88      H      -0.4296616923    -1.8711638438    -2.4273283802
   89      H       4.0538380583     3.9921866641     1.7971358234
   90      H       5.9838091264     3.0083538229     0.4841302572
   91      H       8.4215246051    -1.7401014312    -0.8117960310
   92      H       9.8761896639     0.6306421192    -0.6739534210
   93      H      -7.3379131083    -1.7167555806    -3.5985224130
   94      C      -7.3714303093    -2.2383874186    -1.5035706659
   95      H      -6.5858210348    -3.2778540795    -3.1204544368
   96      H      -7.4079746080    -1.1839129083    -1.2017113915
   97      H      -6.7531872267    -2.7413670868    -0.7494990883
   98      C      -8.8134380247    -2.8519531256    -1.5167945838
   99      H      -9.3947394707    -2.4186531192    -2.3394596027
  100      C      -9.5796095545    -2.7964304396    -0.1903766940
  101      H      -8.6542649738    -3.9286931889    -1.6615315036
  102      H      -9.5418542208    -1.7589829895     0.1653680501
  103      H      -8.9849776636    -3.4218283955     0.4860464806
  104      C     -11.0020560086    -3.2955809051    -0.2290664627
  105      H     -11.6115652588    -2.7812156042    -0.9828421661
  106      C     -11.6472086823    -3.2630752239     1.1348834661
  107      H     -10.9518008344    -4.2964585011    -0.6728214124
  108      H     -11.1526580193    -3.7612276423     1.9780049341
  109      H     -12.5696539971    -3.8393434906     0.9917872537
  110      H     -11.8840399671    -2.2540381897     1.4928725806
 ----------------------------------------------------------------

   10   -5663.4995430151      6.97E-06 Convergence criterion met
 Total energy in the final basis set = -5663.4995430151

                    Orbital Energies (a.u.)
 --------------------------------------------------------------

 Alpha MOs
 -- Occupied --
-88.995 -88.985 -88.927 -88.926 -88.921 -88.914 -88.905 -88.899
-14.395 -14.394 -14.385 -14.385 -14.350 -14.346 -14.344 -14.338
-14.330 -14.323 -10.267 -10.264 -10.264 -10.259 -10.256 -10.256
-10.255 -10.253 -10.242 -10.238 -10.236 -10.233 -10.232 -10.232
-10.230 -10.228 -10.227 -10.227 -10.227 -10.226 -10.226 -10.225
-10.221 -10.220 -10.220 -10.220 -10.219 -10.216 -10.214 -10.213
-10.209 -10.206 -10.199 -10.198 -10.194 -10.192 -10.190 -10.188
-10.181 -10.181 -10.181 -10.180 -10.175 -10.174 -10.174 -10.173
-10.173 -10.172 -10.169 -10.167  -8.051  -8.040  -7.987  -7.987
 -7.980  -7.973  -7.966  -7.960  -6.016  -6.010  -6.009  -6.004
 -5.999  -5.998  -5.951  -5.950  -5.948  -5.947  -5.944  -5.944
 -5.944  -5.940  -5.938  -5.937  -5.934  -5.931  -5.930  -5.927
 -5.925  -5.922  -5.921  -5.916  -1.045  -1.021  -0.955  -0.954
 -0.950  -0.943  -0.941  -0.927  -0.919  -0.908  -0.907  -0.894
 -0.853  -0.839  -0.827  -0.824  -0.811  -0.810  -0.805  -0.803
 -0.802  -0.797  -0.796  -0.789  -0.787  -0.782  -0.768  -0.762
 -0.746  -0.743  -0.738  -0.736  -0.726  -0.717  -0.710  -0.707
 -0.690  -0.689  -0.670  -0.667  -0.651  -0.650  -0.647  -0.640
 -0.635  -0.630  -0.626  -0.624  -0.607  -0.605  -0.594  -0.594
 -0.593  -0.583  -0.581  -0.578  -0.573  -0.573  -0.564  -0.562
 -0.549  -0.544  -0.537  -0.535  -0.522  -0.518  -0.516  -0.506
 -0.504  -0.504  -0.498  -0.496  -0.485  -0.482  -0.478  -0.471
 -0.470  -0.468  -0.467  -0.465  -0.462  -0.459  -0.454  -0.448
 -0.443  -0.439  -0.438  -0.435  -0.431  -0.429  -0.426  -0.426
 -0.424  -0.420  -0.420  -0.418  -0.415  -0.412  -0.412  -0.410
 -0.408  -0.405  -0.403  -0.402  -0.401  -0.398  -0.395  -0.393
 -0.392  -0.390  -0.386  -0.386  -0.386  -0.382  -0.381  -0.376
 -0.376  -0.372  -0.369  -0.368  -0.364  -0.363  -0.357  -0.355
 -0.352  -0.349  -0.348  -0.346  -0.345  -0.342  -0.341  -0.339
 -0.337  -0.335  -0.332  -0.330  -0.324  -0.323  -0.322  -0.318
 -0.317  -0.314  -0.312  -0.305  -0.302  -0.300  -0.299  -0.299
 -0.296  -0.293  -0.292  -0.288  -0.282  -0.281  -0.280  -0.275
 -0.271  -0.270  -0.266  -0.262  -0.255  -0.246  -0.244  -0.242
 -0.240  -0.235  -0.232  -0.227  -0.189  -0.186

          Ground-State Mulliken Net Atomic Charges

     Atom                 Charge (a.u.)
  ----------------------------------------
      1 C                     0.277266
      2 C                    -0.115049
      3 N                    -0.474034
      4 C                    -0.062261
      5 C                     0.085215
      6 C                     0.029177
      7 C                     0.012669
      8 C                     0.048981
      9 C                     0.230913
     10 N                    -0.510023
     11 N                    -0.546069
     12 C                     0.203592
     13 C                     0.281469
     14 S                     0.602568
     15 N                    -0.525388
     16 C                    -0.221950
     17 S                     0.307020
     18 C                    -0.097839
     19 C                    -0.226841
     20 S                     0.282534
     21 C                     0.170653
     22 C                     0.046496
     23 C                    -0.300777
     24 C                    -0.048749
     25 N                    -0.436154
     26 S                     0.276608
     27 C                     0.126971
     28 C                    -0.318221
     29 C                    -0.231985
     30 H                     0.088153
     31 H                     0.097998
     32 H                     0.110551
     33 H                     0.114923
     34 H                     0.121871
     35 H                     0.113883
     36 H                     0.109955
     37 H                     0.123089
     38 H                     0.100489
     39 C                    -0.182114
     40 H                     0.115085
     41 H                     0.086661
     42 H                     0.104744
     43 C                    -0.177175
     44 H                     0.090803
     45 C                    -0.168889
     46 H                     0.094711
     47 H                     0.084542
     48 H                     0.086502
     49 C                    -0.176734
     50 H                     0.090353
     51 C                    -0.308821
     52 H                     0.095382
     53 H                     0.101054
     54 H                     0.104380
     55 H                     0.103388
     56 C                     0.280310
     57 C                    -0.126243
     58 N                    -0.487765
     59 C                    -0.052504
     60 C                     0.078546
     61 C                     0.024415
     62 C                     0.028216
     63 C                     0.047654
     64 C                     0.228175
     65 N                    -0.514799
     66 N                    -0.559958
     67 C                     0.206897
     68 C                     0.262474
     69 S                     0.608660
     70 N                    -0.536612
     71 C                    -0.215332
     72 S                     0.354565
     73 C                    -0.105461
     74 C                    -0.175527
     75 S                     0.283291
     76 C                     0.115828
     77 C                     0.022415
     78 C                    -0.301698
     79 C                    -0.079068
     80 N                    -0.410394
     81 S                     0.266532
     82 C                     0.118599
     83 C                    -0.298231
     84 C                    -0.218956
     85 H                     0.091073
     86 H                     0.110599
     87 H                     0.116402
     88 H                     0.125630
     89 H                     0.132231
     90 H                     0.103302
     91 H                     0.116817
     92 H                     0.131164
     93 H                     0.086027
     94 C                    -0.186162
     95 H                     0.117561
     96 H                     0.087859
     97 H                     0.125242
     98 C                    -0.183641
     99 H                     0.081282
    100 C                    -0.163012
    101 H                     0.090934
    102 H                     0.085731
    103 H                     0.095483
    104 C                    -0.171829
    105 H                     0.090828
    106 C                    -0.315562
    107 H                     0.089935
    108 H                     0.105591
    109 H                     0.096461
    110 H                     0.104456
  ----------------------------------------
  Sum of atomic charges =     0.000000

                    Cartesian Multipole Moments
 -----------------------------------------------------------------
    Charge (ESU x 10^10)
                 0.0000
    Dipole Moment (Debye)
         X       1.4699      Y       3.5746      Z      -1.1320
       Tot       4.0274
    Quadrupole Moments (Debye-Ang)
        XX    -392.2752     XY      -3.2970     YY    -434.4079
        XZ      13.3351     YZ       3.4397     ZZ    -446.8224

 Total job time:  129.61s(wall), 1393.00s(cpu)
        *  Thank you very much for using Q-Chem.  Have a nice day.  *
