 Q-Chem 4.4, Q-Chem, Inc., Pleasanton, CA (2016)
 Q-Chem 4.4.2 for Intel X86 Linux

User input:
--------------------------------------------------------------
$comment
SP
$end

$rem
MEM_STATIC 5000
MEM_TOTAL 20000
JOBTYPE SP
EXCHANGE B3LYP
BASIS 6-31g(d,p)
$end

$molecule
0 1
C          27.418000     30.489000      0.667000
C          26.132000     30.591000      1.281000
N          27.671000     29.632000     -0.297000
C          25.078000     29.781000      0.806000
C          26.662000     28.883000     -0.761000
C          25.332000     28.872000     -0.227000
C          24.325000     27.888000     -0.786000
C          24.727000     26.691000     -1.276000
C          22.912000     28.164000     -0.929000
N          24.056000     25.861000     -1.983000
N          22.313000     29.244000     -0.456000
C          22.143000     27.277000     -1.694000
C          22.717000     26.061000     -2.175000
S          20.757000     29.067000     -0.839000
N          20.839000     27.735000     -1.808000
C          21.923000     25.062000     -3.008000
S          20.164000     24.927000     -3.022000
C          22.528000     24.328000     -4.008000
C          20.343000     23.578000     -4.141000
S          24.158000     24.243000     -4.587000
C          21.640000     23.477000     -4.616000
C          19.285000     23.206000     -5.058000
C          23.677000     23.060000     -5.769000
C          22.339000     22.772000     -5.647000
N          18.430000     24.138000     -5.347000
S          19.088000     21.719000     -5.972000
C          17.733000     23.793000     -6.447000
C          17.794000     22.428000     -6.707000
C          28.530000     31.422000      1.035000
H          26.035000     31.254000      2.135000
H          24.156000     29.713000      1.377000
H          26.857000     28.245000     -1.621000
H          25.758000     26.356000     -1.171000
H          24.405000     22.716000     -6.491000
H          21.844000     22.065000     -6.303000
H          16.957000     24.438000     -6.838000
H          17.368000     21.815000     -7.490000
H          29.209000     31.507000      0.178000
C          29.216000     31.129000      2.387000
H          28.113000     32.419000      1.226000
H          29.349000     30.043000      2.471000
H          28.555000     31.316000      3.243000
C          30.525000     31.818000      2.528000
H          31.317000     31.515000      1.831000
C          31.316000     31.670000      3.911000
H          30.369000     32.839000      2.158000
H          30.514000     31.906000      4.620000
H          32.227000     32.266000      4.044000
C          31.803000     30.179000      4.134000
H          30.889000     29.604000      4.326000
C          32.667000     30.023000      5.402000
H          32.159000     29.770000      3.181000
H          32.715000     29.018000      5.839000
H          32.256000     30.636000      6.214000
H          33.683000     30.376000      5.184000
C          32.236000     25.064000      7.953000
C          31.218000     24.359000      7.297000
N          32.035000     26.239000      8.557000
C          29.951000     24.883000      7.254000
C          30.814000     26.812000      8.349000
C          29.721000     26.225000      7.632000
C          28.321000     26.842000      7.469000
C          27.132000     26.126000      7.693000
C          28.178000     28.226000      7.111000
N          25.861000     26.657000      7.674000
N          29.215000     29.076000      6.924000
C          26.903000     28.774000      6.990000
C          25.754000     27.987000      7.278000
S          28.506000     30.596000      6.659000
N          26.923000     30.157000      6.754000
C          24.356000     28.514000      7.186000
S          22.957000     27.924000      8.020000
C          23.982000     29.315000      6.126000
C          21.851000     28.854000      6.958000
S          24.807000     29.853000      4.675000
C          22.603000     29.433000      5.985000
C          20.423000     29.012000      7.257000
C          23.300000     30.480000      4.000000
C          22.240000     30.151000      4.821000
N          19.578000     29.627000      6.457000
S          19.685000     28.320000      8.686000
C          18.312000     29.529000      6.927000
C          18.095000     28.794000      8.048000
C          33.590000     24.353000      8.051000
H          31.431000     23.380000      6.878000
H          29.100000     24.311000      6.897000
H          30.693000     27.819000      8.744000
H          27.084000     25.070000      7.954000
H          23.316000     30.941000      3.022000
H          21.196000     30.399000      4.666000
H          17.585000     30.095000      6.360000
H          17.156000     28.669000      8.571000
H          33.622000     23.604000      7.250000
C          33.930000     23.762000      9.399000
H          34.380000     25.009000      7.665000
H          33.399000     24.342000     10.163000
H          35.015000     23.854000      9.534000
C          33.391000     22.263000      9.408000
H          32.477000     22.173000      8.808000
C          33.244000     21.659000     10.822000
H          33.993000     21.672000      8.706000
H          32.691000     20.721000     10.691000
H          32.640000     22.417000     11.336000
C          34.427000     21.388000     11.688000
H          35.024000     20.649000     11.139000
C          33.910000     20.630000     12.919000
H          34.992000     22.300000     11.917000
H          33.672000     19.573000     12.742000
H          33.084000     21.176000     13.392000
H          34.707000     20.704000     13.669000
$end

--------------------------------------------------------------

             Standard Nuclear Orientation (Angstroms)
    I     Atom           X                Y                Z
 ----------------------------------------------------------------
    1      C       0.1730657652     0.5552055679    -4.5894916141
    2      C       0.4965510593    -0.6574416146    -3.9068203351
    3      N       0.8298000695     1.6749911773    -4.3832532988
    4      C       1.5911746551    -0.6728592151    -3.0156399486
    5      C       1.8827454567     1.6497259607    -3.5555784348
    6      C       2.3049010931     0.5103553379    -2.7954493651
    7      C       3.4490943822     0.6655000128    -1.8148690027
    8      C       3.6726884486     1.8490154213    -1.1953450148
    9      C       4.4244257585    -0.3655835471    -1.5341745090
   10      N       4.7081820011     2.2125612818    -0.5361200835
   11      N       4.3470706019    -1.6060991700    -1.9859124520
   12      C       5.5709329782    -0.0071847281    -0.8127686026
   13      C       5.6811361464     1.2976177526    -0.2428223348
   14      S       5.6345061773    -2.3600512241    -1.3749951587
   15      N       6.4407261803    -1.0826766121    -0.7130039145
   16      C       6.9050161382     1.7356266292     0.5525341825
   17      S       8.0307516678     0.6443659549     1.3614666013
   18      C       7.3587832580     3.0380683789     0.5023157640
   19      C       8.8936095221     2.0684851618     1.9371086843
   20      S       6.7909193226     4.4539026285    -0.3176293127
   21      C       8.4555088535     3.2208821264     1.3061696697
   22      C      10.2976882564     2.0151563503     2.2897500681
   23      C       8.1034190287     5.3735532250     0.3602801960
   24      C       8.8719445030     4.5845955887     1.1818557819
   25      N      10.9829713056     1.0550755966     1.7495629811
   26      S      11.2489252551     3.1676047620     3.2129969639
   27      C      12.2999977099     1.3157383747     1.8606051649
   28      C      12.5730637841     2.2559110628     2.8485607487
   29      C      -0.8850229345     0.5911991189    -5.6485524093
   30      H      -0.1572814541    -1.5100012305    -4.0615431373
   31      H       1.7331991499    -1.5253075102    -2.3569215360
   32      H       2.4777003287     2.5564411355    -3.4630295723
   33      H       2.9712943602     2.6768015061    -1.2903583332
   34      H       8.2332886719     6.4029102235     0.0550556141
   35      H       9.7475689287     4.9713210691     1.6907126064
   36      H      13.0378124324     0.6203477074     1.4822623902
   37      H      13.4961431371     2.6966473829     3.2007112905
   38      H      -0.6544459016     1.4096589429    -6.3411365186
   39      C      -2.3388473923     0.5634687109    -5.1289617335
   40      H      -0.8515588139    -0.3447333242    -6.2206447223
   41      H      -2.3998272255     1.2276209307    -4.2575695779
   42      H      -2.6018725963    -0.3967350284    -4.6669525116
   43      C      -3.3251413947     0.9788394144    -6.1598711959
   44      H      -3.2581034328     2.0156265243    -6.5140750923
   45      C      -4.8805596746     0.9240471925    -5.7884606589
   46      H      -3.0230303754     0.4741036296    -7.0859639124
   47      H      -4.9452124819    -0.0872096943    -5.3704169728
   48      H      -5.6033632325     1.1302506105    -6.5871227696
   49      C      -5.2387079679     1.9872207255    -4.6698137804
   50      H      -4.7673689027     1.6103844173    -3.7539978151
   51      C      -6.7502518454     2.0411658058    -4.3681831542
   52      H      -4.6912496111     2.9164283501    -4.8675219949
   53      H      -7.0377473756     2.4324029827    -3.3845278327
   54      H      -7.1704545449     1.0275406884    -4.3734569207
   55      H      -7.2475827957     2.6245416307    -5.1535006523
   56      C      -8.0553071203     3.3353740995     0.9145148896
   57      C      -6.8515898672     3.3717335999     1.6310536265
   58      N      -8.4915555453     2.2435787395     0.2792887853
   59      C      -6.0653161352     2.2492836205     1.6910007882
   60      C      -7.6103396995     1.2036242831     0.2130516227
   61      C      -6.3218276374     1.1524026973     0.8378876132
   62      C      -5.3666559941    -0.0537298400     0.8256632773
   63      C      -4.7361295679    -0.5496694469     1.9802339040
   64      C      -5.1112563612    -0.7614213370    -0.3982700431
   65      N      -3.9664932647    -1.6903332126     2.0458779026
   66      N      -5.6858332129    -0.4608100294    -1.5866859144
   67      C      -4.2614989776    -1.8652101633    -0.3867541455
   68      C      -3.6999115552    -2.3250392233     0.8362302381
   69      S      -5.1581656221    -1.6684155842    -2.6574621457
   70      N      -4.2027908229    -2.5223224217    -1.6251167065
   71      C      -2.7937174442    -3.5130366309     0.9260711676
   72      S      -2.5138801824    -4.5148083906     2.3113514456
   73      C      -1.8027659189    -3.7058531620    -0.0151588042
   74      C      -1.0723481518    -5.2686047220     1.5565292841
   75      S      -1.2403914174    -2.7603514514    -1.3808935644
   76      C      -0.8375869739    -4.6255992136     0.3822613822
   77      C      -0.4203409692    -6.4559296626     2.1210601685
   78      C       0.1775841775    -3.7967079160    -1.5682795044
   79      C       0.2336803972    -4.7138522240    -0.5379487165
   80      N       0.6798966065    -6.9831551826     1.6273390650
   81      S      -1.0078713499    -7.2453983353     3.5691956133
   82      C       1.1184528845    -7.9995920983     2.4069443417
   83      C       0.4458810131    -8.2682567630     3.5556050296
   84      C      -8.9236995061     4.5954399182     0.9955691727
   85      H      -6.5819215798     4.2711839684     2.1766166835
   86      H      -5.2086572101     2.1775520571     2.3541931199
   87      H      -7.9214238312     0.3613016831    -0.4021185167
   88      H      -4.8229803446    -0.1087445212     2.9720015947
   89      H       0.8876692368    -3.5758379411    -2.3532996714
   90      H       0.9889626513    -5.4768721991    -0.3869049008
   91      H       1.9681620145    -8.5325934409     2.0016321619
   92      H       0.6403373748    -9.0765867549     4.2481830740
   93      H      -8.2631774903     5.4278072107     1.2685185398
   94      C     -10.1332435406     4.5075874767     1.8962745503
   95      H      -9.1735222797     4.9370925082    -0.0165049795
   96      H     -10.4383023456     3.4556927893     1.9464112841
   97      H     -10.9261787512     5.1148224773     1.4419251187
   98      C      -9.6810867186     4.9933836862     3.3444317417
   99      H      -8.6355788657     4.7234308686     3.5381707564
  100      C     -10.6350290036     4.5558839419     4.4777494776
  101      H      -9.4677114179     6.0690287614     3.3002995173
  102      H     -10.1109005580     4.7817107485     5.4142886524
  103      H     -10.7150378122     3.4748581802     4.3087586695
  104      C     -12.0262417842     5.0819063258     4.5812552782
  105      H     -11.9162697748     6.1643609930     4.7231321633
  106      C     -12.5938440879     4.5729162811     5.9139108073
  107      H     -12.6316896558     4.8315791458     3.7013807543
  108      H     -12.2222102162     5.0987479671     6.8030740676
  109      H     -12.4856816987     3.4836424038     5.9907503653
  110      H     -13.6807770342     4.7014831771     5.8415760051
 ----------------------------------------------------------------

   10   -5663.4787361673      3.71E-06 Convergence criterion met
 Total energy in the final basis set = -5663.4787361673

                    Orbital Energies (a.u.)
 --------------------------------------------------------------

 Alpha MOs
 -- Occupied --
-88.996 -88.990 -88.929 -88.928 -88.926 -88.925 -88.909 -88.908
-14.397 -14.389 -14.389 -14.382 -14.360 -14.344 -14.341 -14.338
-14.334 -14.328 -10.274 -10.274 -10.267 -10.265 -10.262 -10.262
-10.256 -10.255 -10.246 -10.246 -10.246 -10.241 -10.238 -10.236
-10.231 -10.231 -10.231 -10.231 -10.229 -10.228 -10.227 -10.227
-10.227 -10.226 -10.224 -10.223 -10.222 -10.222 -10.220 -10.217
-10.211 -10.210 -10.207 -10.206 -10.202 -10.202 -10.198 -10.196
-10.184 -10.183 -10.183 -10.182 -10.182 -10.179 -10.178 -10.176
-10.175 -10.172 -10.171 -10.169  -8.050  -8.046  -7.989  -7.989
 -7.986  -7.986  -7.970  -7.969  -6.015  -6.011  -6.010  -6.008
 -6.005  -6.003  -5.953  -5.952  -5.951  -5.950  -5.949  -5.949
 -5.947  -5.947  -5.946  -5.945  -5.943  -5.943  -5.935  -5.933
 -5.931  -5.929  -5.926  -5.925  -1.040  -1.024  -0.986  -0.975
 -0.968  -0.947  -0.946  -0.939  -0.920  -0.919  -0.902  -0.896
 -0.851  -0.850  -0.831  -0.827  -0.825  -0.812  -0.809  -0.808
 -0.806  -0.802  -0.799  -0.795  -0.788  -0.780  -0.770  -0.766
 -0.751  -0.746  -0.741  -0.741  -0.731  -0.731  -0.709  -0.709
 -0.697  -0.691  -0.677  -0.676  -0.653  -0.652  -0.645  -0.644
 -0.633  -0.630  -0.629  -0.625  -0.614  -0.607  -0.602  -0.600
 -0.600  -0.598  -0.587  -0.585  -0.581  -0.578  -0.564  -0.562
 -0.554  -0.544  -0.543  -0.538  -0.526  -0.522  -0.518  -0.513
 -0.510  -0.509  -0.502  -0.500  -0.489  -0.484  -0.481  -0.475
 -0.474  -0.470  -0.468  -0.467  -0.466  -0.462  -0.454  -0.452
 -0.447  -0.444  -0.443  -0.441  -0.438  -0.436  -0.435  -0.434
 -0.432  -0.426  -0.425  -0.421  -0.420  -0.416  -0.413  -0.412
 -0.410  -0.407  -0.406  -0.405  -0.404  -0.404  -0.402  -0.399
 -0.397  -0.396  -0.393  -0.390  -0.386  -0.385  -0.380  -0.380
 -0.378  -0.377  -0.375  -0.372  -0.367  -0.364  -0.361  -0.357
 -0.354  -0.352  -0.351  -0.350  -0.347  -0.347  -0.347  -0.346
 -0.341  -0.339  -0.335  -0.332  -0.331  -0.325  -0.318  -0.317
 -0.314  -0.314  -0.307  -0.306  -0.305  -0.304  -0.301  -0.299
 -0.299  -0.296  -0.293  -0.290  -0.288  -0.288  -0.285  -0.284
 -0.281  -0.270  -0.269  -0.264  -0.257  -0.255  -0.252  -0.250
 -0.248  -0.245  -0.235  -0.233  -0.199  -0.193

          Ground-State Mulliken Net Atomic Charges

     Atom                 Charge (a.u.)
  ----------------------------------------
      1 C                     0.280401
      2 C                    -0.127349
      3 N                    -0.481276
      4 C                    -0.063416
      5 C                     0.067156
      6 C                     0.037563
      7 C                     0.063143
      8 C                     0.033454
      9 C                     0.219319
     10 N                    -0.489992
     11 N                    -0.552938
     12 C                     0.213582
     13 C                     0.261927
     14 S                     0.608726
     15 N                    -0.559187
     16 C                    -0.226070
     17 S                     0.375062
     18 C                    -0.102601
     19 C                    -0.230930
     20 S                     0.282839
     21 C                     0.145733
     22 C                     0.040814
     23 C                    -0.301789
     24 C                    -0.083650
     25 N                    -0.385896
     26 S                     0.275722
     27 C                     0.088122
     28 C                    -0.294455
     29 C                    -0.231596
     30 H                     0.092534
     31 H                     0.107883
     32 H                     0.102871
     33 H                     0.106136
     34 H                     0.138662
     35 H                     0.097930
     36 H                     0.110820
     37 H                     0.133008
     38 H                     0.122163
     39 C                    -0.180791
     40 H                     0.104764
     41 H                     0.108240
     42 H                     0.093980
     43 C                    -0.184561
     44 H                     0.097450
     45 C                    -0.191841
     46 H                     0.083351
     47 H                     0.085493
     48 H                     0.096454
     49 C                    -0.182104
     50 H                     0.102375
     51 C                    -0.322833
     52 H                     0.095298
     53 H                     0.117071
     54 H                     0.101901
     55 H                     0.099354
     56 C                     0.280198
     57 C                    -0.107768
     58 N                    -0.479743
     59 C                    -0.077224
     60 C                     0.081193
     61 C                     0.037414
     62 C                     0.039755
     63 C                     0.046889
     64 C                     0.252807
     65 N                    -0.498286
     66 N                    -0.576184
     67 C                     0.210092
     68 C                     0.237972
     69 S                     0.622514
     70 N                    -0.532508
     71 C                    -0.207542
     72 S                     0.322007
     73 C                    -0.118298
     74 C                    -0.239265
     75 S                     0.268044
     76 C                     0.149465
     77 C                     0.070743
     78 C                    -0.327472
     79 C                    -0.042357
     80 N                    -0.433113
     81 S                     0.253268
     82 C                     0.130683
     83 C                    -0.311383
     84 C                    -0.235629
     85 H                     0.092748
     86 H                     0.095871
     87 H                     0.110996
     88 H                     0.118105
     89 H                     0.145266
     90 H                     0.126654
     91 H                     0.109669
     92 H                     0.137988
     93 H                     0.091819
     94 C                    -0.166494
     95 H                     0.106089
     96 H                     0.114518
     97 H                     0.100580
     98 C                    -0.193763
     99 H                     0.088309
    100 C                    -0.161458
    101 H                     0.082848
    102 H                     0.084089
    103 H                     0.091164
    104 C                    -0.170311
    105 H                     0.093360
    106 C                    -0.317391
    107 H                     0.098561
    108 H                     0.107793
    109 H                     0.102913
    110 H                     0.095773
  ----------------------------------------
  Sum of atomic charges =     0.000000

                    Cartesian Multipole Moments
 -----------------------------------------------------------------
    Charge (ESU x 10^10)
                 0.0000
    Dipole Moment (Debye)
         X       2.7930      Y      -0.1527      Z       1.7854
       Tot       3.3184
    Quadrupole Moments (Debye-Ang)
        XX    -413.7227     XY       5.4815     YY    -407.5531
        XZ       7.0248     YZ       6.2763     ZZ    -440.4280

 Total job time:  94.83s(wall), 1036.02s(cpu)
        *  Thank you very much for using Q-Chem.  Have a nice day.  *
