 Q-Chem 4.4, Q-Chem, Inc., Pleasanton, CA (2016)
 Q-Chem 4.4.2 for Intel X86 Linux

User input:
--------------------------------------------------------------
$comment
SP
$end

$rem
MEM_STATIC 5000
MEM_TOTAL 20000
JOBTYPE SP
EXCHANGE B3LYP
BASIS 6-31g(d,p)
$end

$molecule
0 1
C          28.279000     25.827000      3.338000
C          27.909000     24.771000      4.204000
N          27.491000     26.835000      2.982000
C          26.558000     24.780000      4.687000
C          26.262000     26.742000      3.415000
C          25.658000     25.783000      4.214000
C          24.200000     25.891000      4.686000
C          23.781000     25.308000      5.920000
C          23.143000     26.479000      3.993000
N          22.465000     25.242000      6.291000
N          23.311000     27.145000      2.842000
C          21.834000     26.586000      4.453000
C          21.484000     25.841000      5.621000
S          21.868000     27.736000      2.371000
N          20.967000     27.313000      3.699000
C          20.146000     25.648000      6.149000
S          18.666000     26.151000      5.284000
C          19.852000     24.841000      7.243000
C          17.702000     25.520000      6.576000
S          20.780000     24.186000      8.541000
C          18.489000     24.844000      7.441000
C          16.270000     25.602000      6.536000
C          19.318000     23.657000      9.336000
C          18.171000     24.104000      8.629000
N          15.589000     24.647000      7.234000
S          15.429000     26.507000      5.333000
C          14.275000     24.612000      6.847000
C          14.030000     25.599000      5.905000
C          29.756000     26.076000      2.908000
H          28.660000     24.017000      4.422000
H          26.165000     24.087000      5.424000
H          25.671000     27.637000      3.224000
H          24.481000     24.707000      6.498000
H          19.343000     23.017000     10.208000
H          17.164000     23.857000      8.945000
H          13.511000     23.968000      7.264000
H          13.077000     25.760000      5.419000
H          30.062000     25.417000      2.085000
C          30.711000     26.047000      4.042000
H          29.744000     26.998000      2.314000
H          30.692000     25.007000      4.390000
H          30.377000     26.819000      4.747000
C          32.123000     26.441000      3.529000
H          32.337000     25.938000      2.578000
C          33.220000     26.179000      4.517000
H          32.093000     27.504000      3.263000
H          33.227000     25.102000      4.726000
H          32.926000     26.661000      5.457000
C          34.593000     26.588000      4.054000
H          35.017000     25.874000      3.337000
C          35.506000     26.774000      5.321000
H          34.412000     27.516000      3.497000
H          36.454000     27.199000      4.969000
H          35.714000     25.836000      5.850000
H          35.083000     27.503000      6.024000
C          32.236000     25.064000      7.953000
C          31.218000     24.359000      7.297000
N          32.035000     26.239000      8.557000
C          29.951000     24.883000      7.254000
C          30.814000     26.812000      8.349000
C          29.721000     26.225000      7.632000
C          28.321000     26.842000      7.469000
C          27.132000     26.126000      7.693000
C          28.178000     28.226000      7.111000
N          25.861000     26.657000      7.674000
N          29.215000     29.076000      6.924000
C          26.903000     28.774000      6.990000
C          25.754000     27.987000      7.278000
S          28.506000     30.596000      6.659000
N          26.923000     30.157000      6.754000
C          24.356000     28.514000      7.186000
S          22.957000     27.924000      8.020000
C          23.982000     29.315000      6.126000
C          21.851000     28.854000      6.958000
S          24.807000     29.853000      4.675000
C          22.603000     29.433000      5.985000
C          20.423000     29.012000      7.257000
C          23.300000     30.480000      4.000000
C          22.240000     30.151000      4.821000
N          19.578000     29.627000      6.457000
S          19.685000     28.320000      8.686000
C          18.312000     29.529000      6.927000
C          18.095000     28.794000      8.048000
C          33.590000     24.353000      8.051000
H          31.431000     23.380000      6.878000
H          29.100000     24.311000      6.897000
H          30.693000     27.819000      8.744000
H          27.084000     25.070000      7.954000
H          23.316000     30.941000      3.022000
H          21.196000     30.399000      4.666000
H          17.585000     30.095000      6.360000
H          17.156000     28.669000      8.571000
H          33.622000     23.604000      7.250000
C          33.930000     23.762000      9.399000
H          34.380000     25.009000      7.665000
H          33.399000     24.342000     10.163000
H          35.015000     23.854000      9.534000
C          33.391000     22.263000      9.408000
H          32.477000     22.173000      8.808000
C          33.244000     21.659000     10.822000
H          33.993000     21.672000      8.706000
H          32.691000     20.721000     10.691000
H          32.640000     22.417000     11.336000
C          34.427000     21.388000     11.688000
H          35.024000     20.649000     11.139000
C          33.910000     20.630000     12.919000
H          34.992000     22.300000     11.917000
H          33.672000     19.573000     12.742000
H          33.084000     21.176000     13.392000
H          34.707000     20.704000     13.669000
$end

--------------------------------------------------------------

             Standard Nuclear Orientation (Angstroms)
    I     Atom           X                Y                Z
 ----------------------------------------------------------------
    1      C       3.1911046424    -2.1174691085     2.6053044515
    2      C       3.0070584560    -0.7211786158     2.7412892350
    3      N       2.2712721248    -2.9706095868     2.1696400582
    4      C       1.7035539628    -0.2114927360     2.4255878885
    5      C       1.0962670960    -2.4403290913     1.9581104423
    6      C       0.6645095031    -1.1281678766     2.0794213140
    7      C      -0.7568756000    -0.6816075692     1.7046410041
    8      C      -1.0145225948     0.6462158776     1.2477942899
    9      C      -1.9218012149    -1.4398830827     1.8105114777
   10      N      -2.2834004855     1.1256468896     1.0635449931
   11      N      -1.9158920184    -2.7348571920     2.1563266562
   12      C      -3.1963255751    -1.0206688568     1.4412187913
   13      C      -3.3725128394     0.3657023862     1.1434238543
   14      S      -3.4469892524    -3.2890648154     2.1119851408
   15      N      -4.1930299995    -1.9443184547     1.4879703741
   16      C      -4.6372632442     1.0470507691     0.9373952286
   17      S      -6.2248040379     0.2840059413     1.2359095818
   18      C      -4.7566090564     2.4178389752     0.7343748573
   19      C      -7.0128148464     1.7580096090     0.7852731948
   20      S      -3.6666361653     3.6633005712     0.2487850002
   21      C      -6.0927319356     2.7340115427     0.6257813060
   22      C      -8.4439765797     1.8613439274     0.7920637669
   23      C      -4.9968041396     4.7837745541     0.0922563647
   24      C      -6.2362644361     4.1266354614     0.3094507156
   25      N      -8.9600642301     3.1102199876     0.9842931174
   26      S      -9.4684445342     0.4952143673     1.0322104621
   27      C     -10.2873160139     3.0375107651     1.3170183365
   28      C     -10.7107205826     1.7176764904     1.2990167161
   29      C       4.5947169615    -2.7879602551     2.6988142379
   30      H       3.8515822511    -0.1381035480     3.0974409228
   31      H       1.4466102012     0.8426057435     2.3986936690
   32      H       0.3966197891    -3.1246837921     1.4796344352
   33      H      -0.2105485372     1.3802966381     1.2417816510
   34      H      -4.8353017015     5.8399068006    -0.0783620410
   35      H      -7.1829151863     4.6539931791     0.2837564591
   36      H     -10.9413780486     3.8823413356     1.4924753449
   37      H     -11.7095001467     1.3904163433     1.5552708448
   38      H       4.9095443625    -2.9409293268     3.7393574473
   39      C       5.6294255546    -2.1005241282     1.8891033644
   40      H       4.4355644421    -3.8494995865     2.4732732802
   41      H       5.7525313043    -1.1240361123     2.3732326130
   42      H       5.2654103409    -2.1057669192     0.8537143373
   43      C       6.9462493675    -2.9223494999     1.9413250469
   44      H       7.1429297549    -3.2622887286     2.9655145538
   45      C       8.1366569107    -2.1920647345     1.3956043837
   46      H       6.7781821571    -3.8511852937     1.3839719444
   47      H       8.2792123959    -1.2902218448     2.0038940645
   48      H       7.8622138962    -1.8345116501     0.3960060525
   49      C       9.4169172427    -2.9843158547     1.4027209056
   50      H       9.8627577378    -3.0400838502     2.4036091030
   51      C      10.3960494694    -2.3493668664     0.3483993869
   52      H       9.0924051563    -4.0018997392     1.1509095796
   53      H      11.2617109883    -3.0191643118     0.2760494268
   54      H      10.7463285293    -1.3479012677     0.6264645496
   55      H       9.9484786009    -2.3140592009    -0.6531058235
   56      C       7.5436750898     1.1239744602    -0.2383581676
   57      C       6.5641555022     1.2947765174     0.7490895701
   58      N       7.2589969254     0.7474406897    -1.4885672151
   59      C       5.2470550542     1.0637355480     0.4431803020
   60      C       5.9696366836     0.3605173666    -1.7127869933
   61      C       4.8980773170     0.4156576785    -0.7630359365
   62      C       3.4298171830     0.0529083126    -1.0456718800
   63      C       2.3481339854     0.8694146613    -0.6717309186
   64      C       3.1071222137    -1.1508654269    -1.7604206056
   65      N       1.0280919921     0.6507679279    -0.9995200913
   66      N       4.0260384363    -2.0155804602    -2.2510313342
   67      C       1.7735661881    -1.4522596806    -2.0275532138
   68      C       0.7442313668    -0.5463942940    -1.6502049305
   69      S       3.1343080966    -3.1751888197    -3.1132560461
   70      N       1.6216646455    -2.5915150727    -2.8324184653
   71      C      -0.7066949198    -0.7965284640    -1.9200989986
   72      S      -1.9647131913     0.3857617536    -2.0630565795
   73      C      -1.2460772918    -2.0511995116    -1.7202384998
   74      C      -3.2439794304    -0.8643642644    -1.9340494921
   75      S      -0.5973875994    -3.5527271443    -1.0877146257
   76      C      -2.6363100780    -2.0507807015    -1.6682902102
   77      C      -4.6541913089    -0.5778727610    -2.2217543344
   78      C      -2.2112283149    -4.2664471412    -1.0107411832
   79      C      -3.1633570307    -3.3213256668    -1.3364378322
   80      N      -5.6200765581    -1.4579129740    -2.0641316554
   81      S      -5.2011720453     1.0049788548    -2.7325789972
   82      C      -6.8284120126    -0.8933632477    -2.2975176787
   83      C      -6.8774459787     0.4355682131    -2.5722754681
   84      C       8.9719396636     1.5133713442     0.1577117432
   85      H       6.8527875549     1.6614126184     1.7297222779
   86      H       4.4406586791     1.3281746573     1.1204031926
   87      H       5.7672515860    -0.0547100908    -2.6983535465
   88      H       2.4377529438     1.8001261805    -0.1137833312
   89      H      -2.3201271833    -5.2763685931    -0.6399842582
   90      H      -4.2371516244    -3.4662182724    -1.3743364277
   91      H      -7.6544182860    -1.5916014697    -2.2740438283
   92      H      -7.7547583206     1.0130118499    -2.8325770260
   93      H       9.0269226630     1.4751606409     1.2527655372
   94      C       9.4758659694     2.8264098838    -0.3936257866
   95      H       9.6527571120     0.6783601316    -0.0488696616
   96      H       8.9424446367     3.0232990579    -1.3310442284
   97      H      10.5509271175     2.7130530513    -0.5815293690
   98      C       9.1093450728     3.9568748069     0.6671826269
   99      H       8.1686041706     3.7210754029     1.1799215430
  100      C       9.1370853060     5.3894488455     0.0903090677
  101      H       9.7190025320     3.8017057049     1.5664764233
  102      H       8.6837112836     6.0297444976     0.8566559041
  103      H       8.4927363826     5.2960867874    -0.7926824334
  104      C      10.4045573301     6.0293915416    -0.3645249832
  105      H      11.0372264417     6.0858525016     0.5301665587
  106      C      10.0690599661     7.4909848987    -0.6937671086
  107      H      10.8800748234     5.4743132730    -1.1825599637
  108      H       9.9376303752     8.1411540668     0.1810061852
  109      H       9.2252513938     7.5471692621    -1.3930177151
  110      H      10.9069030654     7.8583602436    -1.2989441875
 ----------------------------------------------------------------

   10   -5663.4905748295      3.81E-06 Convergence criterion met
 Total energy in the final basis set = -5663.4905748295

                    Orbital Energies (a.u.)
 --------------------------------------------------------------

 Alpha MOs
 -- Occupied --
-88.993 -88.977 -88.935 -88.924 -88.920 -88.919 -88.907 -88.905
-14.394 -14.386 -14.378 -14.368 -14.358 -14.345 -14.337 -14.336
-14.334 -14.321 -10.271 -10.269 -10.268 -10.262 -10.260 -10.250
-10.245 -10.245 -10.243 -10.242 -10.241 -10.236 -10.235 -10.235
-10.235 -10.231 -10.231 -10.231 -10.229 -10.227 -10.227 -10.225
-10.224 -10.222 -10.222 -10.221 -10.220 -10.219 -10.218 -10.214
-10.210 -10.208 -10.204 -10.203 -10.197 -10.196 -10.194 -10.191
-10.183 -10.182 -10.180 -10.176 -10.175 -10.174 -10.172 -10.172
-10.171 -10.171 -10.169 -10.163  -8.047  -8.032  -7.996  -7.983
 -7.980  -7.980  -7.967  -7.965  -6.012  -6.007  -6.005  -5.997
 -5.992  -5.990  -5.960  -5.957  -5.953  -5.948  -5.944  -5.944
 -5.944  -5.941  -5.940  -5.940  -5.937  -5.937  -5.931  -5.930
 -5.927  -5.926  -5.923  -5.921  -1.025  -1.021  -0.969  -0.964
 -0.949  -0.947  -0.945  -0.939  -0.916  -0.913  -0.893  -0.893
 -0.846  -0.845  -0.826  -0.823  -0.810  -0.809  -0.809  -0.808
 -0.798  -0.797  -0.796  -0.793  -0.788  -0.781  -0.768  -0.762
 -0.748  -0.746  -0.740  -0.736  -0.726  -0.724  -0.708  -0.703
 -0.695  -0.689  -0.674  -0.665  -0.651  -0.647  -0.643  -0.640
 -0.632  -0.631  -0.629  -0.620  -0.613  -0.605  -0.599  -0.593
 -0.593  -0.589  -0.584  -0.583  -0.578  -0.573  -0.569  -0.563
 -0.551  -0.550  -0.536  -0.533  -0.519  -0.518  -0.510  -0.508
 -0.506  -0.501  -0.499  -0.493  -0.483  -0.482  -0.480  -0.474
 -0.473  -0.470  -0.466  -0.465  -0.462  -0.457  -0.449  -0.447
 -0.443  -0.443  -0.439  -0.437  -0.433  -0.432  -0.431  -0.429
 -0.426  -0.423  -0.422  -0.420  -0.418  -0.414  -0.411  -0.411
 -0.408  -0.407  -0.405  -0.402  -0.401  -0.399  -0.397  -0.396
 -0.392  -0.391  -0.390  -0.386  -0.385  -0.382  -0.380  -0.380
 -0.379  -0.377  -0.371  -0.366  -0.365  -0.356  -0.354  -0.352
 -0.351  -0.349  -0.346  -0.345  -0.344  -0.343  -0.341  -0.341
 -0.338  -0.334  -0.332  -0.330  -0.324  -0.321  -0.319  -0.318
 -0.313  -0.310  -0.306  -0.303  -0.302  -0.299  -0.298  -0.297
 -0.294  -0.293  -0.291  -0.286  -0.284  -0.282  -0.281  -0.280
 -0.278  -0.268  -0.264  -0.260  -0.257  -0.251  -0.249  -0.247
 -0.243  -0.242  -0.232  -0.226  -0.196  -0.185

          Ground-State Mulliken Net Atomic Charges

     Atom                 Charge (a.u.)
  ----------------------------------------
      1 C                     0.245147
      2 C                    -0.114169
      3 N                    -0.465907
      4 C                    -0.100285
      5 C                     0.077364
      6 C                     0.069375
      7 C                     0.043852
      8 C                     0.072980
      9 C                     0.229224
     10 N                    -0.543831
     11 N                    -0.550272
     12 C                     0.208362
     13 C                     0.329171
     14 S                     0.591969
     15 N                    -0.581984
     16 C                    -0.234451
     17 S                     0.321743
     18 C                    -0.102257
     19 C                    -0.208463
     20 S                     0.291840
     21 C                     0.160205
     22 C                     0.045849
     23 C                    -0.320808
     24 C                    -0.064886
     25 N                    -0.442843
     26 S                     0.280129
     27 C                     0.141789
     28 C                    -0.312211
     29 C                    -0.241697
     30 H                     0.092661
     31 H                     0.090896
     32 H                     0.118479
     33 H                     0.108594
     34 H                     0.131300
     35 H                     0.120631
     36 H                     0.125576
     37 H                     0.119602
     38 H                     0.095424
     39 C                    -0.168212
     40 H                     0.115985
     41 H                     0.088018
     42 H                     0.117447
     43 C                    -0.187660
     44 H                     0.082562
     45 C                    -0.165063
     46 H                     0.092249
     47 H                     0.080316
     48 H                     0.104260
     49 C                    -0.178744
     50 H                     0.092623
     51 C                    -0.324895
     52 H                     0.091873
     53 H                     0.094576
     54 H                     0.105912
     55 H                     0.114730
     56 C                     0.285363
     57 C                    -0.103503
     58 N                    -0.483220
     59 C                    -0.073311
     60 C                     0.079619
     61 C                     0.034873
     62 C                     0.046460
     63 C                     0.049718
     64 C                     0.260041
     65 N                    -0.511247
     66 N                    -0.581064
     67 C                     0.212150
     68 C                     0.248187
     69 S                     0.619475
     70 N                    -0.529411
     71 C                    -0.213071
     72 S                     0.336762
     73 C                    -0.113827
     74 C                    -0.247815
     75 S                     0.267835
     76 C                     0.147427
     77 C                     0.072693
     78 C                    -0.314244
     79 C                    -0.050428
     80 N                    -0.430149
     81 S                     0.261292
     82 C                     0.130684
     83 C                    -0.310251
     84 C                    -0.242704
     85 H                     0.089194
     86 H                     0.089914
     87 H                     0.111865
     88 H                     0.110983
     89 H                     0.139516
     90 H                     0.129925
     91 H                     0.106796
     92 H                     0.138118
     93 H                     0.090971
     94 C                    -0.167603
     95 H                     0.112118
     96 H                     0.114621
     97 H                     0.100267
     98 C                    -0.193790
     99 H                     0.087341
    100 C                    -0.160836
    101 H                     0.082421
    102 H                     0.083644
    103 H                     0.091249
    104 C                    -0.170329
    105 H                     0.093252
    106 C                    -0.317480
    107 H                     0.098752
    108 H                     0.107720
    109 H                     0.103000
    110 H                     0.095964
  ----------------------------------------
  Sum of atomic charges =     0.000000

                    Cartesian Multipole Moments
 -----------------------------------------------------------------
    Charge (ESU x 10^10)
                 0.0000
    Dipole Moment (Debye)
         X      -2.7047      Y       1.1559      Z       1.2490
       Tot       3.1956
    Quadrupole Moments (Debye-Ang)
        XX    -388.8480     XY       3.9770     YY    -433.8478
        XZ      10.0050     YZ       5.3646     ZZ    -448.3754

 Total job time:  128.70s(wall), 1383.82s(cpu)
        *  Thank you very much for using Q-Chem.  Have a nice day.  *
