 Q-Chem 4.4, Q-Chem, Inc., Pleasanton, CA (2016)
 Q-Chem 4.4.2 for Intel X86 Linux

User input:
--------------------------------------------------------------
$comment
SP
$end

$rem
MEM_STATIC 5000
MEM_TOTAL 20000
JOBTYPE SP
EXCHANGE B3LYP
BASIS 6-31g(d,p)
$end

$molecule
0 1
C           3.269000     -3.900000     -9.310000
C           3.239000     -3.084000     -8.196000
N           2.834000     -3.485000    -10.478000
C           2.603000     -1.838000     -8.249000
C           2.203000     -2.304000    -10.637000
C           1.931000     -1.475000     -9.521000
C           1.166000     -0.223000     -9.594000
C           1.596000      0.969000     -9.007000
C          -0.077000     -0.144000    -10.246000
N           1.009000      2.170000     -9.060000
N          -0.770000     -1.130000    -10.834000
C          -0.734000      1.105000    -10.275000
C          -0.184000      2.313000     -9.719000
S          -2.239000     -0.526000    -11.280000
N          -1.982000      0.993000    -10.780000
C          -0.887000      3.608000     -9.646000
S          -2.526000      3.952000    -10.226000
C          -0.444000      4.747000     -8.964000
C          -2.393000      5.643000     -9.671000
S           1.050000      4.976000     -8.037000
C          -1.244000      5.838000     -9.026000
C          -3.303000      6.713000    -10.054000
C           0.352000      6.491000     -7.553000
C          -0.870000      6.816000     -8.164000
N          -4.076000      6.368000    -11.113000
S          -3.741000      8.209000     -9.287000
C          -4.886000      7.341000    -11.556000
C          -4.790000      8.378000    -10.678000
C           4.142000     -5.144000     -9.293000
H           3.659000     -3.414000     -7.250000
H           2.479000     -1.166000     -7.405000
H           1.975000     -2.101000    -11.682000
H           2.527000      0.898000     -8.446000
H           0.924000      7.147000     -6.910000
H          -1.465000      7.698000     -7.953000
H          -5.547000      7.156000    -12.393000
H          -5.373000      9.286000    -10.749000
H           5.023000     -4.967000     -9.922000
C           3.451000     -6.441000     -9.742000
H           4.506000     -5.340000     -8.277000
H           3.579000     -6.691000    -10.802000
H           2.381000     -6.373000     -9.512000
C           3.981000     -7.615000     -8.890000
H           5.067000     -7.674000     -9.033000
C           3.377000     -8.986000     -9.270000
H           3.713000     -7.351000     -7.859000
H           2.301000     -9.013000     -9.058000
H           3.802000     -9.745000     -8.602000
C           3.500000     -9.326000    -10.763000
H           2.790000     -8.702000    -11.319000
C           3.208000    -10.791000    -11.056000
H           4.546000     -9.069000    -10.970000
H           3.266000    -11.044000    -12.122000
H           2.194000    -11.056000    -10.735000
H           3.946000    -11.441000    -10.570000
C           4.459000      6.200000    -10.191000
C           4.353000      4.849000     -9.723000
N           3.589000      6.744000    -11.032000
C           3.416000      3.990000    -10.234000
C           2.698000      5.896000    -11.563000
C           2.541000      4.513000    -11.191000
C           1.641000      3.616000    -11.995000
C           0.436000      4.099000    -12.565000
C           1.935000      2.253000    -12.333000
N          -0.450000      3.351000    -13.267000
N           3.072000      1.568000    -12.002000
C           1.130000      1.540000    -13.187000
C          -0.065000      2.095000    -13.729000
S           3.084000      0.176000    -12.816000
N           1.599000      0.331000    -13.494000
C          -0.928000      1.256000    -14.591000
S          -0.462000      0.024000    -15.814000
C          -2.269000      1.295000    -14.491000
C          -2.159000     -0.407000    -16.104000
S          -3.256000      2.274000    -13.386000
C          -2.918000      0.358000    -15.283000
C          -2.671000     -1.259000    -17.164000
C          -4.615000      1.457000    -14.105000
C          -4.303000      0.568000    -15.138000
N          -1.742000     -1.860000    -17.816000
S          -4.308000     -1.877000    -17.415000
C          -2.232000     -2.857000    -18.595000
C          -3.609000     -3.014000    -18.499000
C           5.534000      7.026000     -9.629000
H           5.055000      4.410000     -9.020000
H           3.459000      2.918000    -10.064000
H           1.976000      6.313000    -12.264000
H           0.131000      5.133000    -12.404000
H          -5.588000      1.612000    -13.657000
H          -5.074000     -0.000000    -15.646000
H          -1.539000     -3.462000    -19.166000
H          -4.294000     -3.648000    -19.046000
H           5.447000      8.078000     -9.927000
C           6.909000      6.598000    -10.193000
H           5.568000      6.796000     -8.557000
H           6.901000      6.852000    -11.260000
H           7.109000      5.525000    -10.084000
C           8.070000      7.274000     -9.395000
H           8.876000      7.326000    -10.137000
C           8.540000      6.442000     -8.215000
H           7.776000      8.284000     -9.085000
H           8.884000      5.475000     -8.602000
H           7.721000      6.223000     -7.519000
C           9.721000      7.152000     -7.432000
H          10.732000      7.056000     -7.846000
C           9.894000      6.575000     -6.024000
H           9.579000      8.226000     -7.259000
H           9.023000      6.799000     -5.397000
H          10.774000      7.047000     -5.570000
H          10.072000      5.493000     -6.031000
$end

--------------------------------------------------------------

             Standard Nuclear Orientation (Angstroms)
    I     Atom           X                Y                Z
 ----------------------------------------------------------------
    1      C       3.9511293597    -4.8434752222    -1.4425854992
    2      C       2.8330190186    -5.0534580332    -2.2258405562
    3      N       4.0277723672    -3.8287617731    -0.6118289371
    4      C       1.8076470810    -4.1011240775    -2.2644854315
    5      C       3.0966833303    -2.8542273487    -0.5723465201
    6      C       2.0087902226    -2.8581951997    -1.4796247808
    7      C       1.0073207845    -1.7869895409    -1.5670055640
    8      C      -0.3677010380    -2.0290503591    -1.5994793664
    9      C       1.3691338350    -0.4310171617    -1.6496144212
   10      N      -1.3600291806    -1.1320719558    -1.6216965081
   11      N       2.6000813096     0.0973103159    -1.7114803346
   12      C       0.3368068643     0.5292146284    -1.7185124241
   13      C      -1.0641418745     0.2054475753    -1.6600528102
   14      S       2.4472670090     1.7180395223    -1.9790202923
   15      N       0.8282802552     1.7634483832    -1.9638569670
   16      C      -2.1645394694     1.1735709181    -1.8286509311
   17      S      -2.0019506053     2.9135998323    -2.1234750128
   18      C      -3.5239744370     0.8616156101    -1.9440392090
   19      C      -3.7765659522     3.0931508883    -2.1842762348
   20      S      -4.3064815315    -0.7288511655    -1.9004034121
   21      C      -4.3735296570     1.9061093330    -2.0903737269
   22      C      -4.4814914363     4.3656022496    -2.1239720473
   23      C      -5.7470684033     0.1225825318    -2.3656507913
   24      C      -5.6306346521     1.5209277737    -2.4231291893
   25      N      -3.6758674656     5.3736667903    -1.7082667435
   26      S      -6.0437144656     4.8675480886    -2.6946370818
   27      C      -4.2888224216     6.5581353053    -1.5654432205
   28      C      -5.5565950167     6.4175360348    -2.0434113075
   29      C       4.9444478837    -5.9777791453    -1.2512038908
   30      H       2.7532588407    -5.9300702700    -2.8625550136
   31      H       0.9286249229    -4.1582720528    -2.8995839708
   32      H       3.2927515205    -2.1349087183     0.2209730704
   33      H      -0.6516355676    -3.0806696583    -1.6004954975
   34      H      -6.6685797193    -0.4336233800    -2.4770997842
   35      H      -6.4125557397     2.2060850586    -2.7323684294
   36      H      -3.7245234272     7.4246692958    -1.2454424576
   37      H      -6.2719563648     7.2260526489    -2.1062844035
   38      H       4.8309841297    -6.3805760388    -0.2372948026
   39      C       6.4177446407    -5.6116343069    -1.4891652806
   40      H       4.7273034286    -6.7959577126    -1.9487711762
   41      H       6.9757422294    -5.3278887019    -0.5888258320
   42      H       6.4688115797    -4.7955492940    -2.2197961172
   43      C       7.1322005115    -6.8068729823    -2.1570255337
   44      H       7.0413169104    -7.6721156929    -1.4888779282
   45      C       8.6359894306    -6.5677609558    -2.4221695054
   46      H       6.5955988418    -6.9559937971    -3.1027012871
   47      H       8.7821554078    -5.7688456363    -3.1596102280
   48      H       9.0447197162    -7.4614967899    -2.9091046269
   49      C       9.4208433417    -6.1162554352    -1.1812323180
   50      H       9.1510266250    -5.0763193440    -0.9613599330
   51      C      10.9278337228    -6.2070471595    -1.3763601071
   52      H       9.0650328300    -6.8191718991    -0.4181325050
   53      H      11.5030068509    -5.8629389250    -0.5077437385
   54      H      11.2478708600    -5.5840791465    -2.2195380749
   55      H      11.2398338633    -7.2476394758    -1.5285558483
   56      C      -5.3376467664    -2.2403820241     1.8957980739
   57      C      -4.2198244803    -2.7885356367     1.1848395985
   58      N      -5.4110890162    -0.9653170574     2.2548698866
   59      C      -3.0887198413    -2.0495800337     0.9578640216
   60      C      -4.2917656748    -0.2525336173     2.0704762180
   61      C      -3.1036235140    -0.7255168636     1.4069047792
   62      C      -1.8474153717     0.1003968602     1.4357600032
   63      C      -1.8940326950     1.5165051926     1.3840104530
   64      C      -0.5241803472    -0.4290235646     1.6007208589
   65      N      -0.8120705025     2.3327639585     1.3644288031
   66      N      -0.1994951448    -1.7462694947     1.7767824362
   67      C       0.5609714603     0.3979445225     1.7565391429
   68      C       0.4365867052     1.8161248170     1.7007979085
   69      S       1.3573125023    -1.8373656746     2.1872156658
   70      N       1.7001257971    -0.2429340125     2.0163334849
   71      C       1.6515238703     2.6552059619     1.8085221724
   72      S       3.1139884780     2.4160578040     2.8257313101
   73      C       1.8203470037     3.7468420180     1.0406475272
   74      C       3.9102311760     3.8297309549     2.1065680545
   75      S       0.7237979039     4.3945162759    -0.1969845374
   76      C       3.0651760584     4.3444073591     1.1811832442
   77      C       5.1401151777     4.4584516375     2.5579477679
   78      C       1.9592649359     5.5927223736    -0.4601467694
   79      C       3.0683963473     5.5072738741     0.3867771150
   80      N       5.7472874661     3.7784390572     3.4625309331
   81      S       6.0863184267     5.7451244727     1.8004080483
   82      C       7.0152795479     4.2179441960     3.6624842115
   83      C       7.3735925892     5.2792422806     2.8407469420
   84      C      -6.4794102796    -3.1280874263     2.1449971887
   85      H      -4.1685491891    -3.8282253264     0.8747586515
   86      H      -2.1580307187    -2.5016768611     0.6271689722
   87      H      -4.3197463392     0.7960361295     2.3642321858
   88      H      -2.8519251636     2.0291584790     1.2960864712
   89      H       1.8406907072     6.2584253300    -1.3052726335
   90      H       3.8991661635     6.1982697672     0.3003179445
   91      H       7.6413737860     3.6984570022     4.3769448897
   92      H       8.2631537612     5.8945160725     2.8181840927
   93      H      -7.3416203291    -2.5886708827     2.5557290028
   94      C      -6.1407765049    -4.1658888731     3.2405337347
   95      H      -6.6249046892    -3.7054151422     1.2237132557
   96      H      -6.0237997634    -3.6049397615     4.1757992243
   97      H      -5.2169384787    -4.7227817516     3.0415271439
   98      C      -7.2363395974    -5.2780529683     3.3078652706
   99      H      -7.1833751541    -5.6075752991     4.3526206492
  100      C      -6.9363801193    -6.4599173683     2.4030200620
  101      H      -8.2229582608    -4.8483692607     3.0966982171
  102      H      -5.9731737762    -6.8836602218     2.7126481205
  103      H      -6.8170103162    -6.1521503942     1.3569950432
  104      C      -8.0620894843    -7.5713791497     2.4998763165
  105      H      -8.0161673520    -8.2652648404     3.3479015555
  106      C      -8.0209806820    -8.5245500639     1.3019208604
  107      H      -9.0899478693    -7.1879195747     2.4939691347
  108      H      -8.2805539177    -8.0018296696     0.3738415940
  109      H      -8.7642786615    -9.3134149905     1.4707410052
  110      H      -7.0467179531    -9.0143875165     1.1864721491
 ----------------------------------------------------------------

   10   -5663.4812356439      3.71E-06 Convergence criterion met
 Total energy in the final basis set = -5663.4812356439

                    Orbital Energies (a.u.)
 --------------------------------------------------------------

 Alpha MOs
 -- Occupied --
-88.985 -88.982 -88.939 -88.925 -88.919 -88.917 -88.909 -88.903
-14.373 -14.372 -14.371 -14.366 -14.348 -14.347 -14.335 -14.334
-14.326 -14.320 -10.267 -10.265 -10.262 -10.260 -10.249 -10.248
-10.246 -10.243 -10.238 -10.235 -10.234 -10.233 -10.232 -10.230
-10.228 -10.228 -10.227 -10.226 -10.226 -10.224 -10.223 -10.222
-10.222 -10.222 -10.222 -10.221 -10.219 -10.217 -10.217 -10.216
-10.206 -10.197 -10.196 -10.195 -10.195 -10.193 -10.190 -10.188
-10.184 -10.181 -10.181 -10.180 -10.179 -10.177 -10.175 -10.175
-10.172 -10.171 -10.170 -10.170  -8.040  -8.037  -7.999  -7.987
 -7.976  -7.975  -7.968  -7.962  -6.005  -6.002  -6.000  -5.998
 -5.996  -5.995  -5.963  -5.960  -5.956  -5.951  -5.947  -5.944
 -5.941  -5.939  -5.937  -5.936  -5.933  -5.933  -5.931  -5.929
 -5.927  -5.925  -5.923  -5.918  -1.033  -1.026  -0.978  -0.970
 -0.952  -0.942  -0.940  -0.939  -0.920  -0.910  -0.891  -0.890
 -0.843  -0.837  -0.829  -0.825  -0.810  -0.809  -0.809  -0.806
 -0.803  -0.802  -0.795  -0.792  -0.784  -0.783  -0.766  -0.763
 -0.753  -0.746  -0.744  -0.738  -0.718  -0.717  -0.709  -0.707
 -0.693  -0.688  -0.673  -0.670  -0.649  -0.649  -0.641  -0.638
 -0.630  -0.628  -0.622  -0.617  -0.610  -0.604  -0.601  -0.597
 -0.593  -0.589  -0.587  -0.580  -0.574  -0.573  -0.567  -0.553
 -0.545  -0.539  -0.538  -0.533  -0.522  -0.521  -0.519  -0.516
 -0.505  -0.500  -0.496  -0.493  -0.488  -0.485  -0.476  -0.473
 -0.471  -0.469  -0.469  -0.466  -0.459  -0.455  -0.453  -0.452
 -0.446  -0.442  -0.437  -0.434  -0.433  -0.432  -0.430  -0.426
 -0.425  -0.422  -0.422  -0.418  -0.417  -0.416  -0.413  -0.412
 -0.410  -0.407  -0.405  -0.401  -0.401  -0.399  -0.397  -0.395
 -0.394  -0.393  -0.391  -0.389  -0.386  -0.385  -0.382  -0.381
 -0.376  -0.375  -0.373  -0.370  -0.364  -0.360  -0.359  -0.356
 -0.351  -0.349  -0.347  -0.343  -0.340  -0.339  -0.337  -0.336
 -0.332  -0.330  -0.330  -0.329  -0.328  -0.326  -0.321  -0.315
 -0.314  -0.307  -0.305  -0.303  -0.302  -0.300  -0.298  -0.296
 -0.295  -0.292  -0.291  -0.287  -0.282  -0.281  -0.279  -0.272
 -0.271  -0.265  -0.263  -0.258  -0.253  -0.251  -0.247  -0.241
 -0.239  -0.238  -0.229  -0.218  -0.188  -0.186

          Ground-State Mulliken Net Atomic Charges

     Atom                 Charge (a.u.)
  ----------------------------------------
      1 C                     0.291136
      2 C                    -0.128708
      3 N                    -0.480768
      4 C                    -0.072379
      5 C                     0.089366
      6 C                     0.003304
      7 C                     0.026289
      8 C                     0.068923
      9 C                     0.257379
     10 N                    -0.548653
     11 N                    -0.577666
     12 C                     0.181332
     13 C                     0.322831
     14 S                     0.618573
     15 N                    -0.564971
     16 C                    -0.231092
     17 S                     0.378324
     18 C                    -0.136904
     19 C                    -0.255209
     20 S                     0.308868
     21 C                     0.203141
     22 C                     0.042196
     23 C                    -0.311150
     24 C                    -0.085365
     25 N                    -0.423943
     26 S                     0.292680
     27 C                     0.149436
     28 C                    -0.323848
     29 C                    -0.221722
     30 H                     0.088346
     31 H                     0.104576
     32 H                     0.121035
     33 H                     0.100462
     34 H                     0.122054
     35 H                     0.098720
     36 H                     0.128257
     37 H                     0.117306
     38 H                     0.120674
     39 C                    -0.165928
     40 H                     0.091872
     41 H                     0.110631
     42 H                     0.097621
     43 C                    -0.192205
     44 H                     0.089613
     45 C                    -0.172508
     46 H                     0.087788
     47 H                     0.085668
     48 H                     0.085605
     49 C                    -0.173074
     50 H                     0.105491
     51 C                    -0.318800
     52 H                     0.090942
     53 H                     0.098198
     54 H                     0.101847
     55 H                     0.101338
     56 C                     0.291954
     57 C                    -0.125901
     58 N                    -0.481436
     59 C                    -0.035063
     60 C                     0.074468
     61 C                     0.032545
     62 C                     0.043739
     63 C                     0.051341
     64 C                     0.228100
     65 N                    -0.514219
     66 N                    -0.570375
     67 C                     0.230116
     68 C                     0.244667
     69 S                     0.617439
     70 N                    -0.581870
     71 C                    -0.228048
     72 S                     0.343430
     73 C                    -0.117116
     74 C                    -0.226607
     75 S                     0.347090
     76 C                     0.162347
     77 C                     0.072130
     78 C                    -0.311454
     79 C                    -0.106479
     80 N                    -0.416717
     81 S                     0.273933
     82 C                     0.121252
     83 C                    -0.327178
     84 C                    -0.232522
     85 H                     0.082566
     86 H                     0.125931
     87 H                     0.093191
     88 H                     0.122829
     89 H                     0.124210
     90 H                     0.099894
     91 H                     0.115375
     92 H                     0.137803
     93 H                     0.116453
     94 C                    -0.192050
     95 H                     0.104687
     96 H                     0.101905
     97 H                     0.092850
     98 C                    -0.174291
     99 H                     0.094413
    100 C                    -0.170673
    101 H                     0.091889
    102 H                     0.096174
    103 H                     0.091479
    104 C                    -0.179052
    105 H                     0.097845
    106 C                    -0.321012
    107 H                     0.096242
    108 H                     0.099820
    109 H                     0.095132
    110 H                     0.099891
  ----------------------------------------
  Sum of atomic charges =     0.000000

                    Cartesian Multipole Moments
 -----------------------------------------------------------------
    Charge (ESU x 10^10)
                 0.0000
    Dipole Moment (Debye)
         X      -0.9571      Y       0.1715      Z      -2.7688
       Tot       2.9346
    Quadrupole Moments (Debye-Ang)
        XX    -411.6967     XY       8.1183     YY    -394.9563
        XZ      11.4170     YZ      -7.8187     ZZ    -447.3193

 Total job time:  119.74s(wall), 1266.54s(cpu)
        *  Thank you very much for using Q-Chem.  Have a nice day.  *
