 Q-Chem 4.4, Q-Chem, Inc., Pleasanton, CA (2016)
 Q-Chem 4.4.2 for Intel X86 Linux

User input:
--------------------------------------------------------------
$comment
SP
$end

$rem
MEM_STATIC 5000
MEM_TOTAL 20000
JOBTYPE SP
EXCHANGE B3LYP
BASIS 6-31g(d,p)
$end

$molecule
0 1
C          -6.858000    -19.016000     -6.184000
C          -6.642000    -17.786000     -5.521000
N          -7.833000    -19.851000     -5.773000
C          -7.563000    -17.423000     -4.450000
C          -8.687000    -19.511000     -4.723000
C          -8.585000    -18.248000     -3.992000
C          -9.476000    -17.936000     -2.799000
C          -9.106000    -17.140000     -1.685000
C         -10.828000    -18.382000     -2.676000
N          -9.733000    -17.145000     -0.523000
N         -11.466000    -18.870000     -3.716000
C         -11.589000    -18.219000     -1.525000
C         -10.941000    -17.734000     -0.364000
S         -13.023000    -19.099000     -3.260000
N         -12.846000    -18.725000     -1.662000
C         -11.633000    -17.569000      0.918000
S         -13.250000    -18.144000      1.375000
C         -11.160000    -16.893000      2.046000
C         -13.229000    -17.525000      2.981000
S          -9.700000    -15.867000      2.181000
C         -12.072000    -16.814000      3.133000
C         -14.300000    -17.554000      4.018000
C         -10.347000    -15.344000      3.802000
C         -11.577000    -15.964000      4.120000
N         -15.489000    -17.843000      3.554000
S         -14.005000    -17.458000      5.726000
C         -16.461000    -17.935000      4.556000
C         -15.837000    -17.682000      5.777000
C          -5.973000    -19.290000     -7.416000
H          -5.901000    -17.058000     -5.835000
H          -7.583000    -16.453000     -3.961000
H          -9.403000    -20.304000     -4.514000
H          -8.145000    -16.628000     -1.700000
H          -9.881000    -14.514000      4.316000
H         -12.286000    -15.601000      4.856000
H         -17.513000    -18.184000      4.508000
H         -16.310000    -17.640000      6.749000
H          -6.687000    -19.333000     -8.247000
C          -4.912000    -20.541000     -7.319000
H          -5.408000    -18.371000     -7.613000
H          -4.140000    -20.298000     -6.578000
H          -4.224000    -20.509000     -8.173000
C          -5.495000    -21.927000     -7.036000
H          -4.769000    -22.711000     -6.790000
C          -6.184000    -22.410000     -8.358000
H          -6.277000    -21.861000     -6.270000
H          -5.382000    -22.345000     -9.104000
H          -6.925000    -21.684000     -8.714000
C          -6.898000    -23.822000     -8.254000
H          -6.999000    -24.234000     -9.266000
C          -8.285000    -23.597000     -7.673000
H          -6.386000    -24.615000     -7.694000
H          -8.261000    -23.681000     -6.579000
H          -8.931000    -24.450000     -7.915000
H          -8.845000    -22.720000     -8.018000
C         -10.183000    -19.819000     10.464000
C         -11.315000    -19.989000      9.639000
N          -8.970000    -20.023000      9.973000
C         -11.152000    -20.046000      8.284000
C          -8.779000    -20.151000      8.670000
C          -9.865000    -20.040000      7.743000
C          -9.650000    -19.950000      6.260000
C          -8.547000    -19.296000      5.665000
C         -10.472000    -20.529000      5.253000
N          -8.205000    -19.263000      4.381000
N         -11.654000    -21.210000      5.547000
C         -10.190000    -20.520000      3.913000
C          -9.011000    -19.888000      3.468000
S         -12.218000    -21.663000      4.084000
N         -11.020000    -21.160000      3.082000
C          -8.428000    -20.075000      2.148000
S          -8.883000    -21.252000      0.956000
C          -7.572000    -19.122000      1.603000
C          -7.772000    -20.626000     -0.225000
S          -6.738000    -17.720000      2.242000
C          -7.160000    -19.486000      0.293000
C          -7.680000    -21.128000     -1.510000
C          -5.925000    -17.532000      0.681000
C          -6.295000    -18.493000     -0.222000
N          -8.635000    -21.853000     -1.996000
S          -6.053000    -21.334000     -2.220000
C          -8.093000    -22.506000     -3.109000
C          -6.734000    -22.401000     -3.268000
C         -10.281000    -19.496000     11.952000
H         -12.297000    -19.938000     10.100000
H         -12.059000    -19.920000      7.699000
H          -7.772000    -20.196000      8.260000
H          -7.885000    -18.785000      6.362000
H          -5.284000    -16.687000      0.468000
H          -5.902000    -18.695000     -1.212000
H          -8.760000    -23.199000     -3.605000
H          -6.150000    -22.952000     -3.994000
H          -9.363000    -19.766000     12.488000
C         -11.500000    -20.122000     12.679000
H         -10.333000    -18.403000     12.031000
H         -11.505000    -21.218000     12.715000
H         -12.383000    -19.876000     12.077000
C         -11.678000    -19.637000     14.062000
H         -10.890000    -20.004000     14.731000
C         -13.039000    -20.289000     14.476000
H         -11.678000    -18.546000     14.181000
H         -13.122000    -21.340000     14.173000
H         -13.828000    -19.720000     13.969000
C         -13.207000    -20.092000     15.989000
H         -12.395000    -20.628000     16.497000
C         -14.536000    -20.496000     16.607000
H         -12.991000    -19.048000     16.247000
H         -14.435000    -20.459000     17.699000
H         -14.870000    -21.489000     16.282000
H         -15.384000    -19.853000     16.342000
$end

--------------------------------------------------------------

             Standard Nuclear Orientation (Angstroms)
    I     Atom           X                Y                Z
 ----------------------------------------------------------------
    1      C      -8.5607164697    -0.2323147654    -1.0543099908
    2      C      -7.9207487895    -0.0332349488    -2.2992732814
    3      N      -7.9351620020     0.0928084530     0.0944926471
    4      C      -6.6137043889     0.6137953274    -2.2931286490
    5      C      -6.6685483696     0.6785569145     0.0923371492
    6      C      -5.9292394790     0.9701428654    -1.1358053496
    7      C      -4.5167558110     1.5346034007    -1.1084522570
    8      C      -3.5126457198     1.2792937408    -2.0770037024
    9      C      -4.0382879695     2.4364228009    -0.1085826185
   10      N      -2.2222717452     1.4839281696    -1.8860645594
   11      N      -4.8784863033     3.0388776722     0.7025295118
   12      C      -2.7111340493     2.8343695127    -0.0046986124
   13      C      -1.7581446159     2.1885530897    -0.8279739538
   14      S      -4.0111280305     4.1210670573     1.5749868238
   15      N      -2.5118187509     3.7005379831     1.0272314204
   16      C      -0.3251593835     2.4928779977    -0.7683696407
   17      S       0.5414067757     3.4664424494     0.4380292777
   18      C       0.6564834249     2.0916373242    -1.6785741884
   19      C       2.1061370521     3.2879015104    -0.2566507171
   20      S       0.4257512972     1.2936528430    -3.2636560326
   21      C       1.9608163757     2.5961478962    -1.4261090697
   22      C       3.4020193715     3.8908179633     0.1681218867
   23      C       2.1898485945     1.6305150602    -3.5706797653
   24      C       2.8107233344     2.2953806677    -2.4886020042
   25      N       3.2808294285     4.8899664304     1.0045149392
   26      S       4.9578641820     3.2124900690    -0.1961900589
   27      C       4.5115915721     5.3901012865     1.4430826894
   28      C       5.5162083462     4.6413054761     0.8313017060
   29      C     -10.0067473869    -0.7634404978    -1.1093103796
   30      H      -8.3926550054    -0.2369593851    -3.2550252772
   31      H      -6.0872071077     0.9407921750    -3.1854820962
   32      H      -6.3077900406     0.8604295579     1.1032583972
   33      H      -3.7728081017     0.7077915027    -2.9667175479
   34      H       2.5942438879     1.4761594343    -4.5620882520
   35      H       3.7367832700     2.8563938039    -2.5504344932
   36      H       4.7516936262     6.1766973267     2.1463796915
   37      H       6.5834455317     4.7902608589     0.9266646111
   38      H     -10.6010538126     0.0496677010    -0.6758811126
   39      C     -10.2841779476    -2.2604210739    -0.4910770590
   40      H     -10.3061588836    -0.7633300202    -2.1642737645
   41      H      -9.7816350203    -3.0056258434    -1.1205486293
   42      H     -11.2956845677    -2.5895098858    -0.7598500325
   43      C      -9.9227581838    -2.4837574401     0.9787768868
   44      H      -9.9367619668    -3.5247934685     1.3227185701
   45      C     -11.0180465122    -1.7577913198     1.8325981033
   46      H      -8.9633662861    -2.0059252380     1.2108966260
   47      H     -11.9568615839    -2.1978538694     1.4735490626
   48      H     -11.1082032765    -0.7002518929     1.5562376173
   49      C     -10.7920459410    -1.8329093359     3.4002833477
   50      H     -11.7542401411    -1.6564277353     3.8974006035
   51      C      -9.8287550432    -0.7202233470     3.7823246235
   52      H     -10.4450835666    -2.7845539707     3.8228736927
   53      H      -8.7931570954    -1.0823612635     3.7529814822
   54      H      -9.9228249348    -0.4999550433     4.8528953731
   55      H      -9.9517102563     0.2509154353     3.2888416136
   56      C       8.2753480875    -2.4109150672    -0.2437737784
   57      C       7.7989109154    -1.3051068597     0.4918516897
   58      N       7.4488872906    -3.3920785377    -0.5729345222
   59      C       6.4525933165    -1.0931910650     0.5833045122
   60      C       6.1404966652    -3.2508280862    -0.4356891898
   61      C       5.5686385834    -2.0264467386     0.0385624838
   62      C       4.0930132062    -1.7553817642    -0.0130856127
   63      C       3.2450562647    -2.2206674213    -1.0440212473
   64      C       3.3318440281    -1.0486247238     0.9595859496
   65      N       1.9206115506    -2.1381262003    -1.1197981966
   66      N       3.9127590851    -0.4456365668     2.0759478886
   67      C       1.9695855101    -0.9109567454     0.9371302612
   68      C       1.2423436341    -1.4920656193    -0.1216056504
   69      S       2.6485624431     0.2277259256     2.8582929558
   70      N       1.3758134580    -0.2742695218     1.9525735778
   71      C      -0.1971651769    -1.7039878780    -0.1089037168
   72      S      -1.2724595764    -1.5303879062     1.2426964476
   73      C      -0.9106498983    -1.8373302037    -1.2968133836
   74      C      -2.6850467609    -1.8528319057     0.2827040969
   75      S      -0.4602858192    -2.0740477733    -2.9733031654
   76      C      -2.3015256612    -1.9890580896    -1.0502707689
   77      C      -3.9683773988    -1.8048755671     0.7950083654
   78      C      -2.1755280084    -2.2409341604    -3.3771932078
   79      C      -2.9866845379    -2.1199328905    -2.2802821916
   80      N      -4.2009984401    -1.1974107263     1.9133642650
   81      S      -5.1224414219    -3.0755852664     0.2979187449
   82      C      -5.4560921557    -1.6462365303     2.3402567137
   83      C      -5.9895712480    -2.7006618064     1.6425645213
   84      C       9.7449224933    -2.5923316242    -0.6118988910
   85      H       8.5225452519    -0.5808475415     0.8541330543
   86      H       6.1578839381    -0.1077741918     0.9338041105
   87      H       5.4588785283    -4.0075648273    -0.8189909250
   88      H       3.7514058475    -2.7377158727    -1.8573139369
   89      H      -2.5159245960    -2.3345190185    -4.3997620502
   90      H      -4.0570760198    -2.2699079208    -2.1958868960
   91      H      -5.7785601659    -1.2643160655     3.3001031290
   92      H      -6.8806971764    -3.2453503996     1.9270674494
   93      H       9.9817646594    -3.6396099427    -0.8355815056
   94      C      10.7537688149    -2.0528923343     0.4357653453
   95      H       9.8948411980    -2.0681529821    -1.5639257462
   96      H      10.7299796691    -2.5622332985     1.4066118104
   97      H      10.4424876534    -1.0278777111     0.6704098867
   98      C      12.1544559229    -2.0632599173    -0.0306745102
   99      H      12.5503264820    -3.0822821948    -0.1205304967
  100      C      12.9027718498    -1.3291713155     1.1312025050
  101      H      12.3277385772    -1.5949680223    -1.0079758060
  102      H      12.5792080786    -1.6580369386     2.1264175008
  103      H      12.6732241158    -0.2614035915     1.0286797004
  104      C      14.4093479431    -1.5163446405     0.9044942752
  105      H      14.6350991548    -2.5886348936     0.9672159096
  106      C      15.3572888212    -0.7518646617     1.8146368210
  107      H      14.6515870082    -1.2904477831    -0.1411858122
  108      H      16.3756313769    -1.1228262066     1.6431726221
  109      H      15.0873091392    -0.8361834517     2.8744628978
  110      H      15.3801766807     0.3325992704     1.6527970058
 ----------------------------------------------------------------

   10   -5663.4815381157      2.98E-06 Convergence criterion met
 Total energy in the final basis set = -5663.4815381157

                    Orbital Energies (a.u.)
 --------------------------------------------------------------

 Alpha MOs
 -- Occupied --
-88.982 -88.981 -88.936 -88.921 -88.919 -88.919 -88.909 -88.907
-14.382 -14.380 -14.378 -14.371 -14.348 -14.345 -14.344 -14.342
-14.332 -14.323 -10.275 -10.262 -10.257 -10.253 -10.249 -10.248
-10.246 -10.244 -10.242 -10.239 -10.239 -10.237 -10.236 -10.235
-10.235 -10.230 -10.230 -10.229 -10.228 -10.228 -10.226 -10.225
-10.225 -10.224 -10.223 -10.222 -10.222 -10.222 -10.218 -10.214
-10.212 -10.206 -10.201 -10.200 -10.200 -10.199 -10.199 -10.195
-10.191 -10.191 -10.184 -10.180 -10.180 -10.178 -10.177 -10.177
-10.175 -10.172 -10.171 -10.164  -8.037  -8.036  -7.996  -7.985
 -7.978  -7.978  -7.966  -7.966  -6.002  -6.001  -5.997  -5.996
 -5.995  -5.995  -5.960  -5.957  -5.953  -5.948  -5.945  -5.942
 -5.942  -5.941  -5.939  -5.938  -5.935  -5.934  -5.931  -5.930
 -5.928  -5.926  -5.923  -5.922  -1.032  -1.032  -0.977  -0.967
 -0.959  -0.951  -0.944  -0.922  -0.908  -0.908  -0.897  -0.896
 -0.844  -0.833  -0.826  -0.824  -0.823  -0.816  -0.807  -0.803
 -0.800  -0.797  -0.795  -0.790  -0.784  -0.774  -0.766  -0.762
 -0.749  -0.747  -0.740  -0.737  -0.720  -0.713  -0.710  -0.704
 -0.691  -0.690  -0.673  -0.668  -0.653  -0.651  -0.639  -0.638
 -0.636  -0.633  -0.624  -0.622  -0.606  -0.604  -0.599  -0.597
 -0.594  -0.592  -0.586  -0.582  -0.578  -0.574  -0.574  -0.561
 -0.543  -0.542  -0.538  -0.534  -0.521  -0.517  -0.514  -0.513
 -0.505  -0.500  -0.494  -0.493  -0.491  -0.481  -0.477  -0.472
 -0.470  -0.469  -0.466  -0.464  -0.461  -0.456  -0.452  -0.444
 -0.441  -0.438  -0.436  -0.436  -0.434  -0.432  -0.430  -0.430
 -0.429  -0.428  -0.425  -0.421  -0.414  -0.412  -0.412  -0.411
 -0.409  -0.404  -0.403  -0.398  -0.396  -0.395  -0.395  -0.393
 -0.392  -0.389  -0.386  -0.384  -0.382  -0.381  -0.377  -0.376
 -0.375  -0.375  -0.372  -0.370  -0.370  -0.359  -0.356  -0.354
 -0.351  -0.350  -0.350  -0.347  -0.345  -0.342  -0.340  -0.339
 -0.338  -0.336  -0.333  -0.330  -0.327  -0.325  -0.324  -0.323
 -0.318  -0.313  -0.309  -0.305  -0.302  -0.298  -0.296  -0.294
 -0.293  -0.292  -0.291  -0.287  -0.286  -0.284  -0.283  -0.278
 -0.270  -0.269  -0.263  -0.260  -0.257  -0.247  -0.244  -0.244
 -0.240  -0.238  -0.227  -0.224  -0.195  -0.186

          Ground-State Mulliken Net Atomic Charges

     Atom                 Charge (a.u.)
  ----------------------------------------
      1 C                     0.295902
      2 C                    -0.126536
      3 N                    -0.502419
      4 C                    -0.105323
      5 C                     0.084222
      6 C                     0.059090
      7 C                     0.047085
      8 C                     0.064081
      9 C                     0.218683
     10 N                    -0.516531
     11 N                    -0.551560
     12 C                     0.215258
     13 C                     0.319337
     14 S                     0.597436
     15 N                    -0.565066
     16 C                    -0.228865
     17 S                     0.356636
     18 C                    -0.134779
     19 C                    -0.213716
     20 S                     0.302313
     21 C                     0.144557
     22 C                     0.067560
     23 C                    -0.315366
     24 C                    -0.095465
     25 N                    -0.438698
     26 S                     0.261805
     27 C                     0.135644
     28 C                    -0.300907
     29 C                    -0.232859
     30 H                     0.093790
     31 H                     0.094012
     32 H                     0.129247
     33 H                     0.103454
     34 H                     0.128669
     35 H                     0.107288
     36 H                     0.136197
     37 H                     0.119235
     38 H                     0.123551
     39 C                    -0.183527
     40 H                     0.096588
     41 H                     0.086078
     42 H                     0.093855
     43 C                    -0.185192
     44 H                     0.084754
     45 C                    -0.168371
     46 H                     0.132326
     47 H                     0.076715
     48 H                     0.098328
     49 C                    -0.184385
     50 H                     0.091758
     51 C                    -0.311985
     52 H                     0.086968
     53 H                     0.100396
     54 H                     0.088567
     55 H                     0.115066
     56 C                     0.277127
     57 C                    -0.122463
     58 N                    -0.480447
     59 C                    -0.055331
     60 C                     0.080311
     61 C                     0.016486
     62 C                     0.044707
     63 C                     0.052929
     64 C                     0.205069
     65 N                    -0.511193
     66 N                    -0.547985
     67 C                     0.209852
     68 C                     0.280689
     69 S                     0.606360
     70 N                    -0.563147
     71 C                    -0.212142
     72 S                     0.361726
     73 C                    -0.116016
     74 C                    -0.224624
     75 S                     0.306301
     76 C                     0.134364
     77 C                     0.063828
     78 C                    -0.319196
     79 C                    -0.063988
     80 N                    -0.424139
     81 S                     0.280604
     82 C                     0.090257
     83 C                    -0.278226
     84 C                    -0.231845
     85 H                     0.083057
     86 H                     0.118830
     87 H                     0.103441
     88 H                     0.101561
     89 H                     0.126266
     90 H                     0.095888
     91 H                     0.110947
     92 H                     0.144175
     93 H                     0.118377
     94 C                    -0.181683
     95 H                     0.111241
     96 H                     0.104875
     97 H                     0.091681
     98 C                    -0.172555
     99 H                     0.096893
    100 C                    -0.176240
    101 H                     0.094371
    102 H                     0.094638
    103 H                     0.093915
    104 C                    -0.175580
    105 H                     0.091883
    106 C                    -0.320284
    107 H                     0.090961
    108 H                     0.100201
    109 H                     0.099275
    110 H                     0.099098
  ----------------------------------------
  Sum of atomic charges =     0.000000

                    Cartesian Multipole Moments
 -----------------------------------------------------------------
    Charge (ESU x 10^10)
                 0.0000
    Dipole Moment (Debye)
         X       0.6105      Y       1.4803      Z      -1.5809
       Tot       2.2501
    Quadrupole Moments (Debye-Ang)
        XX    -393.3357     XY      32.5733     YY    -447.9252
        XZ      14.1107     YZ       3.8914     ZZ    -428.8461

 Total job time:  113.86s(wall), 1214.96s(cpu)
        *  Thank you very much for using Q-Chem.  Have a nice day.  *
