 Q-Chem 4.4, Q-Chem, Inc., Pleasanton, CA (2016)
 Q-Chem 4.4.2 for Intel X86 Linux

User input:
--------------------------------------------------------------
$comment
SP
$end

$rem
MEM_STATIC 5000
MEM_TOTAL 20000
JOBTYPE SP
EXCHANGE B3LYP
BASIS 6-31g(d,p)
$end

$molecule
0 1
C          -3.582000    -19.577000      2.377000
C          -3.451000    -19.835000      1.002000
N          -3.181000    -18.448000      2.965000
C          -2.814000    -18.889000      0.213000
C          -2.614000    -17.444000      2.229000
C          -2.463000    -17.605000      0.801000
C          -2.002000    -16.512000     -0.040000
C          -0.799000    -16.606000     -0.867000
C          -2.452000    -15.191000      0.088000
N          -0.222000    -15.589000     -1.498000
N          -3.494000    -14.777000      0.897000
C          -1.830000    -14.134000     -0.622000
C          -0.648000    -14.340000     -1.380000
S          -3.637000    -13.175000      0.680000
N          -2.404000    -12.925000     -0.381000
C           0.217000    -13.229000     -1.877000
S           0.003000    -11.532000     -1.528000
C           1.399000    -13.433000     -2.545000
C           1.650000    -11.113000     -2.051000
S           2.244000    -14.995000     -2.967000
C           2.189000    -12.255000     -2.624000
C           2.412000     -9.976000     -1.715000
C           3.664000    -13.967000     -3.299000
C           3.528000    -12.614000     -3.039000
N           3.399000     -9.670000     -2.475000
S           1.951000     -8.850000     -0.500000
C           3.896000     -8.448000     -2.068000
C           3.182000     -7.796000     -1.081000
C          -4.059000    -20.703000      3.370000
H          -3.789000    -20.825000      0.708000
H          -2.647000    -19.141000     -0.830000
H          -2.321000    -16.546000      2.772000
H          -0.256000    -17.548000     -0.931000
H           4.591000    -14.448000     -3.580000
H           4.313000    -11.879000     -3.179000
H           4.728000     -7.988000     -2.586000
H           3.333000     -6.782000     -0.735000
H          -3.255000    -21.113000      3.992000
C          -5.167000    -21.723000      2.866000
H          -4.518000    -20.084000      4.151000
H          -4.727000    -22.526000      2.262000
H          -5.990000    -21.241000      2.325000
C          -5.974000    -22.340000      4.028000
H          -5.247000    -22.850000      4.672000
C          -7.036000    -23.307000      3.509000
H          -6.429000    -21.578000      4.673000
H          -6.759000    -23.889000      2.621000
H          -7.945000    -22.748000      3.255000
C          -7.669000    -24.201000      4.611000
H          -6.954000    -24.964000      4.943000
C          -8.839000    -25.113000      4.069000
H          -8.024000    -23.655000      5.494000
H          -8.539000    -25.497000      3.086000
H          -9.815000    -24.615000      4.005000
H          -8.919000    -26.068000      4.603000
C         -10.183000    -19.819000     10.464000
C         -11.315000    -19.989000      9.639000
N          -8.970000    -20.023000      9.973000
C         -11.152000    -20.046000      8.284000
C          -8.779000    -20.151000      8.670000
C          -9.865000    -20.040000      7.743000
C          -9.650000    -19.950000      6.260000
C          -8.547000    -19.296000      5.665000
C         -10.472000    -20.529000      5.253000
N          -8.205000    -19.263000      4.381000
N         -11.654000    -21.210000      5.547000
C         -10.190000    -20.520000      3.913000
C          -9.011000    -19.888000      3.468000
S         -12.218000    -21.663000      4.084000
N         -11.020000    -21.160000      3.082000
C          -8.428000    -20.075000      2.148000
S          -8.883000    -21.252000      0.956000
C          -7.572000    -19.122000      1.603000
C          -7.772000    -20.626000     -0.225000
S          -6.738000    -17.720000      2.242000
C          -7.160000    -19.486000      0.293000
C          -7.680000    -21.128000     -1.510000
C          -5.925000    -17.532000      0.681000
C          -6.295000    -18.493000     -0.222000
N          -8.635000    -21.853000     -1.996000
S          -6.053000    -21.334000     -2.220000
C          -8.093000    -22.506000     -3.109000
C          -6.734000    -22.401000     -3.268000
C         -10.281000    -19.496000     11.952000
H         -12.297000    -19.938000     10.100000
H         -12.059000    -19.920000      7.699000
H          -7.772000    -20.196000      8.260000
H          -7.885000    -18.785000      6.362000
H          -5.284000    -16.687000      0.468000
H          -5.902000    -18.695000     -1.212000
H          -8.760000    -23.199000     -3.605000
H          -6.150000    -22.952000     -3.994000
H          -9.363000    -19.766000     12.488000
C         -11.500000    -20.122000     12.679000
H         -10.333000    -18.403000     12.031000
H         -11.505000    -21.218000     12.715000
H         -12.383000    -19.876000     12.077000
C         -11.678000    -19.637000     14.062000
H         -10.890000    -20.004000     14.731000
C         -13.039000    -20.289000     14.476000
H         -11.678000    -18.546000     14.181000
H         -13.122000    -21.340000     14.173000
H         -13.828000    -19.720000     13.969000
C         -13.207000    -20.092000     15.989000
H         -12.395000    -20.628000     16.497000
C         -14.536000    -20.496000     16.607000
H         -12.991000    -19.048000     16.247000
H         -14.435000    -20.459000     17.699000
H         -14.870000    -21.489000     16.282000
H         -15.384000    -19.853000     16.342000
$end

--------------------------------------------------------------

             Standard Nuclear Orientation (Angstroms)
    I     Atom           X                Y                Z
 ----------------------------------------------------------------
    1      C      -0.4353496332    -0.9531821414    -2.2716541973
    2      C      -1.2090247645    -2.0998610049    -2.0248660793
    3      N      -0.8813745136     0.2948482214    -2.1145936370
    4      C      -2.5343724632    -1.9316108406    -1.6529099530
    5      C      -2.1562294999     0.5278035097    -1.6767836352
    6      C      -3.0194017275    -0.5893484024    -1.3688691816
    7      C      -4.3270630866    -0.3921280053    -0.7642396382
    8      C      -5.5657399793    -0.8431323157    -1.3984704066
    9      C      -4.5685455166     0.4996954229     0.2894501686
   10      N      -6.7916494310    -0.5235444045    -0.9979849720
   11      N      -3.5960277638     1.1787128045     0.9999328327
   12      C      -5.8892486692     0.7964460552     0.7088726821
   13      C      -7.0213953461     0.3173831166    -0.0002581964
   14      S      -4.3741621678     2.0609378763     2.1180239613
   15      N      -5.9301330823     1.6740135175     1.7468716290
   16      C      -8.4032323500     0.8474667212     0.1974609651
   17      S      -8.8463667593     2.1912522197     1.2198495552
   18      C      -9.4834915999     0.4350728123    -0.5427654982
   19      C     -10.4395583847     2.3801746407     0.4532024632
   20      S      -9.5641113855    -0.7608309151    -1.9194527266
   21      C     -10.6015043241     1.2999517606    -0.4011429248
   22      C     -11.2763879959     3.5141544043     0.4424740988
   23      C     -11.1782198765    -0.0683830875    -2.2334237207
   24      C     -11.5651773132     0.9958479778    -1.4369432239
   25      N     -12.5187782115     3.3396538938     0.1752267904
   26      S     -10.7819074773     5.0635674197     1.0005335260
   27      C     -13.1779138339     4.5350105221     0.3816360018
   28      C     -12.4290187185     5.5592384654     0.9286115281
   29      C       0.9874744309    -1.0648066288    -2.9384117668
   30      H      -0.6968902280    -3.0309507803    -2.2519564721
   31      H      -3.1398522807    -2.8269303816    -1.5478427842
   32      H      -2.4496031027     1.5705818906    -1.5599625003
   33      H      -5.5246953188    -1.4201666909    -2.3213223263
   34      H     -11.7334942526    -0.4288692056    -3.0886261096
   35      H     -12.5095144904     1.5210701428    -1.5286981857
   36      H     -14.2472501048     4.6112746345     0.2304681322
   37      H     -12.7979029433     6.5110985180     1.2872197668
   38      H       1.0105978950    -0.7441851348    -3.9862987659
   39      C       1.9005132381    -2.3039160509    -2.5471982998
   40      H       1.4618745121    -0.1671583420    -2.5225089943
   41      H       1.6282071151    -3.1987263232    -3.1202506115
   42      H       1.9040080416    -2.5212153954    -1.4724412197
   43      C       3.4042925229    -2.0126045114    -2.7368491617
   44      H       3.5378832549    -1.7560493354    -3.7950069751
   45      C       4.2533847547    -3.2192695065    -2.3427730632
   46      H       3.7296793605    -1.1179257001    -2.1915352790
   47      H       3.8195600860    -4.2020580670    -2.5662004614
   48      H       4.4464586448    -3.1921685395    -1.2632981860
   49      C       5.7355724691    -3.1250111637    -2.7994610794
   50      H       5.8117512916    -3.2652650966    -3.8848843246
   51      C       6.6171295047    -4.3308337370    -2.2863752047
   52      H       6.2348974555    -2.1835219981    -2.5384961217
   53      H       6.0201685276    -5.2469175604    -2.3767799621
   54      H       6.9944891423    -4.2181449482    -1.2618865806
   55      H       7.4279578859    -4.5920925564    -2.9776654226
   56      C       8.7969585737     3.5944470073    -0.5067495828
   57      C       9.1419446803     2.6831157762     0.5137448921
   58      N       7.8000351446     3.3160140592    -1.3329969852
   59      C       8.2652638018     1.6902104492     0.8475302258
   60      C       6.9683609480     2.3185937544    -1.0797288147
   61      C       7.0922371393     1.5281116411     0.1080585054
   62      C       6.0375726964     0.5491579526     0.5357810659
   63      C       4.6532058028     0.7462151734     0.3283039448
   64      C       6.2606882417    -0.7115933684     1.1568282138
   65      N       3.6577072020    -0.1037890244     0.5589213760
   66      N       7.5333165227    -1.1590375953     1.5139443324
   67      C       5.2832487308    -1.6287752215     1.4371752327
   68      C       3.9467944499    -1.3240579795     1.1077403265
   69      S       7.2592373228    -2.6216413190     2.1842762947
   70      N       5.6433417340    -2.8037111428     1.9653036355
   71      C       2.8728699289    -2.3039994371     1.0472517915
   72      S       3.0225434314    -4.0319499955     1.1179816319
   73      C       1.5423558701    -1.9153814348     1.1763966234
   74      C       1.3020014087    -4.2775299067     1.0983945105
   75      S       0.7123171297    -0.3725817161     1.1594934456
   76      C       0.6699725320    -3.0358439278     1.1333720573
   77      C       0.7205368014    -5.5279406610     1.1987182666
   78      C      -0.8299518443    -1.2376920717     1.2371109978
   79      C      -0.6675137198    -2.5972703845     1.2685858632
   80      N       1.4054787722    -6.5309293300     1.6444920055
   81      S      -0.6782875887    -5.8937792942     0.1484242981
   82      C       0.6970670748    -7.6775912054     1.2673164355
   83      C      -0.3455536489    -7.4838673323     0.3963399217
   84      C       9.5848353237     4.8721851052    -0.7800856033
   85      H      10.0394089822     2.8787453531     1.0931695165
   86      H       8.4642668901     1.1895166587     1.7911686625
   87      H       6.0814702294     2.1683816577    -1.6921299735
   88      H       4.3858191041     1.7085239138    -0.1048706637
   89      H      -1.7729105160    -0.7177057603     1.3406396389
   90      H      -1.4149010359    -3.3810692847     1.2193468152
   91      H       1.1704257290    -8.6158427563     1.5257146006
   92      H      -0.9021438392    -8.2743660757    -0.0905400395
   93      H       9.4168014766     5.2435165385    -1.7983181862
   94      C      11.1104974474     4.7691418009    -0.5191197782
   95      H       9.1569958742     5.6469671917    -0.1318108746
   96      H      11.6449898927     4.0658155390    -1.1688789608
   97      H      11.2277767454     4.3401048447     0.4832682986
   98      C      11.8143683246     6.0642520903    -0.6019033905
   99      H      11.8556646957     6.4447621453    -1.6298628779
  100      C      13.2625264778     5.6916786014    -0.1405489076
  101      H      11.3764802946     6.8759030378    -0.0069926303
  102      H      13.6288096388     4.7584166844    -0.5856981413
  103      H      13.2229594218     5.5628858654     0.9481098448
  104      C      14.1700928329     6.8914773884    -0.4455213355
  105      H      14.1796500397     7.0469842573    -1.5319974160
  106      C      15.6013563923     6.8375043286     0.0643340678
  107      H      13.6925352820     7.8108411139    -0.0851532933
  108      H      16.1580776268     7.6726753919    -0.3790447342
  109      H      16.0940438152     5.8826189412    -0.1563081768
  110      H      15.7084658438     6.9232032936     1.1524339037
 ----------------------------------------------------------------

   10   -5663.5141789640      3.20E-06 Convergence criterion met
 Total energy in the final basis set = -5663.5141789640

                    Orbital Energies (a.u.)
 --------------------------------------------------------------

 Alpha MOs
 -- Occupied --
-88.993 -88.986 -88.927 -88.926 -88.924 -88.922 -88.911 -88.907
-14.388 -14.387 -14.385 -14.383 -14.351 -14.348 -14.347 -14.341
-14.326 -14.324 -10.267 -10.263 -10.262 -10.260 -10.257 -10.257
-10.254 -10.249 -10.247 -10.242 -10.237 -10.234 -10.233 -10.233
-10.232 -10.231 -10.230 -10.229 -10.229 -10.228 -10.228 -10.228
-10.227 -10.226 -10.224 -10.222 -10.222 -10.221 -10.218 -10.216
-10.214 -10.210 -10.202 -10.202 -10.196 -10.195 -10.193 -10.192
-10.184 -10.182 -10.180 -10.179 -10.179 -10.178 -10.176 -10.176
-10.172 -10.171 -10.171 -10.169  -8.048  -8.042  -7.991  -7.988
 -7.983  -7.981  -7.969  -7.966  -6.013  -6.008  -6.007  -6.006
 -6.001  -6.000  -5.954  -5.952  -5.951  -5.948  -5.948  -5.947
 -5.945  -5.945  -5.944  -5.941  -5.940  -5.938  -5.934  -5.931
 -5.931  -5.927  -5.925  -5.923  -1.037  -1.033  -0.985  -0.982
 -0.967  -0.956  -0.946  -0.930  -0.911  -0.908  -0.902  -0.898
 -0.846  -0.836  -0.834  -0.830  -0.829  -0.817  -0.816  -0.808
 -0.806  -0.800  -0.796  -0.795  -0.785  -0.779  -0.768  -0.762
 -0.750  -0.745  -0.739  -0.735  -0.722  -0.721  -0.711  -0.705
 -0.693  -0.690  -0.677  -0.672  -0.655  -0.650  -0.644  -0.642
 -0.637  -0.633  -0.627  -0.624  -0.610  -0.606  -0.601  -0.596
 -0.595  -0.588  -0.586  -0.579  -0.577  -0.574  -0.573  -0.567
 -0.551  -0.546  -0.540  -0.538  -0.526  -0.522  -0.516  -0.512
 -0.508  -0.503  -0.498  -0.497  -0.492  -0.485  -0.479  -0.478
 -0.476  -0.470  -0.467  -0.466  -0.463  -0.462  -0.449  -0.445
 -0.444  -0.443  -0.442  -0.438  -0.435  -0.435  -0.432  -0.431
 -0.430  -0.427  -0.426  -0.421  -0.418  -0.415  -0.414  -0.413
 -0.409  -0.407  -0.404  -0.401  -0.399  -0.399  -0.397  -0.396
 -0.393  -0.391  -0.389  -0.387  -0.386  -0.382  -0.381  -0.380
 -0.379  -0.376  -0.374  -0.371  -0.367  -0.357  -0.357  -0.355
 -0.354  -0.350  -0.349  -0.348  -0.347  -0.345  -0.344  -0.342
 -0.339  -0.336  -0.332  -0.330  -0.329  -0.324  -0.323  -0.322
 -0.317  -0.317  -0.310  -0.308  -0.305  -0.304  -0.302  -0.302
 -0.297  -0.294  -0.294  -0.291  -0.289  -0.289  -0.286  -0.282
 -0.274  -0.272  -0.267  -0.265  -0.251  -0.249  -0.248  -0.245
 -0.241  -0.239  -0.230  -0.226  -0.195  -0.191

          Ground-State Mulliken Net Atomic Charges

     Atom                 Charge (a.u.)
  ----------------------------------------
      1 C                     0.282529
      2 C                    -0.083383
      3 N                    -0.485074
      4 C                    -0.086519
      5 C                     0.097213
      6 C                    -0.006714
      7 C                     0.002267
      8 C                     0.066804
      9 C                     0.224530
     10 N                    -0.516926
     11 N                    -0.561859
     12 C                     0.190450
     13 C                     0.342725
     14 S                     0.617348
     15 N                    -0.570784
     16 C                    -0.216104
     17 S                     0.317904
     18 C                    -0.116777
     19 C                    -0.224053
     20 S                     0.283453
     21 C                     0.137729
     22 C                     0.066523
     23 C                    -0.303077
     24 C                    -0.058042
     25 N                    -0.418797
     26 S                     0.271858
     27 C                     0.108412
     28 C                    -0.305436
     29 C                    -0.249118
     30 H                     0.099387
     31 H                     0.099770
     32 H                     0.117515
     33 H                     0.116952
     34 H                     0.124299
     35 H                     0.125192
     36 H                     0.110470
     37 H                     0.138235
     38 H                     0.116529
     39 C                    -0.196962
     40 H                     0.135136
     41 H                     0.089856
     42 H                     0.122427
     43 C                    -0.183019
     44 H                     0.085729
     45 C                    -0.174110
     46 H                     0.104314
     47 H                     0.090638
     48 H                     0.101148
     49 C                    -0.185165
     50 H                     0.090637
     51 C                    -0.333220
     52 H                     0.095827
     53 H                     0.100728
     54 H                     0.102844
     55 H                     0.099580
     56 C                     0.277976
     57 C                    -0.122492
     58 N                    -0.479485
     59 C                    -0.050636
     60 C                     0.081203
     61 C                     0.016615
     62 C                     0.048455
     63 C                     0.045056
     64 C                     0.200874
     65 N                    -0.504885
     66 N                    -0.544405
     67 C                     0.212200
     68 C                     0.272544
     69 S                     0.602637
     70 N                    -0.564341
     71 C                    -0.219099
     72 S                     0.358978
     73 C                    -0.129061
     74 C                    -0.216329
     75 S                     0.300484
     76 C                     0.130231
     77 C                     0.065405
     78 C                    -0.314846
     79 C                    -0.061363
     80 N                    -0.412285
     81 S                     0.273241
     82 C                     0.092645
     83 C                    -0.291457
     84 C                    -0.232415
     85 H                     0.086573
     86 H                     0.114535
     87 H                     0.104071
     88 H                     0.107458
     89 H                     0.147040
     90 H                     0.087554
     91 H                     0.110295
     92 H                     0.140692
     93 H                     0.118799
     94 C                    -0.182652
     95 H                     0.112867
     96 H                     0.104705
     97 H                     0.092967
     98 C                    -0.171978
     99 H                     0.096623
    100 C                    -0.176613
    101 H                     0.094843
    102 H                     0.094309
    103 H                     0.095027
    104 C                    -0.175423
    105 H                     0.091516
    106 C                    -0.320425
    107 H                     0.091115
    108 H                     0.100014
    109 H                     0.099182
    110 H                     0.099644
  ----------------------------------------
  Sum of atomic charges =     0.000000

                    Cartesian Multipole Moments
 -----------------------------------------------------------------
    Charge (ESU x 10^10)
                 0.0000
    Dipole Moment (Debye)
         X      -1.0269      Y       0.0010      Z       0.4966
       Tot       1.1407
    Quadrupole Moments (Debye-Ang)
        XX    -405.7253     XY     -11.9555     YY    -403.3181
        XZ      14.9256     YZ      20.1138     ZZ    -447.9446

 Total job time:  104.97s(wall), 1151.16s(cpu)
        *  Thank you very much for using Q-Chem.  Have a nice day.  *
