 Q-Chem 4.4, Q-Chem, Inc., Pleasanton, CA (2016)
 Q-Chem 4.4.2 for Intel X86 Linux

User input:
--------------------------------------------------------------
$comment
SP
$end

$rem
MEM_STATIC 5000
MEM_TOTAL 20000
JOBTYPE SP
EXCHANGE B3LYP
BASIS 6-31g(d,p)
$end

$molecule
0 1
C         -12.902000    -25.809000      4.909000
C         -12.206000    -26.572000      3.942000
N         -13.824000    -24.943000      4.516000
C         -12.404000    -26.471000      2.503000
C         -14.009000    -24.768000      3.182000
C         -13.370000    -25.522000      2.169000
C         -13.529000    -25.157000      0.757000
C         -13.764000    -26.149000     -0.108000
C         -13.297000    -23.859000      0.214000
N         -13.792000    -25.979000     -1.496000
N         -13.009000    -22.835000      0.948000
C         -13.437000    -23.635000     -1.155000
C         -13.588000    -24.723000     -2.032000
S         -12.875000    -21.603000     -0.122000
N         -13.147000    -22.356000     -1.526000
C         -13.699000    -24.662000     -3.485000
S         -14.836000    -25.605000     -4.478000
C         -13.053000    -23.734000     -4.229000
C         -14.372000    -24.724000     -5.908000
S         -11.587000    -22.829000     -3.804000
C         -13.345000    -23.852000     -5.600000
C         -14.892000    -24.846000     -7.252000
C         -11.513000    -22.472000     -5.577000
C         -12.449000    -23.059000     -6.381000
N         -15.661000    -25.924000     -7.462000
S         -14.817000    -23.643000     -8.515000
C         -16.140000    -25.940000     -8.777000
C         -15.738000    -24.807000     -9.525000
C         -12.646000    -25.854000      6.437000
H         -11.379000    -27.189000      4.282000
H         -11.750000    -27.002000      1.818000
H         -14.695000    -23.971000      2.900000
H         -13.744000    -27.192000      0.206000
H         -10.777000    -21.730000     -5.855000
H         -12.496000    -23.060000     -7.464000
H         -16.688000    -26.820000     -9.086000
H         -15.929000    -24.636000    -10.576000
H         -13.630000    -26.033000      6.886000
C         -12.077000    -24.515000      6.935000
H         -12.132000    -26.764000      6.769000
H         -12.641000    -23.625000      6.631000
H         -11.056000    -24.474000      6.534000
C         -12.146000    -24.495000      8.417000
H         -13.225000    -24.599000      8.582000
C         -11.591000    -23.251000      9.090000
H         -11.667000    -25.365000      8.882000
H         -12.317000    -22.464000      8.852000
H         -10.633000    -22.951000      8.647000
C         -11.368000    -23.396000     10.622000
H         -10.759000    -24.278000     10.858000
C         -12.726000    -23.350000     11.350000
H         -10.770000    -22.516000     10.891000
H         -13.245000    -24.260000     11.025000
H         -13.368000    -22.530000     11.005000
H         -12.692000    -23.404000     12.445000
C         -10.183000    -19.819000     10.464000
C         -11.315000    -19.989000      9.639000
N          -8.970000    -20.023000      9.973000
C         -11.152000    -20.046000      8.284000
C          -8.779000    -20.151000      8.670000
C          -9.865000    -20.040000      7.743000
C          -9.650000    -19.950000      6.260000
C          -8.547000    -19.296000      5.665000
C         -10.472000    -20.529000      5.253000
N          -8.205000    -19.263000      4.381000
N         -11.654000    -21.210000      5.547000
C         -10.190000    -20.520000      3.913000
C          -9.011000    -19.888000      3.468000
S         -12.218000    -21.663000      4.084000
N         -11.020000    -21.160000      3.082000
C          -8.428000    -20.075000      2.148000
S          -8.883000    -21.252000      0.956000
C          -7.572000    -19.122000      1.603000
C          -7.772000    -20.626000     -0.225000
S          -6.738000    -17.720000      2.242000
C          -7.160000    -19.486000      0.293000
C          -7.680000    -21.128000     -1.510000
C          -5.925000    -17.532000      0.681000
C          -6.295000    -18.493000     -0.222000
N          -8.635000    -21.853000     -1.996000
S          -6.053000    -21.334000     -2.220000
C          -8.093000    -22.506000     -3.109000
C          -6.734000    -22.401000     -3.268000
C         -10.281000    -19.496000     11.952000
H         -12.297000    -19.938000     10.100000
H         -12.059000    -19.920000      7.699000
H          -7.772000    -20.196000      8.260000
H          -7.885000    -18.785000      6.362000
H          -5.284000    -16.687000      0.468000
H          -5.902000    -18.695000     -1.212000
H          -8.760000    -23.199000     -3.605000
H          -6.150000    -22.952000     -3.994000
H          -9.363000    -19.766000     12.488000
C         -11.500000    -20.122000     12.679000
H         -10.333000    -18.403000     12.031000
H         -11.505000    -21.218000     12.715000
H         -12.383000    -19.876000     12.077000
C         -11.678000    -19.637000     14.062000
H         -10.890000    -20.004000     14.731000
C         -13.039000    -20.289000     14.476000
H         -11.678000    -18.546000     14.181000
H         -13.122000    -21.340000     14.173000
H         -13.828000    -19.720000     13.969000
C         -13.207000    -20.092000     15.989000
H         -12.395000    -20.628000     16.497000
C         -14.536000    -20.496000     16.607000
H         -12.991000    -19.048000     16.247000
H         -14.435000    -20.459000     17.699000
H         -14.870000    -21.489000     16.282000
H         -15.384000    -19.853000     16.342000
$end

--------------------------------------------------------------

             Standard Nuclear Orientation (Angstroms)
    I     Atom           X                Y                Z
 ----------------------------------------------------------------
    1      C       1.8430561713    -3.7574066788    -2.1190397849
    2      C       0.8225364624    -3.4737195974    -3.0569817680
    3      N       1.5299020094    -3.9105463211    -0.8411619657
    4      C      -0.5862322074    -3.3076819835    -2.7284572703
    5      C       0.2385776177    -3.7103490499    -0.4712858134
    6      C      -0.8306413647    -3.4581046998    -1.3635579442
    7      C      -2.1613813380    -3.1122895167    -0.8519008495
    8      C      -3.2102770949    -3.7178023977    -1.4181921543
    9      C      -2.4355160409    -2.0725804703     0.0847593149
   10      N      -4.5407658307    -3.3863244667    -1.1422390690
   11      N      -1.5041163514    -1.3824340387     0.6561335542
   12      C      -3.7480134043    -1.8017828284     0.4694102063
   13      C      -4.8182844054    -2.3945426557    -0.2225650615
   14      S      -2.3152638818    -0.3621149834     1.6469255149
   15      N      -3.8518259992    -0.7587767145     1.3405836630
   16      C      -6.2399319030    -2.1803743075     0.0229981910
   17      S      -7.4891499020    -3.4479311875     0.0516503648
   18      C      -6.7395450212    -0.9916831293     0.4346242530
   19      C      -8.6857907037    -2.3048945221     0.5974295999
   20      S      -6.0226614135     0.6183599836     0.2281174303
   21      C      -8.1302834576    -1.0401629010     0.6403554205
   22      C     -10.0720372927    -2.5411557853     0.9352476130
   23      C      -7.6865753344     1.2101800305     0.6250979031
   24      C      -8.6673872663     0.2745534297     0.7974110423
   25      N     -10.5450343241    -3.7396667840     0.5645857803
   26      S     -11.0828793565    -1.5490474920     1.9559936423
   27      C     -11.8798168142    -3.8870137963     0.9590050524
   28      C     -12.3687986822    -2.7712832042     1.6806968000
   29      C       3.3545221776    -3.8612155343    -2.4462082937
   30      H       1.1202112229    -3.2409537993    -4.0755237751
   31      H      -1.2924433264    -2.9737600135    -3.4825553895
   32      H       0.0435059427    -3.7372275241     0.5994866131
   33      H      -3.0905411212    -4.3674028862    -2.2845220579
   34      H      -7.7554237822     2.2762543666     0.7932924372
   35      H      -9.7321368384     0.4353941963     0.9220609386
   36      H     -12.3931910938    -4.7770194661     0.6205944190
   37      H     -13.3843672913    -2.6300716638     2.0256644813
   38      H       3.6699932221    -4.8268770489    -2.0340507277
   39      C       4.1382706438    -2.7217515441    -1.7738645149
   40      H       3.5620062755    -4.0455274482    -3.5071038906
   41      H       3.9499110176    -2.5938137108    -0.7011275658
   42      H       3.8481567180    -1.8160263951    -2.3219693082
   43      C       5.5862782079    -3.0365319419    -1.8491798236
   44      H       5.6285183068    -3.9816042676    -1.2948008256
   45      C       6.5227776475    -1.9956121398    -1.2593113934
   46      H       5.9279733363    -3.2496339319    -2.8691788339
   47      H       6.3652409128    -2.0680548026    -0.1762494201
   48      H       6.2327469251    -0.9811173950    -1.5604684834
   49      C       8.0169191750    -2.1845577541    -1.6461170946
   50      H       8.1443510273    -2.2597368625    -2.7335959334
   51      C       8.6116012551    -3.3663445327    -0.8549172251
   52      H       8.4957876744    -1.2476327736    -1.3343134042
   53      H       8.0798110186    -4.2479410545    -1.2331667686
   54      H       8.3631289777    -3.3334312293     0.2131498336
   55      H       9.6768951522    -3.5717308757    -1.0163556431
   56      C       8.6224370033     0.8671542833     0.4856708406
   57      C       7.6786004953     0.0232348279     1.1085043650
   58      N       8.2175652048     1.7986027978    -0.3643576834
   59      C       6.3569414085     0.3675753105     1.0863708990
   60      C       6.9365155433     2.1141948524    -0.4642947640
   61      C       5.9481642765     1.4891616162     0.3624707571
   62      C       4.5327483832     1.9838138863     0.4368413210
   63      C       4.1717306686     3.3472827615     0.3421373812
   64      C       3.3652710648     1.1803306671     0.5648468968
   65      N       2.9525834144     3.8727587796     0.2768386289
   66      N       3.4193710500    -0.2062084577     0.7128450287
   67      C       2.0813599014     1.6545912011     0.5217879792
   68      C       1.8702571492     3.0378936502     0.3503238063
   69      S       1.8523939500    -0.6483784993     0.8257273680
   70      N       1.0743485226     0.7769449860     0.5905353719
   71      C       0.5983163207     3.6325498664    -0.0315250031
   72      S      -0.8247766870     2.8050315767    -0.5821952960
   73      C       0.3175934281     4.9655607767     0.2552616257
   74      C      -1.7637981685     4.2659932363    -0.6513884049
   75      S       1.2754751528     6.3256692409     0.8048510792
   76      C      -0.9926284351     5.3198564543    -0.1644206851
   77      C      -3.1043933911     4.2819485710    -0.9893867429
   78      C      -0.1428545986     7.3651524538     0.6027388167
   79      C      -1.2358777059     6.6778013866     0.1459248531
   80      N      -3.8007438111     3.1925323548    -0.9434041322
   81      S      -3.6854990673     5.5801449631    -2.0713605506
   82      C      -4.9585301469     3.4451877642    -1.6881443854
   83      C      -4.9686640708     4.6114070301    -2.4113434780
   84      C      10.1286751279     0.7048987655     0.6673212160
   85      H       8.0477958732    -0.8090040276     1.7005510358
   86      H       5.7227679929    -0.1697349020     1.7862793318
   87      H       6.6206624129     2.9603680530    -1.0712558126
   88      H       5.0084939529     4.0413278736     0.2846692307
   89      H      -0.1381953604     8.4041243123     0.9040538820
   90      H      -2.2051702465     7.0527757325    -0.1626512486
   91      H      -5.6320604754     2.6042525945    -1.7898249487
   92      H      -5.7251585443     4.8857769282    -3.1353395211
   93      H      10.6897390072     1.1759834046    -0.1488935757
   94      C      10.6132084037    -0.7582945856     0.8424175375
   95      H      10.3997714271     1.2862257508     1.5573547730
   96      H      10.4488422254    -1.4075864945    -0.0258800938
   97      H       9.9864298577    -1.2035529877     1.6244038607
   98      C      12.0386498025    -0.8702139888     1.2100979230
   99      H      12.7001931761    -0.5829684234     0.3836329509
  100      C      12.1988383008    -2.4035684393     1.4783977070
  101      H      12.3533784235    -0.2562226313     2.0635629240
  102      H      11.7035299870    -3.0262089867     0.7232239369
  103      H      11.7324939723    -2.6035955596     2.4509423684
  104      C      13.7001431224    -2.6992560671     1.6002773994
  105      H      14.1756023741    -2.4619723301     0.6398926182
  106      C      14.1080747270    -4.1001624284     2.0274005348
  107      H      14.1625012504    -1.9671509285     2.2736294822
  108      H      15.1932000617    -4.1989240575     1.8978507427
  109      H      13.5784155591    -4.8836730214     1.4717006909
  110      H      13.8865910589    -4.3481563434     3.0724947903
 ----------------------------------------------------------------

    9   -5663.5037533290      9.61E-06 Convergence criterion met
 Total energy in the final basis set = -5663.5037533290

                    Orbital Energies (a.u.)
 --------------------------------------------------------------

 Alpha MOs
 -- Occupied --
-88.984 -88.983 -88.931 -88.928 -88.925 -88.922 -88.913 -88.909
-14.388 -14.384 -14.380 -14.380 -14.351 -14.347 -14.346 -14.339
-14.330 -14.325 -10.267 -10.264 -10.258 -10.257 -10.253 -10.252
-10.251 -10.246 -10.236 -10.234 -10.234 -10.233 -10.233 -10.233
-10.232 -10.230 -10.229 -10.229 -10.229 -10.228 -10.228 -10.228
-10.228 -10.227 -10.227 -10.222 -10.222 -10.220 -10.214 -10.213
-10.212 -10.206 -10.204 -10.203 -10.203 -10.202 -10.200 -10.192
-10.186 -10.184 -10.178 -10.178 -10.177 -10.175 -10.174 -10.172
-10.170 -10.170 -10.166 -10.164  -8.040  -8.038  -7.992  -7.991
 -7.984  -7.980  -7.972  -7.968  -6.005  -6.002  -5.999  -5.998
 -5.997  -5.996  -5.956  -5.955  -5.952  -5.952  -5.949  -5.948
 -5.948  -5.945  -5.945  -5.941  -5.941  -5.937  -5.936  -5.933
 -5.932  -5.929  -5.928  -5.924  -1.050  -1.034  -0.984  -0.955
 -0.954  -0.947  -0.942  -0.939  -0.919  -0.913  -0.907  -0.900
 -0.850  -0.842  -0.834  -0.831  -0.829  -0.815  -0.808  -0.807
 -0.806  -0.800  -0.799  -0.793  -0.786  -0.776  -0.768  -0.767
 -0.751  -0.746  -0.742  -0.740  -0.726  -0.722  -0.712  -0.707
 -0.694  -0.692  -0.671  -0.669  -0.654  -0.653  -0.646  -0.641
 -0.637  -0.635  -0.629  -0.624  -0.609  -0.607  -0.603  -0.598
 -0.598  -0.591  -0.586  -0.583  -0.581  -0.574  -0.573  -0.559
 -0.548  -0.547  -0.540  -0.536  -0.526  -0.521  -0.518  -0.515
 -0.510  -0.508  -0.501  -0.497  -0.493  -0.484  -0.478  -0.476
 -0.474  -0.473  -0.469  -0.467  -0.463  -0.463  -0.447  -0.446
 -0.442  -0.440  -0.439  -0.438  -0.436  -0.435  -0.433  -0.431
 -0.429  -0.428  -0.426  -0.421  -0.415  -0.414  -0.412  -0.411
 -0.410  -0.407  -0.405  -0.404  -0.402  -0.397  -0.397  -0.394
 -0.392  -0.390  -0.388  -0.387  -0.384  -0.382  -0.380  -0.379
 -0.378  -0.377  -0.376  -0.372  -0.369  -0.363  -0.359  -0.357
 -0.354  -0.352  -0.350  -0.348  -0.347  -0.346  -0.345  -0.343
 -0.341  -0.337  -0.335  -0.334  -0.331  -0.330  -0.323  -0.321
 -0.319  -0.316  -0.311  -0.309  -0.304  -0.303  -0.301  -0.298
 -0.297  -0.293  -0.292  -0.288  -0.288  -0.285  -0.282  -0.279
 -0.273  -0.270  -0.264  -0.264  -0.253  -0.251  -0.249  -0.246
 -0.245  -0.243  -0.237  -0.229  -0.194  -0.193

          Ground-State Mulliken Net Atomic Charges

     Atom                 Charge (a.u.)
  ----------------------------------------
      1 C                     0.270129
      2 C                    -0.140447
      3 N                    -0.476674
      4 C                    -0.060366
      5 C                     0.084356
      6 C                     0.015957
      7 C                     0.059389
      8 C                     0.032076
      9 C                     0.262652
     10 N                    -0.520311
     11 N                    -0.564926
     12 C                     0.201558
     13 C                     0.235926
     14 S                     0.623709
     15 N                    -0.524287
     16 C                    -0.202785
     17 S                     0.349257
     18 C                    -0.122778
     19 C                    -0.195232
     20 S                     0.294015
     21 C                     0.109277
     22 C                     0.048627
     23 C                    -0.321390
     24 C                    -0.051185
     25 N                    -0.434459
     26 S                     0.272329
     27 C                     0.122417
     28 C                    -0.315596
     29 C                    -0.224770
     30 H                     0.082144
     31 H                     0.119615
     32 H                     0.106691
     33 H                     0.113366
     34 H                     0.126359
     35 H                     0.114020
     36 H                     0.121793
     37 H                     0.130794
     38 H                     0.114712
     39 C                    -0.162427
     40 H                     0.096934
     41 H                     0.128613
     42 H                     0.088165
     43 C                    -0.176285
     44 H                     0.093227
     45 C                    -0.172506
     46 H                     0.078238
     47 H                     0.090698
     48 H                     0.093466
     49 C                    -0.189723
     50 H                     0.091827
     51 C                    -0.318546
     52 H                     0.101891
     53 H                     0.103321
     54 H                     0.100743
     55 H                     0.096760
     56 C                     0.274687
     57 C                    -0.114176
     58 N                    -0.479799
     59 C                    -0.052770
     60 C                     0.076308
     61 C                     0.020993
     62 C                     0.048200
     63 C                     0.048456
     64 C                     0.204833
     65 N                    -0.507301
     66 N                    -0.555967
     67 C                     0.208650
     68 C                     0.268273
     69 S                     0.636526
     70 N                    -0.578792
     71 C                    -0.208451
     72 S                     0.361661
     73 C                    -0.130111
     74 C                    -0.226280
     75 S                     0.292109
     76 C                     0.133749
     77 C                     0.067083
     78 C                    -0.318223
     79 C                    -0.055676
     80 N                    -0.422939
     81 S                     0.282741
     82 C                     0.087241
     83 C                    -0.292317
     84 C                    -0.232022
     85 H                     0.089209
     86 H                     0.115584
     87 H                     0.103923
     88 H                     0.103391
     89 H                     0.131688
     90 H                     0.093324
     91 H                     0.118572
     92 H                     0.142177
     93 H                     0.118050
     94 C                    -0.188784
     95 H                     0.112353
     96 H                     0.118358
     97 H                     0.091578
     98 C                    -0.173772
     99 H                     0.095762
    100 C                    -0.179630
    101 H                     0.093937
    102 H                     0.098026
    103 H                     0.094469
    104 C                    -0.175465
    105 H                     0.091043
    106 C                    -0.320638
    107 H                     0.091002
    108 H                     0.099772
    109 H                     0.099349
    110 H                     0.099681
  ----------------------------------------
  Sum of atomic charges =     0.000000

                    Cartesian Multipole Moments
 -----------------------------------------------------------------
    Charge (ESU x 10^10)
                 0.0000
    Dipole Moment (Debye)
         X      -2.0185      Y       2.4438      Z       0.2461
       Tot       3.1792
    Quadrupole Moments (Debye-Ang)
        XX    -402.1706     XY     -31.5920     YY    -440.3331
        XZ       4.8261     YZ      -1.4540     ZZ    -434.5486

 Total job time:  95.54s(wall), 1060.88s(cpu)
        *  Thank you very much for using Q-Chem.  Have a nice day.  *
