 Q-Chem 4.4, Q-Chem, Inc., Pleasanton, CA (2016)
 Q-Chem 4.4.2 for Intel X86 Linux

User input:
--------------------------------------------------------------
$comment
SP
$end

$rem
MEM_STATIC 5000
MEM_TOTAL 20000
JOBTYPE SP
EXCHANGE B3LYP
BASIS 6-31g(d,p)
$end

$molecule
0 1
C           3.595000    -18.116000     -6.109000
C           3.152000    -18.434000     -4.811000
N           2.898000    -17.358000     -6.946000
C           1.887000    -17.885000     -4.488000
C           1.719000    -16.843000     -6.607000
C           1.077000    -17.123000     -5.336000
C          -0.243000    -16.634000     -4.898000
C          -0.490000    -15.249000     -4.961000
C          -1.274000    -17.414000     -4.444000
N          -1.691000    -14.726000     -4.548000
N          -1.297000    -18.740000     -4.437000
C          -2.527000    -16.819000     -4.046000
C          -2.692000    -15.462000     -4.038000
S          -2.874000    -19.134000     -4.011000
N          -3.519000    -17.692000     -3.603000
C          -3.773000    -14.715000     -3.391000
S          -4.858000    -15.327000     -2.090000
C          -4.178000    -13.445000     -3.779000
C          -5.549000    -13.761000     -1.954000
S          -3.626000    -12.350000     -5.094000
C          -5.155000    -12.911000     -3.011000
C          -6.595000    -13.546000     -1.007000
C          -4.929000    -11.211000     -4.633000
C          -5.628000    -11.676000     -3.523000
N          -6.939000    -12.301000     -0.784000
S          -7.093000    -14.626000      0.230000
C          -7.642000    -12.182000      0.403000
C          -7.682000    -13.296000      1.147000
C           4.933000    -18.573000     -6.630000
H           3.579000    -19.200000     -4.170000
H           1.524000    -18.153000     -3.499000
H           1.262000    -16.167000     -7.329000
H           0.309000    -14.535000     -5.153000
H          -5.041000    -10.339000     -5.264000
H          -6.400000    -11.034000     -3.112000
H          -8.066000    -11.194000      0.523000
H          -7.994000    -13.544000      2.153000
H           5.090000    -19.573000     -6.207000
C           6.001000    -17.641000     -6.016000
H           5.019000    -18.617000     -7.723000
H           6.966000    -17.978000     -6.413000
H           6.079000    -17.652000     -4.921000
C           5.858000    -16.145000     -6.410000
H           6.048000    -16.088000     -7.489000
C           6.813000    -15.207000     -5.627000
H           4.852000    -15.726000     -6.285000
H           7.813000    -15.565000     -5.902000
H           6.595000    -15.187000     -4.552000
C           6.593000    -13.729000     -5.962000
H           5.531000    -13.506000     -5.804000
C           6.912000    -13.321000     -7.383000
H           7.138000    -13.192000     -5.177000
H           7.973000    -13.552000     -7.537000
H           6.809000    -12.231000     -7.448000
H           6.256000    -13.860000     -8.077000
C         -10.183000    -19.819000     10.464000
C         -11.315000    -19.989000      9.639000
N          -8.970000    -20.023000      9.973000
C         -11.152000    -20.046000      8.284000
C          -8.779000    -20.151000      8.670000
C          -9.865000    -20.040000      7.743000
C          -9.650000    -19.950000      6.260000
C          -8.547000    -19.296000      5.665000
C         -10.472000    -20.529000      5.253000
N          -8.205000    -19.263000      4.381000
N         -11.654000    -21.210000      5.547000
C         -10.190000    -20.520000      3.913000
C          -9.011000    -19.888000      3.468000
S         -12.218000    -21.663000      4.084000
N         -11.020000    -21.160000      3.082000
C          -8.428000    -20.075000      2.148000
S          -8.883000    -21.252000      0.956000
C          -7.572000    -19.122000      1.603000
C          -7.772000    -20.626000     -0.225000
S          -6.738000    -17.720000      2.242000
C          -7.160000    -19.486000      0.293000
C          -7.680000    -21.128000     -1.510000
C          -5.925000    -17.532000      0.681000
C          -6.295000    -18.493000     -0.222000
N          -8.635000    -21.853000     -1.996000
S          -6.053000    -21.334000     -2.220000
C          -8.093000    -22.506000     -3.109000
C          -6.734000    -22.401000     -3.268000
C         -10.281000    -19.496000     11.952000
H         -12.297000    -19.938000     10.100000
H         -12.059000    -19.920000      7.699000
H          -7.772000    -20.196000      8.260000
H          -7.885000    -18.785000      6.362000
H          -5.284000    -16.687000      0.468000
H          -5.902000    -18.695000     -1.212000
H          -8.760000    -23.199000     -3.605000
H          -6.150000    -22.952000     -3.994000
H          -9.363000    -19.766000     12.488000
C         -11.500000    -20.122000     12.679000
H         -10.333000    -18.403000     12.031000
H         -11.505000    -21.218000     12.715000
H         -12.383000    -19.876000     12.077000
C         -11.678000    -19.637000     14.062000
H         -10.890000    -20.004000     14.731000
C         -13.039000    -20.289000     14.476000
H         -11.678000    -18.546000     14.181000
H         -13.122000    -21.340000     14.173000
H         -13.828000    -19.720000     13.969000
C         -13.207000    -20.092000     15.989000
H         -12.395000    -20.628000     16.497000
C         -14.536000    -20.496000     16.607000
H         -12.991000    -19.048000     16.247000
H         -14.435000    -20.459000     17.699000
H         -14.870000    -21.489000     16.282000
H         -15.384000    -19.853000     16.342000
$end

--------------------------------------------------------------

             Standard Nuclear Orientation (Angstroms)
    I     Atom           X                Y                Z
 ----------------------------------------------------------------
    1      C     -10.5534655828    -2.6210878457    -2.5500702118
    2      C      -9.2386062559    -2.6641269594    -3.0515376434
    3      N     -10.8977695056    -1.9124986867    -1.4822227450
    4      C      -8.3150492939    -1.8959159627    -2.3013047444
    5      C     -10.0094196167    -1.1872912981    -0.8076149192
    6      C      -8.5969773991    -1.1689880525    -1.1402964082
    7      C      -7.5402058081    -0.4334351395    -0.4222708400
    8      C      -7.7254411388     0.9452866317    -0.2031426819
    9      C      -6.3844275476    -0.9766636066     0.0742736648
   10      N      -6.7697422515     1.6931062671     0.4402113650
   11      N      -6.0828072976    -2.2679337508     0.0966486402
   12      C      -5.4223441820    -0.1534152271     0.7664410601
   13      C      -5.6005482286     1.1973955996     0.8773077744
   14      S      -4.6848392378    -2.3603096660     1.0244379450
   15      N      -4.2796445949    -0.7948254374     1.2410699633
   16      C      -4.5939376900     2.1837623646     1.2760493304
   17      S      -2.8085626267     1.9457442266     1.2636699501
   18      C      -4.8970486686     3.4215532912     1.8269271360
   19      C      -2.6033436132     3.5961535798     1.6907145888
   20      S      -6.4586372733     4.2055491458     2.2508912025
   21      C      -3.8207274284     4.2039660525     2.0695623743
   22      C      -1.2822112534     4.1049110080     1.8721675226
   23      C      -5.5336411941     5.5774194328     2.9364604324
   24      C      -4.1658218718     5.3977639777     2.7528297736
   25      N      -1.1632520671     5.4057301337     1.9808335892
   26      S       0.1839324638     3.3155702106     1.4575150101
   27      C       0.1403349575     5.8094060602     1.7462155685
   28      C       0.9568415871     4.8437319312     1.3024561738
   29      C     -11.6902673970    -3.3410128273    -3.2282469263
   30      H      -8.8680020618    -3.3727696974    -3.7866866088
   31      H      -7.2916475922    -1.9501823901    -2.6638211051
   32      H     -10.4022911808    -0.5750492796     0.0035081571
   33      H      -8.5253109767     1.4984497851    -0.6923049946
   34      H      -6.1184258478     6.3461581737     3.4244734006
   35      H      -3.5080643955     6.2001883345     3.0699090284
   36      H       0.2877347685     6.8543334818     1.9843751354
   37      H       1.9564249119     4.8043896906     0.8899402774
   38      H     -11.2617165523    -4.2740014872    -3.6148401674
   39      C     -12.1058782906    -2.4864344640    -4.4461169548
   40      H     -12.5497658257    -3.5683611932    -2.5851635945
   41      H     -12.9400249159    -3.0162371367    -4.9214184755
   42      H     -11.3368566312    -2.3359690073    -5.2150095569
   43      C     -12.6271016885    -1.0662314021    -4.0924922491
   44      H     -13.5633715292    -1.2075614070    -3.5384032534
   45      C     -12.8466274857    -0.1630252951    -5.3338564796
   46      H     -11.9871631146    -0.4932577865    -3.4102885716
   47      H     -13.6075190649    -0.6991487098    -5.9147219451
   48      H     -11.9120084368     0.0569180213    -5.8645740797
   49      C     -13.2713894572     1.2598900356    -4.9596931072
   50      H     -12.5298004901     1.6545521667    -4.2548352449
   51      C     -14.6186626118     1.3892430174    -4.2847198834
   52      H     -13.1450386055     1.8302259956    -5.8872551563
   53      H     -15.3549381987     0.9875366095    -4.9913514861
   54      H     -14.8336976515     2.4588038287    -4.1718766167
   55      H     -14.6066168567     0.8471533953    -3.3315741750
   56      C      10.8671666717     0.2943197101    -2.7840244832
   57      C      11.0040167463     0.1602460608    -1.3860812392
   58      N       9.7779486065    -0.1557932166    -3.3882333542
   59      C       9.9033727148    -0.1320606091    -0.6317719348
   60      C       8.7134491308    -0.5132945420    -2.6884421935
   61      C       8.6854828941    -0.3954328780    -1.2614269455
   62      C       7.4253394389    -0.5716893142    -0.4648177935
   63      C       6.1457643227    -0.1840713791    -0.9239363603
   64      C       7.3175656778    -1.1783925678     0.8178629846
   65      N       4.9657582599    -0.4028622243    -0.3525999815
   66      N       8.4285106350    -1.6284757708     1.5323889901
   67      C       6.1388543839    -1.4208680516     1.4713538609
   68      C       4.9276976253    -1.0420043804     0.8573085656
   69      S       7.7910735640    -2.2207437065     2.9131737934
   70      N       6.1802574911    -2.0583263571     2.6465107404
   71      C       3.6153025026    -1.5158977127     1.2699853781
   72      S       3.2648172362    -2.7885310006     2.3972753110
   73      C       2.4655485570    -0.7929228156     0.9644642451
   74      C       1.5494554960    -2.5216619957     2.3119932247
   75      S       2.1165629331     0.5583053867    -0.0947205262
   76      C       1.3063129436    -1.4137350086     1.5021491097
   77      C       0.6404445597    -3.2276133831     3.0781686329
   78      C       0.3994887205     0.3799993380     0.2963000635
   79      C       0.1647234024    -0.6482400635     1.1700500155
   80      N       1.0360149551    -3.8759405080     4.1255663613
   81      S      -0.8732196078    -3.7733668955     2.3005833373
   82      C       0.0028461603    -4.7667229449     4.4386332734
   83      C      -0.9969335335    -4.8835254641     3.5059035508
   84      C      11.9692936491     0.8581800030    -3.6759071525
   85      H      11.9573954151     0.4230983091    -0.9372785994
   86      H      10.0139339353     0.0286923937     0.4371923717
   87      H       7.7809982074    -0.7658315161    -3.1893756743
   88      H       6.1381136901     0.3302729674    -1.8833973345
   89      H      -0.3440106044     1.0804575084    -0.0598489296
   90      H      -0.7784779879    -1.0576683851     1.5136960351
   91      H       0.2021280948    -5.4265476029     5.2729426472
   92      H      -1.7899420416    -5.6197289604     3.5354825658
   93      H      11.8458752899     0.5474350396    -4.7204766697
   94      C      13.4146014610     0.5352911698    -3.2141776534
   95      H      11.8286931879     1.9460456960    -3.6952396204
   96      H      13.6775642477    -0.5292506949    -3.2259331304
   97      H      13.4718166268     0.8071899560    -2.1533258849
   98      C      14.4546122848     1.2523583687    -3.9782392469
   99      H      14.5330918246     0.8863622260    -5.0092978221
  100      C      15.7619550864     0.8751029865    -3.2053523370
  101      H      14.3113772979     2.3371291265    -4.0630811085
  102      H      15.8120334192    -0.1876762845    -2.9383478769
  103      H      15.7618896546     1.4641217484    -2.2799400538
  104      C      16.9537399916     1.3297932512    -4.0592302575
  105      H      16.9329983741     0.7698872996    -5.0030412082
  106      C      18.3401586578     1.2223996392    -3.4446646432
  107      H      16.7875515670     2.3596266515    -4.3983181150
  108      H      19.0822039684     1.4160050510    -4.2294701614
  109      H      18.5201617696     0.2487295176    -2.9726525947
  110      H      18.5419911514     1.9302582907    -2.6316592471
 ----------------------------------------------------------------

    9   -5663.5056582641      8.96E-06 Convergence criterion met
 Total energy in the final basis set = -5663.5056582641

                    Orbital Energies (a.u.)
 --------------------------------------------------------------

 Alpha MOs
 -- Occupied --
-88.988 -88.988 -88.932 -88.928 -88.924 -88.919 -88.914 -88.906
-14.400 -14.388 -14.386 -14.385 -14.349 -14.349 -14.345 -14.335
-14.325 -14.325 -10.263 -10.260 -10.259 -10.258 -10.258 -10.257
-10.255 -10.250 -10.245 -10.243 -10.242 -10.236 -10.235 -10.234
-10.233 -10.230 -10.229 -10.229 -10.229 -10.228 -10.228 -10.228
-10.227 -10.227 -10.226 -10.224 -10.224 -10.222 -10.217 -10.216
-10.210 -10.209 -10.206 -10.203 -10.202 -10.199 -10.199 -10.194
-10.185 -10.185 -10.182 -10.181 -10.180 -10.179 -10.177 -10.172
-10.172 -10.170 -10.169 -10.167  -8.044  -8.043  -7.991  -7.991
 -7.983  -7.982  -7.973  -7.966  -6.009  -6.008  -6.003  -6.003
 -6.001  -6.001  -5.956  -5.955  -5.952  -5.952  -5.948  -5.948
 -5.948  -5.946  -5.944  -5.942  -5.940  -5.939  -5.937  -5.934
 -5.930  -5.929  -5.927  -5.922  -1.038  -1.034  -0.983  -0.975
 -0.957  -0.955  -0.947  -0.944  -0.918  -0.914  -0.911  -0.903
 -0.850  -0.845  -0.833  -0.831  -0.830  -0.817  -0.810  -0.809
 -0.806  -0.804  -0.801  -0.794  -0.787  -0.786  -0.772  -0.770
 -0.752  -0.748  -0.743  -0.739  -0.732  -0.726  -0.713  -0.707
 -0.695  -0.692  -0.673  -0.672  -0.656  -0.655  -0.649  -0.643
 -0.639  -0.638  -0.632  -0.626  -0.612  -0.608  -0.603  -0.600
 -0.598  -0.594  -0.587  -0.583  -0.582  -0.576  -0.576  -0.554
 -0.552  -0.548  -0.540  -0.539  -0.527  -0.526  -0.519  -0.517
 -0.509  -0.505  -0.502  -0.499  -0.494  -0.494  -0.480  -0.479
 -0.478  -0.475  -0.471  -0.470  -0.464  -0.458  -0.452  -0.448
 -0.446  -0.445  -0.443  -0.441  -0.440  -0.437  -0.436  -0.433
 -0.431  -0.431  -0.429  -0.429  -0.421  -0.416  -0.416  -0.414
 -0.412  -0.406  -0.405  -0.403  -0.403  -0.400  -0.399  -0.397
 -0.393  -0.392  -0.390  -0.389  -0.389  -0.383  -0.383  -0.381
 -0.381  -0.378  -0.378  -0.375  -0.373  -0.365  -0.362  -0.358
 -0.357  -0.356  -0.352  -0.352  -0.351  -0.349  -0.347  -0.345
 -0.342  -0.338  -0.337  -0.334  -0.334  -0.326  -0.325  -0.325
 -0.319  -0.318  -0.317  -0.309  -0.308  -0.303  -0.301  -0.298
 -0.297  -0.295  -0.294  -0.289  -0.288  -0.288  -0.284  -0.279
 -0.275  -0.270  -0.267  -0.261  -0.255  -0.253  -0.249  -0.247
 -0.244  -0.244  -0.238  -0.230  -0.194  -0.194

          Ground-State Mulliken Net Atomic Charges

     Atom                 Charge (a.u.)
  ----------------------------------------
      1 C                     0.273114
      2 C                    -0.110577
      3 N                    -0.460818
      4 C                    -0.079084
      5 C                     0.071281
      6 C                     0.034310
      7 C                    -0.001454
      8 C                     0.066731
      9 C                     0.294696
     10 N                    -0.527745
     11 N                    -0.558737
     12 C                     0.123263
     13 C                     0.299762
     14 S                     0.594459
     15 N                    -0.538347
     16 C                    -0.215001
     17 S                     0.331523
     18 C                    -0.112023
     19 C                    -0.222915
     20 S                     0.260634
     21 C                     0.176161
     22 C                     0.039050
     23 C                    -0.305487
     24 C                    -0.060210
     25 N                    -0.426138
     26 S                     0.281624
     27 C                     0.126462
     28 C                    -0.327349
     29 C                    -0.215989
     30 H                     0.102479
     31 H                     0.093438
     32 H                     0.102180
     33 H                     0.128649
     34 H                     0.138289
     35 H                     0.122856
     36 H                     0.113239
     37 H                     0.149622
     38 H                     0.094166
     39 C                    -0.190167
     40 H                     0.115497
     41 H                     0.092650
     42 H                     0.095881
     43 C                    -0.171039
     44 H                     0.092702
     45 C                    -0.168010
     46 H                     0.099948
     47 H                     0.085872
     48 H                     0.087013
     49 C                    -0.182448
     50 H                     0.088980
     51 C                    -0.308934
     52 H                     0.085778
     53 H                     0.098813
     54 H                     0.099767
     55 H                     0.111426
     56 C                     0.277724
     57 C                    -0.122000
     58 N                    -0.479522
     59 C                    -0.050726
     60 C                     0.080374
     61 C                     0.016779
     62 C                     0.046529
     63 C                     0.048918
     64 C                     0.204755
     65 N                    -0.506836
     66 N                    -0.544003
     67 C                     0.207909
     68 C                     0.269617
     69 S                     0.601705
     70 N                    -0.560312
     71 C                    -0.208389
     72 S                     0.368557
     73 C                    -0.124894
     74 C                    -0.223171
     75 S                     0.281941
     76 C                     0.129511
     77 C                     0.061799
     78 C                    -0.320091
     79 C                    -0.059167
     80 N                    -0.412063
     81 S                     0.281590
     82 C                     0.093672
     83 C                    -0.291336
     84 C                    -0.232318
     85 H                     0.086794
     86 H                     0.114387
     87 H                     0.103758
     88 H                     0.104077
     89 H                     0.142939
     90 H                     0.104565
     91 H                     0.110735
     92 H                     0.141469
     93 H                     0.118875
     94 C                    -0.182497
     95 H                     0.112672
     96 H                     0.104917
     97 H                     0.092954
     98 C                    -0.173117
     99 H                     0.096933
    100 C                    -0.176341
    101 H                     0.095030
    102 H                     0.094484
    103 H                     0.095055
    104 C                    -0.175696
    105 H                     0.091690
    106 C                    -0.320873
    107 H                     0.091232
    108 H                     0.100358
    109 H                     0.099386
    110 H                     0.099821
  ----------------------------------------
  Sum of atomic charges =     0.000000

                    Cartesian Multipole Moments
 -----------------------------------------------------------------
    Charge (ESU x 10^10)
                 0.0000
    Dipole Moment (Debye)
         X       1.9144      Y      -0.1775      Z       0.3119
       Tot       1.9478
    Quadrupole Moments (Debye-Ang)
        XX    -428.0126     XY      22.8726     YY    -422.8799
        XZ      12.1048     YZ       0.1111     ZZ    -445.5596

 Total job time:  87.10s(wall), 953.27s(cpu)
        *  Thank you very much for using Q-Chem.  Have a nice day.  *
