 Q-Chem 4.4, Q-Chem, Inc., Pleasanton, CA (2016)
 Q-Chem 4.4.2 for Intel X86 Linux

User input:
--------------------------------------------------------------
$comment
SP
$end

$rem
MEM_STATIC 5000
MEM_TOTAL 20000
JOBTYPE SP
EXCHANGE B3LYP
BASIS 6-31g(d,p)
$end

$molecule
0 1
C         -12.540000      7.085000     -2.972000
C         -12.487000      6.662000     -1.632000
N         -11.444000      7.160000     -3.768000
C         -11.300000      6.061000     -1.182000
C         -10.281000      6.611000     -3.272000
C         -10.154000      6.118000     -1.995000
C          -8.944000      5.332000     -1.598000
C          -9.123000      4.258000     -0.655000
C          -7.624000      5.587000     -1.991000
N          -8.162000      3.418000     -0.258000
N          -7.281000      6.569000     -2.822000
C          -6.708000      4.678000     -1.678000
C          -6.977000      3.574000     -0.812000
S          -5.680000      6.249000     -3.117000
N          -5.464000      4.942000     -2.203000
C          -5.962000      2.531000     -0.444000
S          -4.595000      2.027000     -1.483000
C          -6.029000      1.655000      0.637000
C          -4.063000      0.751000     -0.429000
S          -7.082000      1.673000      2.010000
C          -4.954000      0.694000      0.647000
C          -2.768000      0.104000     -0.560000
C          -6.112000      0.302000      2.647000
C          -5.110000     -0.122000      1.805000
N          -2.328000     -0.535000      0.507000
S          -1.611000      0.450000     -1.799000
C          -0.968000     -0.851000      0.337000
C          -0.487000     -0.527000     -0.939000
C         -13.828000      7.684000     -3.535000
H         -13.370000      6.808000     -1.017000
H         -11.181000      5.778000     -0.141000
H          -9.529000      6.411000     -4.034000
H         -10.111000      4.065000     -0.241000
H          -6.365000     -0.272000      3.529000
H          -4.457000     -0.937000      2.096000
H          -0.459000     -1.385000      1.128000
H           0.492000     -0.666000     -1.380000
H         -14.089000      8.638000     -3.060000
C         -15.036000      6.715000     -3.478000
H         -13.646000      8.009000     -4.567000
H         -15.708000      7.078000     -4.266000
H         -15.508000      6.873000     -2.500000
C         -14.678000      5.222000     -3.759000
H         -14.124000      5.137000     -4.702000
C         -15.940000      4.436000     -4.031000
H         -14.014000      4.759000     -3.019000
H         -16.496000      4.945000     -4.828000
H         -16.592000      4.465000     -3.149000
C         -15.669000      3.019000     -4.460000
H         -15.183000      3.024000     -5.443000
C         -17.070000      2.309000     -4.543000
H         -15.010000      2.511000     -3.744000
H         -17.676000      2.636000     -5.397000
H         -17.719000      2.465000     -3.672000
H         -16.858000      1.238000     -4.437000
C         -10.758000      9.711000      0.025000
C         -10.033000      9.888000     -1.168000
N         -10.299000      9.071000      1.057000
C          -8.733000      9.386000     -1.207000
C          -9.096000      8.549000      1.059000
C          -8.216000      8.697000     -0.078000
C          -6.770000      8.280000     -0.042000
C          -5.788000      9.079000     -0.666000
C          -6.220000      7.190000      0.738000
N          -4.495000      8.854000     -0.601000
N          -6.939000      6.360000      1.487000
C          -4.849000      6.984000      0.861000
C          -3.980000      7.884000      0.193000
S          -5.904000      5.487000      2.318000
N          -4.506000      6.132000      1.850000
C          -2.553000      7.657000      0.145000
S          -1.367000      8.989000      0.172000
C          -1.934000      6.447000      0.059000
C          -0.026000      7.801000      0.019000
S          -2.679000      4.960000     -0.318000
C          -0.556000      6.570000     -0.083000
C           1.352000      8.133000     -0.114000
C          -1.071000      4.322000     -0.329000
C          -0.049000      5.247000     -0.314000
N           1.701000      9.425000     -0.004000
S           2.655000      6.994000     -0.419000
C           3.086000      9.531000     -0.093000
C           3.710000      8.339000     -0.344000
C         -12.150000     10.241000      0.226000
H         -10.574000     10.315000     -2.007000
H          -8.027000      9.431000     -2.030000
H          -8.825000      7.966000      1.938000
H          -6.096000      9.953000     -1.239000
H          -1.037000      3.244000     -0.418000
H           1.008000      5.016000     -0.386000
H           3.547000     10.441000      0.267000
H           4.777000      8.191000     -0.443000
H         -12.137000     11.275000      0.593000
C         -13.084000      9.355000      1.057000
H         -12.590000     10.365000     -0.772000
H         -12.800000      9.464000      2.111000
H         -12.969000      8.287000      0.835000
C         -14.580000      9.672000      0.932000
H         -14.891000     10.647000      1.327000
C         -15.429000      8.586000      1.668000
H         -14.882000      9.712000     -0.122000
H         -15.340000      8.595000      2.761000
H         -15.162000      7.579000      1.323000
C         -16.950000      8.725000      1.389000
H         -17.200000      9.777000      1.575000
C         -17.660000      7.786000      2.329000
H         -17.089000      8.488000      0.327000
H         -17.589000      6.734000      2.024000
H         -18.741000      7.963000      2.271000
H         -17.378000      7.800000      3.389000
$end

--------------------------------------------------------------

             Standard Nuclear Orientation (Angstroms)
    I     Atom           X                Y                Z
 ----------------------------------------------------------------
    1      C      -6.1296858779    -0.4378347072     1.9412410781
    2      C      -5.9039621833    -0.1628713849     0.5808065942
    3      N      -5.1269957180    -0.5719335950     2.8451696879
    4      C      -4.6114408597     0.2322261309     0.1987639512
    5      C      -3.8613289463    -0.2297110829     2.4197788381
    6      C      -3.5584058123     0.1111894990     1.1228858710
    7      C      -2.2223757449     0.6912111033     0.7792238313
    8      C      -2.1704795015     1.6783537074    -0.2684508602
    9      C      -0.9886279633     0.3100228983     1.3218433700
   10      N      -1.0727545060     2.3435989934    -0.6415172668
   11      N      -0.8564244225    -0.6187287044     2.2665532113
   12      C       0.0669220058     1.0576121737     1.0214593861
   13      C       0.0274905212     2.0936887479     0.0385435756
   14      S       0.7419265544    -0.4786128849     2.6887708233
   15      N       1.2130709557     0.6906493824     1.6881961367
   16      C       1.2038509059     2.9552108046    -0.3184634148
   17      S       2.5324582941     3.3821401642     0.8016971673
   18      C       1.3509928498     3.7186836487    -1.4742680975
   19      C       3.3232347872     4.4661107284    -0.3036518064
   20      S       0.4276688291     3.6971468119    -2.9375763075
   21      C       2.5444822387     4.5278235829    -1.4632387984
   22      C       4.6786047064     4.9515052980    -0.1032534686
   23      C       1.6277817535     4.8608234988    -3.5947639041
   24      C       2.6022001817     5.2357332305    -2.6988311947
   25      N       5.2923371552     5.4175257715    -1.1740323438
   26      S       5.6661650912     4.5870342974     1.2698347937
   27      C       6.6630863943     5.5719734778    -0.8991715979
   28      C       6.9834036780     5.3196877093     0.4418212167
   29      C      -7.5313307920    -0.8065688677     2.4251219040
   30      H      -6.7423672020    -0.2558231560    -0.1030552288
   31      H      -4.3655422949     0.3908485837    -0.8463694438
   32      H      -3.1574465477    -0.0518060705     3.2315961670
   33      H      -3.0833069654     1.9536516335    -0.7935661552
   34      H       1.5328159709     5.3703510237    -4.5449071572
   35      H       3.3834339046     5.9265569235    -2.9950599839
   36      H       7.3067358535     5.9534711658    -1.6802560285
   37      H       7.9305657250     5.3758142350     0.9633352337
   38      H      -7.8788397255    -1.7623094037     2.0132243815
   39      C      -8.5855529250     0.2986424696     2.1632104795
   40      H      -7.4851897317    -1.0461588436     3.4948137503
   41      H      -9.3663355176     0.1064579545     2.9100308429
   42      H      -8.9887693117     0.1043959165     1.1612539823
   43      C      -8.0516820829     1.7540688228     2.3445666325
   44      H      -7.5745477311     1.8622343856     3.3264184651
   45      C      -9.2126268893     2.7189491735     2.4196470257
   46      H      -7.2692104293     2.0507915480     1.6356528609
   47      H      -9.8997432117     2.3687530719     3.1998135784
   48      H      -9.7840389707     2.6847761356     1.4835971142
   49      C      -8.7877780477     4.1255312710     2.7458390930
   50      H      -8.3935360780     4.1576777533     3.7686048888
   51      C     -10.0800360640     5.0141492842     2.6266030000
   52      H      -8.0061345182     4.4697186048     2.0562236408
   53      H     -10.7964357822     4.8556889002     3.4421658428
   54      H     -10.6668558624     4.8554107521     1.7130261819
   55      H      -9.7147957584     6.0328319457     2.4474210970
   56      C      -4.4733274814    -3.5603651162    -0.6199480417
   57      C      -3.8849197119    -3.7073302804     0.6498474290
   58      N      -3.8437229029    -3.0922554554    -1.6542480079
   59      C      -2.5365827156    -3.3749352035     0.7724274320
   60      C      -2.5848308467    -2.7318304890    -1.5836673123
   61      C      -1.8346689550    -2.8757383780    -0.3566299634
   62      C      -0.3474603013    -2.6535212325    -0.2864091643
   63      C       0.4582353325    -3.5046623371     0.5000476787
   64      C       0.4119679171    -1.7276433985    -1.1018961462
   65      N       1.7706246271    -3.4551670270     0.5434476042
   66      N      -0.1191829916    -0.8923093522    -1.9890025340
   67      C       1.8037160019    -1.7127681529    -1.1065860695
   68      C       2.4802600442    -2.6446019000    -0.2787219341
   69      S       1.0934673956    -0.2479050936    -2.7878374293
   70      N       2.3442294316    -1.0162736374    -2.1285521267
   71      C       3.9154229354    -2.5988962500    -0.1102568957
   72      S       4.9053762740    -4.0679038158     0.0984490197
   73      C       4.6848213772    -1.4758816766    -0.0712529762
   74      C       6.3784540485    -3.0524563372     0.2771730766
   75      S       4.1211651504     0.1248631802     0.0967665505
   76      C       6.0155259594    -1.7596764478     0.2166060911
   77      C       7.6812648387    -3.5433528661     0.5746653331
   78      C       5.7945021608     0.5490784895     0.2099638157
   79      C       6.6774162789    -0.4961417289     0.3782236001
   80      N       7.8579042404    -4.8738980283     0.6148286638
   81      S       9.0970327994    -2.5559950776     0.9046360579
   82      C       9.2024126397    -5.1471808031     0.8493402610
   83      C       9.9600662875    -4.0258748225     1.0539737084
   84      C      -5.9023392347    -3.9249669202    -0.9096995443
   85      H      -4.5496030258    -3.9743043714     1.4658449333
   86      H      -1.9169532800    -3.4266648090     1.6619067238
   87      H      -2.1617390554    -2.2803552462    -2.4798449962
   88      H      -0.0149323567    -4.2694337968     1.1151134901
   89      H       5.9682596161     1.6172321917     0.2058388582
   90      H       7.7459462728    -0.3965870814     0.5335507527
   91      H       9.5635026377    -6.1405197976     0.6188784303
   92      H      11.0247537818    -4.0067566142     1.2444180142
   93      H      -5.9997405310    -4.9838644408    -1.1803709843
   94      C      -6.6309080055    -3.0150935875    -1.9043005018
   95      H      -6.4394860729    -3.8898881651     0.0469732081
   96      H      -6.2748397303    -3.2656895295    -2.9112116484
   97      H      -6.3900456160    -1.9537446555    -1.7677107732
   98      C      -8.1614039450    -3.1232359963    -1.9001293300
   99      H      -8.5680228548    -4.0851861487    -2.2358136557
  100      C      -8.7868420238    -2.0173467824    -2.8099256018
  101      H      -8.5556731274    -3.0173281126    -0.8817701930
  102      H      -8.6061232598    -2.1482111567    -3.8836416928
  103      H      -8.4149467044    -1.0232388926    -2.5309876610
  104      C     -10.3308537059    -1.9310951632    -2.6713919109
  105      H     -10.7058391783    -2.9556954803    -2.7870642313
  106      C     -10.8217229506    -1.0087018925    -3.7565919104
  107      H     -10.5269674716    -1.5720151482    -1.6535830223
  108      H     -10.6336222581     0.0509038398    -3.5406664107
  109      H     -11.9177243062    -1.0387522297    -3.7902372027
  110      H     -10.4540802498    -1.1659248265    -4.7780809185
 ----------------------------------------------------------------

   10   -5663.5132581791      3.81E-06 Convergence criterion met
 Total energy in the final basis set = -5663.5132581791

                    Orbital Energies (a.u.)
 --------------------------------------------------------------

 Alpha MOs
 -- Occupied --
-88.993 -88.987 -88.934 -88.925 -88.925 -88.915 -88.914 -88.904
-14.394 -14.384 -14.381 -14.376 -14.352 -14.349 -14.343 -14.335
-14.332 -14.318 -10.274 -10.266 -10.261 -10.255 -10.254 -10.254
-10.249 -10.249 -10.247 -10.244 -10.241 -10.240 -10.238 -10.234
-10.233 -10.231 -10.228 -10.228 -10.227 -10.226 -10.224 -10.224
-10.224 -10.224 -10.223 -10.222 -10.219 -10.216 -10.216 -10.215
-10.213 -10.213 -10.210 -10.203 -10.201 -10.199 -10.199 -10.197
-10.187 -10.184 -10.182 -10.179 -10.179 -10.179 -10.176 -10.175
-10.175 -10.173 -10.172 -10.170  -8.049  -8.043  -7.996  -7.986
 -7.984  -7.975  -7.972  -7.966  -6.014  -6.008  -6.008  -6.007
 -6.003  -6.002  -5.960  -5.956  -5.953  -5.950  -5.949  -5.947
 -5.945  -5.943  -5.941  -5.939  -5.937  -5.936  -5.933  -5.931
 -5.930  -5.929  -5.927  -5.922  -1.052  -1.049  -0.972  -0.971
 -0.959  -0.956  -0.953  -0.933  -0.918  -0.912  -0.908  -0.906
 -0.845  -0.844  -0.839  -0.828  -0.818  -0.815  -0.814  -0.810
 -0.805  -0.805  -0.796  -0.795  -0.787  -0.786  -0.766  -0.765
 -0.750  -0.748  -0.742  -0.742  -0.721  -0.718  -0.712  -0.711
 -0.697  -0.691  -0.677  -0.674  -0.656  -0.652  -0.651  -0.646
 -0.636  -0.633  -0.630  -0.627  -0.615  -0.605  -0.601  -0.598
 -0.594  -0.590  -0.580  -0.580  -0.577  -0.575  -0.574  -0.571
 -0.553  -0.544  -0.543  -0.541  -0.527  -0.526  -0.516  -0.514
 -0.508  -0.505  -0.505  -0.501  -0.491  -0.487  -0.480  -0.477
 -0.475  -0.474  -0.471  -0.468  -0.466  -0.465  -0.450  -0.448
 -0.444  -0.443  -0.440  -0.436  -0.435  -0.432  -0.431  -0.430
 -0.428  -0.427  -0.426  -0.421  -0.421  -0.418  -0.415  -0.412
 -0.411  -0.409  -0.407  -0.403  -0.400  -0.398  -0.398  -0.396
 -0.394  -0.392  -0.391  -0.389  -0.388  -0.388  -0.386  -0.384
 -0.379  -0.377  -0.376  -0.373  -0.371  -0.368  -0.364  -0.359
 -0.355  -0.353  -0.351  -0.348  -0.346  -0.345  -0.343  -0.340
 -0.339  -0.337  -0.334  -0.333  -0.331  -0.328  -0.327  -0.323
 -0.318  -0.318  -0.316  -0.314  -0.308  -0.307  -0.302  -0.297
 -0.296  -0.295  -0.293  -0.290  -0.288  -0.287  -0.285  -0.284
 -0.278  -0.269  -0.269  -0.265  -0.258  -0.254  -0.247  -0.244
 -0.243  -0.239  -0.231  -0.227  -0.197  -0.188

          Ground-State Mulliken Net Atomic Charges

     Atom                 Charge (a.u.)
  ----------------------------------------
      1 C                     0.269121
      2 C                    -0.107015
      3 N                    -0.486028
      4 C                    -0.098579
      5 C                     0.068463
      6 C                     0.070882
      7 C                     0.010029
      8 C                     0.066711
      9 C                     0.281877
     10 N                    -0.517644
     11 N                    -0.573017
     12 C                     0.181768
     13 C                     0.293048
     14 S                     0.621091
     15 N                    -0.537164
     16 C                    -0.222812
     17 S                     0.299075
     18 C                    -0.112038
     19 C                    -0.240957
     20 S                     0.276190
     21 C                     0.165141
     22 C                     0.072261
     23 C                    -0.302819
     24 C                    -0.062217
     25 N                    -0.431915
     26 S                     0.279544
     27 C                     0.108947
     28 C                    -0.312321
     29 C                    -0.248665
     30 H                     0.101157
     31 H                     0.117424
     32 H                     0.115479
     33 H                     0.106576
     34 H                     0.123491
     35 H                     0.124657
     36 H                     0.121057
     37 H                     0.138962
     38 H                     0.106251
     39 C                    -0.187383
     40 H                     0.117366
     41 H                     0.100766
     42 H                     0.093300
     43 C                    -0.177197
     44 H                     0.098295
     45 C                    -0.160258
     46 H                     0.095965
     47 H                     0.088727
     48 H                     0.086569
     49 C                    -0.179363
     50 H                     0.098207
     51 C                    -0.323894
     52 H                     0.093798
     53 H                     0.107248
     54 H                     0.100862
     55 H                     0.097229
     56 C                     0.286900
     57 C                    -0.122893
     58 N                    -0.473407
     59 C                    -0.069941
     60 C                     0.085619
     61 C                     0.015191
     62 C                     0.054021
     63 C                     0.050794
     64 C                     0.188707
     65 N                    -0.479353
     66 N                    -0.548815
     67 C                     0.171319
     68 C                     0.222652
     69 S                     0.626337
     70 N                    -0.507280
     71 C                    -0.207295
     72 S                     0.323170
     73 C                    -0.111513
     74 C                    -0.214511
     75 S                     0.324145
     76 C                     0.149245
     77 C                     0.049372
     78 C                    -0.311652
     79 C                    -0.089961
     80 N                    -0.442760
     81 S                     0.281381
     82 C                     0.116381
     83 C                    -0.313973
     84 C                    -0.235313
     85 H                     0.100618
     86 H                     0.111304
     87 H                     0.117547
     88 H                     0.107615
     89 H                     0.136862
     90 H                     0.109275
     91 H                     0.116959
     92 H                     0.126526
     93 H                     0.117723
     94 C                    -0.156953
     95 H                     0.088911
     96 H                     0.112949
     97 H                     0.091704
     98 C                    -0.187092
     99 H                     0.090934
    100 C                    -0.175748
    101 H                     0.083324
    102 H                     0.094013
    103 H                     0.084046
    104 C                    -0.172581
    105 H                     0.094237
    106 C                    -0.322503
    107 H                     0.093962
    108 H                     0.101878
    109 H                     0.095965
    110 H                     0.105713
  ----------------------------------------
  Sum of atomic charges =     0.000000

                    Cartesian Multipole Moments
 -----------------------------------------------------------------
    Charge (ESU x 10^10)
                 0.0000
    Dipole Moment (Debye)
         X       0.9362      Y       3.0588      Z       0.1245
       Tot       3.2013
    Quadrupole Moments (Debye-Ang)
        XX    -383.0774     XY      24.0740     YY    -450.6791
        XZ       7.6564     YZ      -4.7646     ZZ    -444.5311

 Total job time:  116.97s(wall), 1258.84s(cpu)
        *  Thank you very much for using Q-Chem.  Have a nice day.  *
