 Q-Chem 4.4, Q-Chem, Inc., Pleasanton, CA (2016)
 Q-Chem 4.4.2 for Intel X86 Linux

User input:
--------------------------------------------------------------
$comment
SP
$end

$rem
MEM_STATIC 5000
MEM_TOTAL 20000
JOBTYPE SP
EXCHANGE B3LYP
BASIS 6-31g(d,p)
$end

$molecule
0 1
C           4.691000     13.520000     -0.763000
C           5.763000     14.437000     -0.878000
N           4.772000     12.333000     -1.384000
C           6.831000     14.140000     -1.683000
C           5.762000     12.075000     -2.256000
C           6.959000     12.904000     -2.359000
C           8.186000     12.534000     -3.087000
C           9.062000     13.482000     -3.698000
C           8.547000     11.172000     -3.325000
N          10.107000     13.171000     -4.460000
N           7.941000     10.147000     -2.690000
C           9.653000     10.830000     -4.114000
C          10.442000     11.882000     -4.657000
S           8.600000      8.830000     -3.323000
N           9.751000      9.462000     -4.244000
C          11.613000     11.666000     -5.539000
S          12.402000     10.093000     -5.918000
C          12.401000     12.634000     -6.137000
C          13.748000     10.855000     -6.741000
S          12.245000     14.392000     -6.032000
C          13.589000     12.188000     -6.718000
C          14.784000     10.100000     -7.321000
C          13.799000     14.555000     -6.920000
C          14.313000     13.275000     -7.226000
N          14.963000      8.889000     -6.804000
S          16.101000     10.713000     -8.230000
C          16.219000      8.529000     -6.952000
C          16.992000      9.331000     -7.742000
C           3.584000     13.658000      0.275000
H           5.835000     15.325000     -0.257000
H           7.640000     14.852000     -1.820000
H           5.544000     11.160000     -2.804000
H           8.825000     14.545000     -3.671000
H          14.354000     15.475000     -7.052000
H          15.312000     13.140000     -7.625000
H          16.469000      7.571000     -6.517000
H          18.027000      9.192000     -8.025000
H           3.695000     12.891000      1.051000
C           2.193000     13.411000     -0.415000
H           3.564000     14.645000      0.754000
H           2.315000     12.488000     -0.996000
H           1.845000     14.166000     -1.130000
C           0.988000     13.239000      0.493000
H           1.224000     12.415000      1.177000
C          -0.247000     12.808000     -0.253000
H           0.731000     14.184000      0.988000
H          -0.186000     11.821000     -0.727000
H          -0.557000     13.409000     -1.117000
C          -1.431000     12.858000      0.737000
H          -1.186000     11.985000      1.354000
C          -2.760000     12.819000      0.061000
H          -1.358000     13.795000      1.303000
H          -3.531000     13.192000      0.746000
H          -2.980000     11.802000     -0.288000
H          -2.707000     13.546000     -0.758000
C         -10.758000      9.711000      0.025000
C         -10.033000      9.888000     -1.168000
N         -10.299000      9.071000      1.057000
C          -8.733000      9.386000     -1.207000
C          -9.096000      8.549000      1.059000
C          -8.216000      8.697000     -0.078000
C          -6.770000      8.280000     -0.042000
C          -5.788000      9.079000     -0.666000
C          -6.220000      7.190000      0.738000
N          -4.495000      8.854000     -0.601000
N          -6.939000      6.360000      1.487000
C          -4.849000      6.984000      0.861000
C          -3.980000      7.884000      0.193000
S          -5.904000      5.487000      2.318000
N          -4.506000      6.132000      1.850000
C          -2.553000      7.657000      0.145000
S          -1.367000      8.989000      0.172000
C          -1.934000      6.447000      0.059000
C          -0.026000      7.801000      0.019000
S          -2.679000      4.960000     -0.318000
C          -0.556000      6.570000     -0.083000
C           1.352000      8.133000     -0.114000
C          -1.071000      4.322000     -0.329000
C          -0.049000      5.247000     -0.314000
N           1.701000      9.425000     -0.004000
S           2.655000      6.994000     -0.419000
C           3.086000      9.531000     -0.093000
C           3.710000      8.339000     -0.344000
C         -12.150000     10.241000      0.226000
H         -10.574000     10.315000     -2.007000
H          -8.027000      9.431000     -2.030000
H          -8.825000      7.966000      1.938000
H          -6.096000      9.953000     -1.239000
H          -1.037000      3.244000     -0.418000
H           1.008000      5.016000     -0.386000
H           3.547000     10.441000      0.267000
H           4.777000      8.191000     -0.443000
H         -12.137000     11.275000      0.593000
C         -13.084000      9.355000      1.057000
H         -12.590000     10.365000     -0.772000
H         -12.800000      9.464000      2.111000
H         -12.969000      8.287000      0.835000
C         -14.580000      9.672000      0.932000
H         -14.891000     10.647000      1.327000
C         -15.429000      8.586000      1.668000
H         -14.882000      9.712000     -0.122000
H         -15.340000      8.595000      2.761000
H         -15.162000      7.579000      1.323000
C         -16.950000      8.725000      1.389000
H         -17.200000      9.777000      1.575000
C         -17.660000      7.786000      2.329000
H         -17.089000      8.488000      0.327000
H         -17.589000      6.734000      2.024000
H         -18.741000      7.963000      2.271000
H         -17.378000      7.800000      3.389000
$end

--------------------------------------------------------------

             Standard Nuclear Orientation (Angstroms)
    I     Atom           X                Y                Z
 ----------------------------------------------------------------
    1      C      -2.9659738631    -3.1810322482     2.0298643542
    2      C      -4.1395123659    -3.9332476969     2.2753787151
    3      N      -3.0590791810    -2.0122821544     1.3767750663
    4      C      -5.3411868098    -3.5043813266     1.7764697383
    5      C      -4.2106899485    -1.6352592258     0.7948005380
    6      C      -5.4878816345    -2.2817620207     1.0802379800
    7      C      -6.8092369711    -1.7552554693     0.6939428521
    8      C      -7.9401939471    -2.5803715672     0.4119486265
    9      C      -7.0372992622    -0.3619345330     0.4733677860
   10      N      -9.1060455239    -2.1398790503    -0.0529668966
   11      N      -6.1458787357     0.5796594696     0.8473412869
   12      C      -8.2645718980     0.1174460171    -0.0027804742
   13      C      -9.3076183879    -0.8214496328    -0.2364532762
   14      S      -6.7742520498     1.9615962883     0.3326990740
   15      N      -8.2115291010     1.4809609158    -0.1923631286
   16      C     -10.6396521730    -0.4596166299    -0.7755115972
   17      S     -11.2859106446     1.2014351065    -1.0279954916
   18      C     -11.6859996860    -1.3170928670    -1.0678528103
   19      C     -12.8982880100     0.6235820562    -1.3967963647
   20      S     -11.7430564327    -3.0754294910    -0.8920067286
   21      C     -12.9187892043    -0.7171920157    -1.3289466101
   22      C     -13.9450778488     1.5066923424    -1.7193924834
   23      C     -13.4913603088    -3.0321952485    -1.3062450140
   24      C     -13.8948973708    -1.6993021090    -1.5445425557
   25      N     -13.8079703980     2.7444040167    -1.2555796353
   26      S     -15.5341864431     1.0695723722    -2.1886461537
   27      C     -14.9950582535     3.2809962781    -1.0768866907
   28      C     -16.0589890462     2.5802491211    -1.5686566474
   29      C      -1.6404534229    -3.4521074972     2.7308998540
   30      H      -4.1518578262    -4.7838646761     2.9504100805
   31      H      -6.2436080237    -4.0931600091     1.9149241200
   32      H      -4.0354620778    -0.7774319549     0.1478997986
   33      H      -7.8493814395    -3.6655379115     0.4441059537
   34      H     -14.1787906263    -3.8638422268    -1.2187700925
   35      H     -14.9384303931    -1.4297622435    -1.6620759229
   36      H     -14.9822840695     4.2767674055    -0.6552640134
   37      H     -17.1035653307     2.8621784492    -1.5653040649
   38      H      -1.4251778812    -2.6563884154     3.4542763700
   39      C      -0.4797342431    -3.4310648553     1.6705799999
   40      H      -1.6185447367    -4.4179833773     3.2511053843
   41      H      -0.6358139145    -2.5162375237     1.0848291232
   42      H      -0.4510319932    -4.2481081548     0.9398471982
   43      C       0.9437527743    -3.4135516014     2.1992112486
   44      H       1.0219775951    -2.5455885168     2.8648304799
   45      C       1.9650549277    -3.1891594901     1.1156559469
   46      H       1.2009876520    -4.3723076635     2.6668821064
   47      H       1.9055916027    -2.2171207210     0.6115024539
   48      H       1.9363028698    -3.8523825759     0.2420968718
   49      C       3.3619986231    -3.3858435154     1.7436047552
   50      H       3.4193685691    -2.4699226779     2.3441384418
   51      C       4.4399541810    -3.5609698653     0.7276910892
   52      H       3.3266851861    -4.2862526584     2.3694404656
   53      H       5.3154877581    -4.0245703264     1.1981276608
   54      H       4.6866891416    -2.5971925350     0.2642850936
   55      H       4.0620806798    -4.2941932689     0.0054071718
   56      C      12.4452848503    -1.6646620536    -1.7110917133
   57      C      11.3970870078    -1.7654040669    -2.6445451560
   58      N      12.3849163927    -0.9364220221    -0.6380925959
   59      C      10.2178188346    -1.0789864391    -2.3587437985
   60      C      11.3120301704    -0.2433786629    -0.3409342939
   61      C      10.1361673581    -0.2911429627    -1.1800637346
   62      C       8.8279032614     0.3347248322    -0.7765348551
   63      C       7.6124639840    -0.3278343823    -1.0518958005
   64      C       8.6702811086     1.5144609001     0.0495269265
   65      N       6.4321020018     0.0864835368    -0.6496704247
   66      N       9.6751036343     2.2497215129     0.5149144243
   67      C       7.4295758812     1.9230301783     0.5300762826
   68      C       6.2956479441     1.1428017533     0.1882634125
   69      S       9.0419586198     3.2875776275     1.5376055194
   70      N       7.4956620649     2.8426701531     1.5157582461
   71      C       4.9564282100     1.5757359498     0.5187486399
   72      S       3.6590683974     0.4337890022     0.9596156102
   73      C       4.5056504617     2.8608107634     0.5250052340
   74      C       2.5004066620     1.8014382916     1.1012927226
   75      S       5.3061856467     4.2113678513    -0.1409241691
   76      C       3.1397970401     2.9379279398     0.7753537349
   77      C       1.1091664124     1.6721475889     1.3742972690
   78      C       3.8602772308     5.0782952232     0.2471670377
   79      C       2.7697543510     4.3143403177     0.6041918982
   80      N       0.6358774800     0.4489510120     1.6623124087
   81      S      -0.0626899531     2.9816439128     1.3630262387
   82      C      -0.7194473997     0.5453418242     1.9642814169
   83      C      -1.2237975452     1.8088847121     1.8148448048
   84      C      13.7538104791    -2.3879021252    -1.8648755802
   85      H      11.6181241396    -2.2898646565    -3.5692151925
   86      H       9.3093946165    -1.0419829169    -2.9513534334
   87      H      11.3796580937     0.3967195310     0.5375142055
   88      H       7.6272054155    -1.2528138920    -1.6274517029
   89      H       3.9469325402     6.1467704122     0.0988005058
   90      H       1.7759185291     4.6961853691     0.8098097858
   91      H      -1.1778104887    -0.2769101295     2.4972223173
   92      H      -2.2458188422     2.1094011426     2.0028776303
   93      H      13.7065748004    -3.3984322002    -1.4398911593
   94      C      14.9934899561    -1.6266570616    -1.3836129206
   95      H      13.8746166866    -2.6022258388    -2.9346658429
   96      H      15.0055552566    -1.6641322485    -0.2872995353
   97      H      14.9644227599    -0.5597640786    -1.6366494021
   98      C      16.3375891051    -2.1634097008    -1.8929498247
   99      H      16.6140000296    -3.1624759078    -1.5340142944
  100      C      17.4964870791    -1.1944891018    -1.4928981295
  101      H      16.3227250027    -2.2759065362    -2.9842075946
  102      H      17.7181850397    -1.1606987118    -0.4194181699
  103      H      17.2802284223    -0.1688966287    -1.8180984869
  104      C      18.8447985377    -1.5630883282    -2.1687633681
  105      H      18.9941626793    -2.6349827009    -1.9883948372
  106      C      19.9093597226    -0.7135558759    -1.5250047985
  107      H      18.7097916212    -1.3779514332    -3.2415314990
  108      H      19.8966183012     0.3288002347    -1.8686636336
  109      H      20.8966449107    -1.0490571571    -1.8655350435
  110      H      19.9377037352    -0.6572299970    -0.4298591405
 ----------------------------------------------------------------

    9   -5663.5163667003      8.01E-06 Convergence criterion met
 Total energy in the final basis set = -5663.5163667003

                    Orbital Energies (a.u.)
 --------------------------------------------------------------

 Alpha MOs
 -- Occupied --
-88.991 -88.989 -88.934 -88.924 -88.918 -88.917 -88.911 -88.910
-14.386 -14.383 -14.380 -14.378 -14.352 -14.345 -14.339 -14.336
-14.328 -14.319 -10.267 -10.264 -10.261 -10.258 -10.257 -10.255
-10.255 -10.251 -10.242 -10.241 -10.236 -10.235 -10.232 -10.232
-10.231 -10.231 -10.230 -10.229 -10.229 -10.228 -10.228 -10.228
-10.226 -10.226 -10.225 -10.221 -10.220 -10.219 -10.217 -10.216
-10.214 -10.208 -10.205 -10.203 -10.202 -10.202 -10.202 -10.197
-10.187 -10.181 -10.175 -10.174 -10.172 -10.171 -10.168 -10.164
-10.160 -10.155 -10.154 -10.152  -8.047  -8.046  -7.996  -7.985
 -7.976  -7.975  -7.973  -7.969  -6.012  -6.011  -6.006  -6.005
 -6.005  -6.004  -5.960  -5.956  -5.953  -5.949  -5.946  -5.942
 -5.941  -5.940  -5.937  -5.937  -5.936  -5.934  -5.934  -5.933
 -5.932  -5.930  -5.929  -5.926  -1.054  -1.046  -0.990  -0.963
 -0.960  -0.955  -0.954  -0.938  -0.921  -0.915  -0.911  -0.904
 -0.848  -0.840  -0.833  -0.830  -0.822  -0.816  -0.812  -0.804
 -0.802  -0.801  -0.798  -0.798  -0.786  -0.782  -0.768  -0.767
 -0.750  -0.747  -0.744  -0.739  -0.722  -0.719  -0.711  -0.709
 -0.691  -0.691  -0.676  -0.675  -0.652  -0.651  -0.647  -0.642
 -0.634  -0.633  -0.631  -0.624  -0.612  -0.605  -0.604  -0.594
 -0.593  -0.592  -0.580  -0.579  -0.574  -0.571  -0.561  -0.557
 -0.547  -0.546  -0.545  -0.542  -0.530  -0.528  -0.522  -0.516
 -0.509  -0.508  -0.502  -0.499  -0.485  -0.483  -0.479  -0.476
 -0.474  -0.472  -0.471  -0.470  -0.466  -0.465  -0.453  -0.447
 -0.445  -0.444  -0.440  -0.438  -0.435  -0.434  -0.432  -0.428
 -0.427  -0.426  -0.424  -0.419  -0.417  -0.415  -0.413  -0.412
 -0.409  -0.408  -0.407  -0.406  -0.399  -0.398  -0.396  -0.393
 -0.392  -0.391  -0.390  -0.389  -0.388  -0.383  -0.381  -0.380
 -0.379  -0.377  -0.371  -0.370  -0.368  -0.367  -0.363  -0.352
 -0.352  -0.351  -0.348  -0.347  -0.344  -0.343  -0.339  -0.336
 -0.335  -0.333  -0.330  -0.328  -0.319  -0.317  -0.316  -0.314
 -0.313  -0.312  -0.310  -0.306  -0.304  -0.303  -0.302  -0.299
 -0.297  -0.294  -0.293  -0.290  -0.287  -0.286  -0.280  -0.279
 -0.278  -0.271  -0.269  -0.267  -0.255  -0.250  -0.245  -0.244
 -0.242  -0.241  -0.229  -0.228  -0.191  -0.191

          Ground-State Mulliken Net Atomic Charges

     Atom                 Charge (a.u.)
  ----------------------------------------
      1 C                     0.281890
      2 C                    -0.131059
      3 N                    -0.472940
      4 C                    -0.072242
      5 C                     0.085612
      6 C                     0.024260
      7 C                     0.051918
      8 C                     0.058971
      9 C                     0.179473
     10 N                    -0.526545
     11 N                    -0.534119
     12 C                     0.216520
     13 C                     0.311552
     14 S                     0.615486
     15 N                    -0.552327
     16 C                    -0.226066
     17 S                     0.341412
     18 C                    -0.140784
     19 C                    -0.214944
     20 S                     0.287255
     21 C                     0.192869
     22 C                     0.024136
     23 C                    -0.310864
     24 C                    -0.099155
     25 N                    -0.399523
     26 S                     0.289523
     27 C                     0.128673
     28 C                    -0.319279
     29 C                    -0.227216
     30 H                     0.092073
     31 H                     0.093177
     32 H                     0.115161
     33 H                     0.110884
     34 H                     0.131744
     35 H                     0.101720
     36 H                     0.112126
     37 H                     0.137636
     38 H                     0.115911
     39 C                    -0.194265
     40 H                     0.096371
     41 H                     0.131929
     42 H                     0.086487
     43 C                    -0.170421
     44 H                     0.099501
     45 C                    -0.187823
     46 H                     0.082357
     47 H                     0.116498
     48 H                     0.071450
     49 C                    -0.172172
     50 H                     0.103381
     51 C                    -0.326864
     52 H                     0.079597
     53 H                     0.091361
     54 H                     0.122094
     55 H                     0.094764
     56 C                     0.284432
     57 C                    -0.124229
     58 N                    -0.466666
     59 C                    -0.077949
     60 C                     0.090991
     61 C                     0.019933
     62 C                     0.046812
     63 C                     0.058934
     64 C                     0.202827
     65 N                    -0.479203
     66 N                    -0.538044
     67 C                     0.163876
     68 C                     0.229255
     69 S                     0.610581
     70 N                    -0.507665
     71 C                    -0.214708
     72 S                     0.346991
     73 C                    -0.097760
     74 C                    -0.227896
     75 S                     0.273026
     76 C                     0.156772
     77 C                     0.053093
     78 C                    -0.295276
     79 C                    -0.084046
     80 N                    -0.454893
     81 S                     0.278394
     82 C                     0.137964
     83 C                    -0.322986
     84 C                    -0.234342
     85 H                     0.094331
     86 H                     0.102529
     87 H                     0.119278
     88 H                     0.109469
     89 H                     0.127277
     90 H                     0.114182
     91 H                     0.129072
     92 H                     0.130727
     93 H                     0.117790
     94 C                    -0.154612
     95 H                     0.086965
     96 H                     0.111951
     97 H                     0.097567
     98 C                    -0.185797
     99 H                     0.088119
    100 C                    -0.173630
    101 H                     0.084556
    102 H                     0.091445
    103 H                     0.089440
    104 C                    -0.173023
    105 H                     0.092232
    106 C                    -0.322045
    107 H                     0.095364
    108 H                     0.102468
    109 H                     0.094355
    110 H                     0.104608
  ----------------------------------------
  Sum of atomic charges =     0.000000

                    Cartesian Multipole Moments
 -----------------------------------------------------------------
    Charge (ESU x 10^10)
                 0.0000
    Dipole Moment (Debye)
         X      -3.8396      Y       1.2896      Z      -0.4190
       Tot       4.0720
    Quadrupole Moments (Debye-Ang)
        XX    -359.8017     XY       4.7714     YY    -413.7093
        XZ     -13.8958     YZ       0.8564     ZZ    -444.2008

 Total job time:  88.30s(wall), 961.70s(cpu)
        *  Thank you very much for using Q-Chem.  Have a nice day.  *
