 Q-Chem 4.4, Q-Chem, Inc., Pleasanton, CA (2016)
 Q-Chem 4.4.2 for Intel X86 Linux

User input:
--------------------------------------------------------------
$comment
SP
$end

$rem
MEM_STATIC 5000
MEM_TOTAL 20000
JOBTYPE SP
EXCHANGE B3LYP
BASIS 6-31g(d,p)
$end

$molecule
0 1
C         -11.006000     13.463000      2.821000
C          -9.902000     12.919000      2.027000
N         -11.013000     14.724000      3.276000
C          -8.840000     13.840000      1.711000
C          -9.985000     15.560000      2.922000
C          -8.825000     15.184000      2.204000
C          -7.741000     16.157000      1.976000
C          -6.833000     16.102000      0.829000
C          -7.198000     16.958000      3.045000
N          -5.733000     16.911000      0.766000
N          -7.729000     16.968000      4.244000
C          -6.036000     17.694000      2.966000
C          -5.334000     17.682000      1.787000
S          -6.765000     17.876000      5.179000
N          -5.624000     18.278000      4.070000
C          -4.144000     18.479000      1.639000
S          -3.773000     20.066000      2.338000
C          -2.978000     18.008000      1.015000
C          -1.994000     19.885000      2.034000
S          -2.717000     16.477000      0.150000
C          -1.789000     18.740000      1.283000
C          -0.942000     20.717000      2.578000
C          -0.968000     16.832000      0.166000
C          -0.639000     18.028000      0.826000
N           0.361000     20.470000      2.456000
S          -1.262000     22.187000      3.348000
C           1.185000     21.342000      3.164000
C           0.473000     22.348000      3.720000
C         -12.123000     12.567000      3.376000
H          -9.805000     11.852000      1.851000
H          -8.000000     13.550000      1.088000
H          -9.990000     16.584000      3.292000
H          -7.045000     15.440000     -0.010000
H          -0.229000     16.187000     -0.288000
H           0.338000     18.432000      1.065000
H           2.263000     21.262000      3.128000
H           0.785000     23.205000      4.302000
H         -12.079000     11.545000      2.979000
C         -13.496000     13.192000      3.119000
H         -11.873000     12.403000      4.431000
H         -13.648000     13.278000      2.036000
H         -13.651000     14.130000      3.666000
C         -14.508000     12.239000      3.709000
H         -14.306000     11.262000      3.254000
C         -15.928000     12.621000      3.177000
H         -14.400000     12.191000      4.799000
H         -16.059000     12.370000      2.117000
H         -16.000000     13.699000      3.370000
C         -17.073000     11.926000      3.932000
H         -17.054000     10.877000      3.612000
C         -18.447000     12.653000      3.900000
H         -16.749000     11.940000      4.980000
H         -19.280000     12.181000      4.437000
H         -18.734000     12.823000      2.855000
H         -18.423000     13.603000      4.448000
C         -10.758000      9.711000      0.025000
C         -10.033000      9.888000     -1.168000
N         -10.299000      9.071000      1.057000
C          -8.733000      9.386000     -1.207000
C          -9.096000      8.549000      1.059000
C          -8.216000      8.697000     -0.078000
C          -6.770000      8.280000     -0.042000
C          -5.788000      9.079000     -0.666000
C          -6.220000      7.190000      0.738000
N          -4.495000      8.854000     -0.601000
N          -6.939000      6.360000      1.487000
C          -4.849000      6.984000      0.861000
C          -3.980000      7.884000      0.193000
S          -5.904000      5.487000      2.318000
N          -4.506000      6.132000      1.850000
C          -2.553000      7.657000      0.145000
S          -1.367000      8.989000      0.172000
C          -1.934000      6.447000      0.059000
C          -0.026000      7.801000      0.019000
S          -2.679000      4.960000     -0.318000
C          -0.556000      6.570000     -0.083000
C           1.352000      8.133000     -0.114000
C          -1.071000      4.322000     -0.329000
C          -0.049000      5.247000     -0.314000
N           1.701000      9.425000     -0.004000
S           2.655000      6.994000     -0.419000
C           3.086000      9.531000     -0.093000
C           3.710000      8.339000     -0.344000
C         -12.150000     10.241000      0.226000
H         -10.574000     10.315000     -2.007000
H          -8.027000      9.431000     -2.030000
H          -8.825000      7.966000      1.938000
H          -6.096000      9.953000     -1.239000
H          -1.037000      3.244000     -0.418000
H           1.008000      5.016000     -0.386000
H           3.547000     10.441000      0.267000
H           4.777000      8.191000     -0.443000
H         -12.137000     11.275000      0.593000
C         -13.084000      9.355000      1.057000
H         -12.590000     10.365000     -0.772000
H         -12.800000      9.464000      2.111000
H         -12.969000      8.287000      0.835000
C         -14.580000      9.672000      0.932000
H         -14.891000     10.647000      1.327000
C         -15.429000      8.586000      1.668000
H         -14.882000      9.712000     -0.122000
H         -15.340000      8.595000      2.761000
H         -15.162000      7.579000      1.323000
C         -16.950000      8.725000      1.389000
H         -17.200000      9.777000      1.575000
C         -17.660000      7.786000      2.329000
H         -17.089000      8.488000      0.327000
H         -17.589000      6.734000      2.024000
H         -18.741000      7.963000      2.271000
H         -17.378000      7.800000      3.389000
$end

--------------------------------------------------------------

             Standard Nuclear Orientation (Angstroms)
    I     Atom           X                Y                Z
 ----------------------------------------------------------------
    1      C      -4.1551985979     3.1630883277     0.4389162112
    2      C      -3.3257551413     2.0752428718    -0.0843464534
    3      N      -3.6804218572     4.4017581672     0.6325113434
    4      C      -1.9737179301     2.4275362246    -0.4362353182
    5      C      -2.3917045310     4.6818675322     0.2560244287
    6      C      -1.4474201700     3.7411234953    -0.2191888946
    7      C      -0.0581964647     4.1520877875    -0.4929311950
    8      C       0.7997579234     3.4951497584    -1.4805772317
    9      C       0.7135593785     4.9126248210     0.4584821427
   10      N       2.1318963923     3.7911311734    -1.5596474650
   11      N       0.1814150580     5.3989977356     1.5538933944
   12      C       2.0742827201     5.1160515219     0.3861594974
   13      C       2.7616527393     4.5679961272    -0.6674755158
   14      S       1.3872000977     6.0657024506     2.4080434169
   15      N       2.6384428355     5.7394889413     1.3974285755
   16      C       4.1750605699     4.7996197577    -0.8152652253
   17      S       5.1157579624     6.2444349357    -0.4000441794
   18      C       5.0833443163     3.7931378084    -1.1796657217
   19      C       6.6881180980     5.3407211094    -0.4317131589
   20      S       4.7512955634     2.1217568647    -1.6861599139
   21      C       6.4530397478     4.0629810443    -0.9104296671
   22      C       7.9604980139     5.8157116899     0.0685840508
   23      C       6.4954948027     1.7840026237    -1.5159450897
   24      C       7.2442860978     2.8849959910    -1.0671888064
   25      N       9.0626703423     5.0744411050     0.1657235310
   26      S       8.2181439639     7.4326911817     0.4871481290
   27      C      10.1350746328     5.7092179745     0.7883240159
   28      C       9.8580319598     7.0085063425     1.0397461591
   29      C      -5.5575559170     2.9091958853     1.0111596711
   30      H      -3.6525121313     1.0410770185    -0.0333086503
   31      H      -1.2927315042     1.7065939052    -0.8770625630
   32      H      -2.0055536229     5.6875951730     0.4138229984
   33      H       0.3772670740     2.7875497369    -2.1932571681
   34      H       6.9362155461     0.8218494492    -1.7356915232
   35      H       8.2907173814     2.9339610592    -0.7888904222
   36      H      11.0935553953     5.2224718122     0.9073735906
   37      H      10.4600545690     7.7938681055     1.4771163449
   38      H      -5.9060388027     1.8843093511     0.8317264789
   39      C      -6.5585858459     3.9282849771     0.4623432132
   40      H      -5.4364584158     2.9116090079     2.1009993713
   41      H      -6.6195706852     3.8124787367    -0.6268118557
   42      H      -6.3513458218     4.9543787441     0.7898506997
   43      C      -7.8886656828     3.5917506348     1.0932831975
   44      H      -8.0720233753     2.5342108073     0.8689007784
   45      C      -9.0178627305     4.3470942822     0.3188685787
   46      H      -7.8532610815     3.7598526827     2.1761295466
   47      H      -9.1941057370     3.9264548597    -0.6790106119
   48      H      -8.6645122112     5.3856222855     0.2854022254
   49      C     -10.3744183023     4.3302432558     1.0424347632
   50      H     -10.7596850293     3.3083684201     0.9399488171
   51      C     -11.3451470076     5.4931807271     0.6921617000
   52      H     -10.1146089719     4.4627545035     2.0999865970
   53      H     -12.3182275799     5.5082366549     1.2000293193
   54      H     -11.4982112230     5.5124178884    -0.3938840069
   55      H     -10.9690168052     6.4627385595     1.0412514885
   56      C      -5.3004569336    -0.9414528736    -1.5098651699
   57      C      -4.5165044361    -1.3319228151    -2.6112981939
   58      N      -5.1754007725    -1.4500843594    -0.3220268104
   59      C      -3.5215564442    -2.2815681251    -2.3837519824
   60      C      -4.2790249121    -2.3715972556    -0.0631420893
   61      C      -3.3666974232    -2.8336081437    -1.0845516508
   62      C      -2.2072205198    -3.7447716273    -0.7820695579
   63      C      -0.9643052673    -3.5428860155    -1.4196469061
   64      C      -2.1667516320    -4.7495349772     0.2609131265
   65      N       0.1297596796    -4.2174395383    -1.1463367587
   66      N      -3.1858543992    -5.0495532850     1.0598377568
   67      C      -0.9959903509    -5.4230715395     0.5968781869
   68      C       0.1851188195    -5.0981460580    -0.1178172441
   69      S      -2.6166300196    -6.0308914644     2.1719861207
   70      N      -1.0595970819    -6.0880027600     1.7696930298
   71      C       1.4059189485    -5.8511591278     0.0632362335
   72      S       3.0205524173    -5.0977900366    -0.0200870758
   73      C       1.4975625230    -7.1896982766     0.2968414611
   74      C       3.7858608462    -6.7044612856     0.2367095488
   75      S       0.2402954564    -8.3293261561     0.1269861714
   76      C       2.8159994430    -7.6320641229     0.3114546804
   77      C       5.1867709892    -6.9573133690     0.2190009310
   78      C       1.4626810500    -9.5106621751     0.4479965619
   79      C       2.7660655157    -9.0631991536     0.4119441177
   80      N       6.0144745333    -5.9048728893     0.1168203086
   81      S       5.9428717984    -8.5408313826     0.3135380492
   82      C       7.3304235497    -6.3528773534     0.1871920817
   83      C       7.4405428079    -7.7152906930     0.2575102244
   84      C      -6.3753190781     0.1054479950    -1.5972433231
   85      H      -4.8090977005    -0.9387763385    -3.5801924242
   86      H      -2.8224991902    -2.6977446615    -3.1020179820
   87      H      -4.2975409861    -2.7935437293     0.9406454023
   88      H      -0.8769082312    -2.7752936676    -2.1879129704
   89      H       1.0702200444   -10.5108206603     0.5776821957
   90      H       3.6469072807    -9.6857610978     0.5229774940
   91      H       8.0992019026    -5.6274985293     0.4174667124
   92      H       8.3645605733    -8.2734292606     0.3272705885
   93      H      -5.9685724494     1.1126598791    -1.4420163904
   94      C      -7.6171687695    -0.1447321217    -0.7351921337
   95      H      -6.6888686336     0.1520133214    -2.6481944859
   96      H      -7.3566368432     0.0894531565     0.3043911342
   97      H      -7.9259297053    -1.1972157260    -0.7263633584
   98      C      -8.8584980204     0.6750454667    -1.1109532234
   99      H      -8.7734489459     1.7580468952    -0.9584882744
  100      C     -10.0977727118     0.1914820601    -0.2910400141
  101      H      -9.0764797482     0.5812759281    -2.1821260573
  102      H     -10.0573241046     0.4185635908     0.7810835276
  103      H     -10.2379084650    -0.8920634190    -0.3942590309
  104      C     -11.4262807771     0.8254698214    -0.7847290246
  105      H     -11.2462068226     1.9062145564    -0.8427306513
  106      C     -12.4881530171     0.4684425909     0.2224352632
  107      H     -11.6042301147     0.4199416385    -1.7883300041
  108      H     -12.8275297633    -0.5722735711     0.1417922582
  109      H     -13.4070888912     1.0215885243    -0.0074352130
  110      H     -12.2673563955     0.6195717119     1.2862627119
 ----------------------------------------------------------------

    9   -5663.5050555737      9.11E-06 Convergence criterion met
 Total energy in the final basis set = -5663.5050555737

                    Orbital Energies (a.u.)
 --------------------------------------------------------------

 Alpha MOs
 -- Occupied --
-88.993 -88.984 -88.929 -88.924 -88.920 -88.917 -88.914 -88.908
-14.387 -14.382 -14.381 -14.376 -14.348 -14.348 -14.340 -14.334
-14.328 -14.327 -10.266 -10.265 -10.261 -10.260 -10.255 -10.254
-10.250 -10.247 -10.243 -10.242 -10.239 -10.239 -10.234 -10.234
-10.234 -10.233 -10.233 -10.232 -10.231 -10.231 -10.230 -10.229
-10.226 -10.226 -10.225 -10.225 -10.224 -10.224 -10.224 -10.220
-10.217 -10.214 -10.209 -10.209 -10.206 -10.206 -10.206 -10.193
-10.186 -10.182 -10.178 -10.178 -10.177 -10.174 -10.174 -10.173
-10.173 -10.172 -10.171 -10.170  -8.050  -8.040  -7.991  -7.982
 -7.979  -7.978  -7.976  -7.967  -6.015  -6.009  -6.008  -6.005
 -5.999  -5.997  -5.955  -5.951  -5.948  -5.947  -5.943  -5.943
 -5.943  -5.941  -5.940  -5.939  -5.939  -5.937  -5.936  -5.935
 -5.932  -5.931  -5.928  -5.923  -1.058  -1.050  -0.964  -0.962
 -0.961  -0.960  -0.954  -0.927  -0.925  -0.915  -0.915  -0.898
 -0.852  -0.835  -0.833  -0.828  -0.820  -0.810  -0.809  -0.808
 -0.805  -0.803  -0.793  -0.791  -0.790  -0.773  -0.771  -0.764
 -0.753  -0.749  -0.748  -0.737  -0.725  -0.716  -0.715  -0.706
 -0.696  -0.690  -0.680  -0.674  -0.656  -0.655  -0.652  -0.643
 -0.639  -0.637  -0.636  -0.624  -0.610  -0.605  -0.599  -0.597
 -0.591  -0.588  -0.584  -0.580  -0.578  -0.574  -0.572  -0.565
 -0.550  -0.548  -0.547  -0.537  -0.532  -0.521  -0.520  -0.515
 -0.507  -0.507  -0.503  -0.498  -0.491  -0.486  -0.483  -0.482
 -0.476  -0.476  -0.473  -0.470  -0.469  -0.464  -0.454  -0.450
 -0.448  -0.440  -0.438  -0.436  -0.434  -0.431  -0.430  -0.428
 -0.426  -0.426  -0.424  -0.423  -0.422  -0.419  -0.418  -0.414
 -0.410  -0.409  -0.408  -0.403  -0.399  -0.397  -0.396  -0.394
 -0.394  -0.393  -0.393  -0.390  -0.388  -0.383  -0.382  -0.380
 -0.376  -0.375  -0.375  -0.373  -0.372  -0.370  -0.364  -0.356
 -0.352  -0.352  -0.351  -0.349  -0.348  -0.345  -0.343  -0.340
 -0.338  -0.337  -0.334  -0.332  -0.329  -0.327  -0.323  -0.320
 -0.320  -0.316  -0.311  -0.309  -0.305  -0.301  -0.300  -0.298
 -0.296  -0.295  -0.294  -0.291  -0.283  -0.281  -0.280  -0.274
 -0.273  -0.271  -0.264  -0.259  -0.254  -0.251  -0.251  -0.247
 -0.245  -0.239  -0.234  -0.226  -0.195  -0.192

          Ground-State Mulliken Net Atomic Charges

     Atom                 Charge (a.u.)
  ----------------------------------------
      1 C                     0.256732
      2 C                    -0.139023
      3 N                    -0.479417
      4 C                    -0.096881
      5 C                     0.081409
      6 C                     0.070012
      7 C                     0.003543
      8 C                     0.051889
      9 C                     0.240042
     10 N                    -0.516262
     11 N                    -0.538620
     12 C                     0.226233
     13 C                     0.280734
     14 S                     0.587845
     15 N                    -0.556142
     16 C                    -0.197761
     17 S                     0.313276
     18 C                    -0.128235
     19 C                    -0.241816
     20 S                     0.277555
     21 C                     0.174833
     22 C                     0.092141
     23 C                    -0.315293
     24 C                    -0.053415
     25 N                    -0.470576
     26 S                     0.248005
     27 C                     0.140644
     28 C                    -0.315146
     29 C                    -0.234975
     30 H                     0.114963
     31 H                     0.092479
     32 H                     0.112001
     33 H                     0.118328
     34 H                     0.132530
     35 H                     0.130615
     36 H                     0.122407
     37 H                     0.130110
     38 H                     0.109982
     39 C                    -0.163094
     40 H                     0.120307
     41 H                     0.095274
     42 H                     0.124609
     43 C                    -0.189523
     44 H                     0.096910
     45 C                    -0.182349
     46 H                     0.093931
     47 H                     0.092689
     48 H                     0.090086
     49 C                    -0.182856
     50 H                     0.099311
     51 C                    -0.321583
     52 H                     0.089352
     53 H                     0.099959
     54 H                     0.101336
     55 H                     0.103634
     56 C                     0.281541
     57 C                    -0.120871
     58 N                    -0.469655
     59 C                    -0.082466
     60 C                     0.085182
     61 C                     0.022374
     62 C                     0.046558
     63 C                     0.058477
     64 C                     0.203325
     65 N                    -0.476020
     66 N                    -0.539016
     67 C                     0.164268
     68 C                     0.228910
     69 S                     0.612598
     70 N                    -0.506643
     71 C                    -0.202131
     72 S                     0.330081
     73 C                    -0.096781
     74 C                    -0.213403
     75 S                     0.273851
     76 C                     0.153746
     77 C                     0.049409
     78 C                    -0.294960
     79 C                    -0.084910
     80 N                    -0.441458
     81 S                     0.284946
     82 C                     0.116804
     83 C                    -0.313200
     84 C                    -0.241811
     85 H                     0.097735
     86 H                     0.105247
     87 H                     0.121814
     88 H                     0.106906
     89 H                     0.128409
     90 H                     0.114040
     91 H                     0.118790
     92 H                     0.129130
     93 H                     0.124444
     94 C                    -0.161743
     95 H                     0.088796
     96 H                     0.113414
     97 H                     0.098871
     98 C                    -0.191769
     99 H                     0.097089
    100 C                    -0.177852
    101 H                     0.083597
    102 H                     0.094386
    103 H                     0.090686
    104 C                    -0.178173
    105 H                     0.097412
    106 C                    -0.323355
    107 H                     0.095056
    108 H                     0.102537
    109 H                     0.096469
    110 H                     0.106575
  ----------------------------------------
  Sum of atomic charges =     0.000000

                    Cartesian Multipole Moments
 -----------------------------------------------------------------
    Charge (ESU x 10^10)
                 0.0000
    Dipole Moment (Debye)
         X       0.6233      Y      -3.8834      Z       0.7839
       Tot       4.0104
    Quadrupole Moments (Debye-Ang)
        XX    -407.4947     XY       5.0244     YY    -397.1154
        XZ      18.7076     YZ       4.0460     ZZ    -445.1938

 Total job time:  87.39s(wall), 976.65s(cpu)
        *  Thank you very much for using Q-Chem.  Have a nice day.  *
