 Q-Chem 4.4, Q-Chem, Inc., Pleasanton, CA (2016)
 Q-Chem 4.4.2 for Intel X86 Linux

User input:
--------------------------------------------------------------
$comment
SP
$end

$rem
MEM_STATIC 5000
MEM_TOTAL 20000
JOBTYPE SP
EXCHANGE B3LYP
BASIS 6-31g(d,p)
$end

$molecule
0 1
C           8.030000     17.966000     -7.283000
C           6.664000     17.723000     -7.488000
N           8.841000     16.992000     -6.773000
C           6.083000     16.515000     -6.994000
C           8.352000     15.749000     -6.500000
C           6.940000     15.482000     -6.701000
C           6.445000     14.165000     -6.454000
C           5.275000     13.913000     -5.735000
C           7.057000     13.058000     -7.016000
N           4.737000     12.678000     -5.534000
N           8.215000     13.109000     -7.724000
C           6.595000     11.754000     -6.761000
C           5.436000     11.563000     -5.942000
S           8.785000     11.591000     -7.894000
N           7.469000     10.773000     -7.265000
C           4.928000     10.276000     -5.465000
S           5.609000      8.742000     -5.924000
C           3.812000     10.089000     -4.670000
C           4.296000      7.777000     -4.987000
S           2.762000     11.224000     -3.907000
C           3.505000      8.712000     -4.357000
C           4.022000      6.367000     -5.058000
C           1.759000      9.872000     -3.240000
C           2.318000      8.654000     -3.531000
N           4.473000      5.760000     -6.144000
S           3.242000      5.425000     -3.845000
C           4.187000      4.429000     -6.009000
C           3.591000      4.030000     -4.792000
C           8.622000     19.269000     -7.768000
H           6.027000     18.540000     -7.812000
H           5.018000     16.450000     -7.196000
H           9.154000     15.039000     -6.303000
H           4.593000     14.724000     -5.483000
H           0.964000     10.158000     -2.564000
H           1.818000      7.712000     -3.335000
H           4.497000      3.756000     -6.798000
H           3.288000      3.058000     -4.426000
H           9.446000     19.100000     -8.472000
C           9.037000     20.263000     -6.609000
H           7.896000     19.820000     -8.379000
H           9.981000     19.953000     -6.145000
H           8.285000     20.256000     -5.810000
C           9.210000     21.673000     -7.130000
H           9.994000     21.684000     -7.896000
C           9.576000     22.733000     -6.014000
H           8.303000     21.977000     -7.668000
H          10.390000     22.261000     -5.449000
H           8.705000     22.803000     -5.350000
C           9.882000     24.083000     -6.680000
H          10.845000     24.114000     -7.205000
C          10.014000     25.299000     -5.690000
H           9.258000     24.347000     -7.543000
H           9.113000     25.357000     -5.067000
H          10.172000     26.295000     -6.120000
H          10.912000     25.022000     -5.123000
C         -10.758000      9.711000      0.025000
C         -10.033000      9.888000     -1.168000
N         -10.299000      9.071000      1.057000
C          -8.733000      9.386000     -1.207000
C          -9.096000      8.549000      1.059000
C          -8.216000      8.697000     -0.078000
C          -6.770000      8.280000     -0.042000
C          -5.788000      9.079000     -0.666000
C          -6.220000      7.190000      0.738000
N          -4.495000      8.854000     -0.601000
N          -6.939000      6.360000      1.487000
C          -4.849000      6.984000      0.861000
C          -3.980000      7.884000      0.193000
S          -5.904000      5.487000      2.318000
N          -4.506000      6.132000      1.850000
C          -2.553000      7.657000      0.145000
S          -1.367000      8.989000      0.172000
C          -1.934000      6.447000      0.059000
C          -0.026000      7.801000      0.019000
S          -2.679000      4.960000     -0.318000
C          -0.556000      6.570000     -0.083000
C           1.352000      8.133000     -0.114000
C          -1.071000      4.322000     -0.329000
C          -0.049000      5.247000     -0.314000
N           1.701000      9.425000     -0.004000
S           2.655000      6.994000     -0.419000
C           3.086000      9.531000     -0.093000
C           3.710000      8.339000     -0.344000
C         -12.150000     10.241000      0.226000
H         -10.574000     10.315000     -2.007000
H          -8.027000      9.431000     -2.030000
H          -8.825000      7.966000      1.938000
H          -6.096000      9.953000     -1.239000
H          -1.037000      3.244000     -0.418000
H           1.008000      5.016000     -0.386000
H           3.547000     10.441000      0.267000
H           4.777000      8.191000     -0.443000
H         -12.137000     11.275000      0.593000
C         -13.084000      9.355000      1.057000
H         -12.590000     10.365000     -0.772000
H         -12.800000      9.464000      2.111000
H         -12.969000      8.287000      0.835000
C         -14.580000      9.672000      0.932000
H         -14.891000     10.647000      1.327000
C         -15.429000      8.586000      1.668000
H         -14.882000      9.712000     -0.122000
H         -15.340000      8.595000      2.761000
H         -15.162000      7.579000      1.323000
C         -16.950000      8.725000      1.389000
H         -17.200000      9.777000      1.575000
C         -17.660000      7.786000      2.329000
H         -17.089000      8.488000      0.327000
H         -17.589000      6.734000      2.024000
H         -18.741000      7.963000      2.271000
H         -17.378000      7.800000      3.389000
$end

--------------------------------------------------------------

             Standard Nuclear Orientation (Angstroms)
    I     Atom           X                Y                Z
 ----------------------------------------------------------------
    1      C     -11.1749511816    -3.5061004752    -0.5367261617
    2      C     -10.0008280797    -3.8765120511    -1.2084852003
    3      N     -11.2816519534    -2.2778720964     0.0519732479
    4      C      -8.8472830368    -3.0382110871    -1.1221930934
    5      C     -10.2707872478    -1.3680783808    -0.0435617825
    6      C      -9.0468319962    -1.7367067443    -0.7302062842
    7      C      -8.0104125511    -0.7627327046    -0.8633689811
    8      C      -6.6658311358    -1.0412437648    -0.6105896166
    9      C      -8.2809295908     0.5005171763    -1.3602163115
   10      N      -5.6428043134    -0.1597565025    -0.7879771218
   11      N      -9.5304062264     0.9551368897    -1.6376294568
   12      C      -7.2746554470     1.4770060903    -1.4732063483
   13      C      -5.9280221661     1.1481319209    -1.1141191897
   14      S      -9.4590704667     2.5706131692    -1.8456477241
   15      N      -7.7956777059     2.7396731602    -1.8115267237
   16      C      -4.8101676139     2.0892238498    -1.0322095962
   17      S      -4.9295842954     3.7673204615    -1.4764273558
   18      C      -3.5099581059     1.7753291969    -0.6809612762
   19      C      -3.0988379802     4.0699874365    -1.1765546637
   20      S      -2.8098958046     0.2975303772    -0.1342278651
   21      C      -2.5838805808     2.8845329706    -0.7008209292
   22      C      -2.3251195128     5.2235547834    -1.5491927045
   23      C      -1.1809669475     1.0833581446    -0.0455289457
   24      C      -1.2647995062     2.4235986653    -0.3237616700
   25      N      -2.8499165363     5.9667746219    -2.5101601107
   26      S      -0.8531586075     5.7353516261    -0.8153479764
   27      C      -2.0239823880     7.0437160284    -2.6822414565
   28      C      -0.9244238635     7.1451727439    -1.8012286382
   29      C     -12.3728323278    -4.4253492488    -0.5963956829
   30      H      -9.9104788500    -4.8881717337    -1.5913895009
   31      H      -7.9972102932    -3.4392202105    -1.6660883163
   32      H     -10.5887678961    -0.3815756840     0.2908238280
   33      H      -6.3283501858    -2.0674455095    -0.4714293224
   34      H      -0.3844112438     0.4815255452     0.3717162259
   35      H      -0.3937063852     3.0572145382    -0.4482915861
   36      H      -2.2968365919     7.7853185914    -3.4219212670
   37      H      -0.1460001111     7.8907497371    -1.7078455082
   38      H     -13.2510325089    -3.9165028519    -1.0123196980
   39      C     -12.7067834446    -5.1438027296     0.7732185867
   40      H     -12.2033657267    -5.2352448274    -1.3170538701
   41      H     -13.2097090792    -4.4570292444     1.4645506242
   42      H     -11.7840980420    -5.4628990529     1.2740011586
   43      C     -13.6080731412    -6.3404381969     0.5605911165
   44      H     -14.5474555829    -6.0111636382     0.1016010368
   45      C     -13.9428373805    -7.1395399150     1.8843665310
   46      H     -13.1604431240    -7.0057572632    -0.1887331843
   47      H     -14.2347479236    -6.3628648238     2.6028155810
   48      H     -12.9995191248    -7.5793455930     2.2324450195
   49      C     -14.9839443086    -8.2245000763     1.5702808536
   50      H     -15.9955131200    -7.8362001897     1.3973452071
   51      C     -15.2299070463    -9.2652286680     2.7246492220
   52      H     -14.8750861287    -8.7312558622     0.6032289056
   53      H     -14.2712218014    -9.7071258635     3.0228831401
   54      H     -15.9189460392   -10.0950000139     2.5282191330
   55      H     -15.6704361662    -8.6281755527     3.5022862985
   56      C      10.5917933391    -4.1787141533    -1.0819387908
   57      C       9.4817981913    -4.0242543890    -1.9329710776
   58      N      10.8341243493    -3.4042046314    -0.0686689935
   59      C       8.5760343429    -3.0101347560    -1.6252728148
   60      C      10.0327920531    -2.4139631256     0.2427556542
   61      C       8.8241388252    -2.1664741921    -0.5102248254
   62      C       7.7881435832    -1.1660552655    -0.0720732193
   63      C       6.4153318380    -1.4621892594    -0.2127628415
   64      C       8.0448555247     0.0538689048     0.6660893630
   65      N       5.4411032214    -0.7010376373     0.2324627314
   66      N       9.2536906885     0.4914030546     1.0039405348
   67      C       7.0181406565     0.8315070240     1.1936701956
   68      C       5.6839107379     0.3955235670     0.9908551331
   69      S       9.0329910899     1.7249518769     1.9804465462
   70      N       7.4281568898     1.7471934325     2.0964875025
   71      C       4.5571252348     1.2164377355     1.3737602885
   72      S       3.0314415930     0.5270290920     1.9890278299
   73      C       4.4931789541     2.5751810311     1.3075445051
   74      C       2.3268660781     2.1777190998     2.0977929070
   75      S       5.5845013173     3.5951222578     0.4847089239
   76      C       3.2327418953     3.0593285792     1.6408260267
   77      C       0.9853802549     2.4733427600     2.4717172813
   78      C       4.4843950629     4.8648683940     0.8974315653
   79      C       3.2565644566     4.4717718369     1.3855310418
   80      N       0.2101239983     1.4585564330     2.8868695990
   81      S       0.2384475262     4.0635670081     2.4338578096
   82      C      -1.0303177097     1.9610118043     3.2692633345
   83      C      -1.1649810069     3.3058284454     3.0534509206
   84      C      11.6218739688    -5.2579588518    -1.2639546613
   85      H       9.4636836811    -4.6422203105    -2.8255633610
   86      H       7.6681246560    -2.7451530191    -2.1575083637
   87      H      10.3554338625    -1.7718980926     1.0610622937
   88      H       6.1163666209    -2.3829869656    -0.7125831926
   89      H       4.8585289732     5.8519733415     0.6590859342
   90      H       2.4341982508     5.1365652996     1.6254424328
   91      H      -1.6560263848     1.3389143554     3.8951262732
   92      H      -2.0389298167     3.9000990124     3.2842104734
   93      H      11.3257512278    -6.1853369773    -0.7576986642
   94      C      13.0636997806    -4.8628160553    -0.9279286226
   95      H      11.5838402608    -5.5588696616    -2.3189362353
   96      H      13.1591871146    -4.8394739743     0.1646784963
   97      H      13.3178653623    -3.8496373879    -1.2625953898
   98      C      14.1501459730    -5.7945428976    -1.4807846277
   99      H      14.1605767112    -6.8086188455    -1.0625596027
  100      C      15.5669659886    -5.1822163001    -1.2367145934
  101      H      14.0097238190    -5.9600529769    -2.5562417548
  102      H      15.8809125971    -5.1529037121    -0.1863673655
  103      H      15.6244282472    -4.1583196291    -1.6274788393
  104      C      16.6909340409    -5.9640427357    -1.9688663823
  105      H      16.5439211356    -7.0210441314    -1.7140424133
  106      C      18.0047352806    -5.4244800163    -1.4666519119
  107      H      16.5221460801    -5.8093180056    -3.0416687323
  108      H      18.2596784921    -4.4446548990    -1.8905819750
  109      H      18.8223960456    -6.0508098116    -1.8440056730
  110      H      18.1423698889    -5.3163179707    -0.3837494757
 ----------------------------------------------------------------

   10   -5663.5139888979      3.51E-06 Convergence criterion met
 Total energy in the final basis set = -5663.5139888979

                    Orbital Energies (a.u.)
 --------------------------------------------------------------

 Alpha MOs
 -- Occupied --
-88.994 -88.988 -88.932 -88.931 -88.923 -88.917 -88.916 -88.902
-14.387 -14.385 -14.382 -14.375 -14.349 -14.348 -14.343 -14.342
-14.326 -14.323 -10.268 -10.266 -10.263 -10.261 -10.259 -10.256
-10.255 -10.249 -10.241 -10.239 -10.237 -10.236 -10.236 -10.235
-10.235 -10.233 -10.233 -10.232 -10.230 -10.229 -10.228 -10.227
-10.226 -10.226 -10.226 -10.224 -10.223 -10.222 -10.217 -10.212
-10.211 -10.211 -10.210 -10.209 -10.209 -10.205 -10.200 -10.197
-10.187 -10.183 -10.183 -10.180 -10.180 -10.177 -10.176 -10.176
-10.174 -10.172 -10.172 -10.170  -8.050  -8.043  -7.994  -7.992
 -7.981  -7.979  -7.974  -7.962  -6.015  -6.009  -6.008  -6.008
 -6.002  -6.000  -5.958  -5.956  -5.954  -5.953  -5.951  -5.949
 -5.945  -5.943  -5.942  -5.940  -5.939  -5.937  -5.935  -5.934
 -5.931  -5.926  -5.923  -5.918  -1.058  -1.018  -0.973  -0.965
 -0.962  -0.957  -0.945  -0.927  -0.925  -0.915  -0.899  -0.885
 -0.854  -0.836  -0.833  -0.831  -0.820  -0.818  -0.811  -0.804
 -0.803  -0.802  -0.802  -0.795  -0.788  -0.779  -0.771  -0.763
 -0.753  -0.747  -0.744  -0.736  -0.728  -0.716  -0.715  -0.705
 -0.695  -0.687  -0.680  -0.669  -0.654  -0.654  -0.651  -0.639
 -0.637  -0.636  -0.632  -0.620  -0.609  -0.608  -0.600  -0.599
 -0.599  -0.588  -0.584  -0.580  -0.577  -0.576  -0.572  -0.572
 -0.550  -0.548  -0.540  -0.536  -0.533  -0.522  -0.521  -0.513
 -0.512  -0.507  -0.505  -0.493  -0.487  -0.483  -0.481  -0.476
 -0.474  -0.474  -0.470  -0.469  -0.466  -0.457  -0.450  -0.448
 -0.446  -0.440  -0.440  -0.438  -0.437  -0.435  -0.432  -0.429
 -0.428  -0.426  -0.423  -0.422  -0.421  -0.418  -0.417  -0.413
 -0.410  -0.409  -0.407  -0.405  -0.404  -0.398  -0.398  -0.397
 -0.394  -0.392  -0.391  -0.390  -0.386  -0.385  -0.383  -0.382
 -0.381  -0.376  -0.374  -0.373  -0.372  -0.370  -0.365  -0.355
 -0.353  -0.351  -0.349  -0.346  -0.344  -0.340  -0.338  -0.338
 -0.335  -0.334  -0.331  -0.330  -0.330  -0.323  -0.321  -0.321
 -0.320  -0.316  -0.314  -0.309  -0.305  -0.302  -0.300  -0.298
 -0.297  -0.296  -0.293  -0.293  -0.291  -0.289  -0.285  -0.283
 -0.274  -0.273  -0.271  -0.260  -0.256  -0.249  -0.249  -0.246
 -0.241  -0.236  -0.233  -0.229  -0.197  -0.190

          Ground-State Mulliken Net Atomic Charges

     Atom                 Charge (a.u.)
  ----------------------------------------
      1 C                     0.282914
      2 C                    -0.125423
      3 N                    -0.478408
      4 C                    -0.084869
      5 C                     0.094426
      6 C                     0.021179
      7 C                     0.043410
      8 C                     0.047542
      9 C                     0.237079
     10 N                    -0.528298
     11 N                    -0.561427
     12 C                     0.199091
     13 C                     0.315007
     14 S                     0.614071
     15 N                    -0.572400
     16 C                    -0.216486
     17 S                     0.334683
     18 C                    -0.116812
     19 C                    -0.232750
     20 S                     0.275922
     21 C                     0.143258
     22 C                     0.028460
     23 C                    -0.309379
     24 C                    -0.070000
     25 N                    -0.406170
     26 S                     0.300919
     27 C                     0.116251
     28 C                    -0.323396
     29 C                    -0.230081
     30 H                     0.087374
     31 H                     0.106173
     32 H                     0.124751
     33 H                     0.110790
     34 H                     0.157503
     35 H                     0.109868
     36 H                     0.111895
     37 H                     0.136813
     38 H                     0.117530
     39 C                    -0.175459
     40 H                     0.095490
     41 H                     0.110211
     42 H                     0.093786
     43 C                    -0.184853
     44 H                     0.093183
     45 C                    -0.168489
     46 H                     0.087796
     47 H                     0.097974
     48 H                     0.095759
     49 C                    -0.187558
     50 H                     0.094536
     51 C                    -0.321124
     52 H                     0.093051
     53 H                     0.100885
     54 H                     0.099825
     55 H                     0.105515
     56 C                     0.284212
     57 C                    -0.123838
     58 N                    -0.466493
     59 C                    -0.078143
     60 C                     0.091600
     61 C                     0.019692
     62 C                     0.047656
     63 C                     0.057944
     64 C                     0.202948
     65 N                    -0.476968
     66 N                    -0.537051
     67 C                     0.163606
     68 C                     0.228687
     69 S                     0.612295
     70 N                    -0.508348
     71 C                    -0.199614
     72 S                     0.323532
     73 C                    -0.097434
     74 C                    -0.218063
     75 S                     0.276959
     76 C                     0.152466
     77 C                     0.048348
     78 C                    -0.294654
     79 C                    -0.087327
     80 N                    -0.451101
     81 S                     0.280756
     82 C                     0.124530
     83 C                    -0.305818
     84 C                    -0.234420
     85 H                     0.095317
     86 H                     0.102920
     87 H                     0.119648
     88 H                     0.108998
     89 H                     0.127853
     90 H                     0.112653
     91 H                     0.121610
     92 H                     0.133648
     93 H                     0.118342
     94 C                    -0.154822
     95 H                     0.087481
     96 H                     0.112113
     97 H                     0.097605
     98 C                    -0.185812
     99 H                     0.088418
    100 C                    -0.173737
    101 H                     0.084739
    102 H                     0.091551
    103 H                     0.089422
    104 C                    -0.173005
    105 H                     0.092361
    106 C                    -0.322042
    107 H                     0.095469
    108 H                     0.102475
    109 H                     0.094648
    110 H                     0.104648
  ----------------------------------------
  Sum of atomic charges =     0.000000

                    Cartesian Multipole Moments
 -----------------------------------------------------------------
    Charge (ESU x 10^10)
                 0.0000
    Dipole Moment (Debye)
         X       3.0867      Y       1.7728      Z      -0.7499
       Tot       3.6377
    Quadrupole Moments (Debye-Ang)
        XX    -444.7294     XY      20.3050     YY    -397.2494
        XZ     -10.4243     YZ      15.3333     ZZ    -448.6208

 Total job time:  94.36s(wall), 1014.67s(cpu)
        *  Thank you very much for using Q-Chem.  Have a nice day.  *
