 Q-Chem 4.4, Q-Chem, Inc., Pleasanton, CA (2016)
 Q-Chem 4.4.2 for Intel X86 Linux

User input:
--------------------------------------------------------------
$comment
SP
$end

$rem
MEM_STATIC 5000
MEM_TOTAL 20000
JOBTYPE SP
EXCHANGE B3LYP
BASIS 6-31g(d,p)
$end

$molecule
0 1
C           1.136000      7.171000      3.468000
C          -0.058000      6.460000      3.507000
N           2.322000      6.612000      3.173000
C          -0.019000      5.042000      3.315000
C           2.342000      5.296000      2.829000
C           1.226000      4.459000      2.922000
C           1.467000      2.966000      2.890000
C           1.909000      2.388000      1.726000
C           1.299000      2.122000      4.044000
N           2.314000      1.136000      1.563000
N           0.947000      2.536000      5.224000
C           1.634000      0.800000      3.916000
C           2.235000      0.366000      2.671000
S           1.065000      1.199000      6.171000
N           1.596000      0.027000      5.042000
C           3.057000     -0.845000      2.573000
S           3.192000     -1.955000      1.235000
C           4.166000     -1.009000      3.375000
C           4.664000     -2.688000      1.814000
S           4.724000     -0.055000      4.689000
C           5.047000     -1.946000      2.922000
C           5.541000     -3.554000      1.085000
C           6.273000     -0.967000      4.614000
C           6.232000     -1.946000      3.618000
N           4.951000     -4.289000      0.185000
S           7.298000     -3.731000      1.115000
C           5.854000     -5.124000     -0.474000
C           7.236000     -4.859000     -0.161000
C           1.147000      8.631000      3.791000
H          -1.024000      6.919000      3.697000
H          -0.927000      4.461000      3.448000
H           3.320000      4.859000      2.635000
H           2.121000      2.956000      0.822000
H           7.089000     -0.712000      5.277000
H           6.953000     -2.753000      3.552000
H           5.425000     -5.740000     -1.252000
H           8.149000     -5.211000     -0.621000
H           1.748000      9.079000      2.989000
C           1.697000      8.957000      5.248000
H           0.127000      8.994000      3.618000
H           2.627000      8.384000      5.342000
H           1.042000      8.517000      6.010000
C           2.014000     10.420000      5.443000
H           2.753000     10.713000      4.687000
C           2.569000     10.828000      6.841000
H           1.134000     11.033000      5.215000
H           2.798000     11.900000      6.861000
H           3.517000     10.293000      6.977000
C           1.602000     10.480000      7.971000
H           0.573000     10.752000      7.704000
C           1.957000     11.096000      9.338000
H           1.456000      9.408000      8.151000
H           2.924000     10.668000      9.630000
H           1.191000     10.827000     10.077000
H           2.048000     12.176000      9.168000
C         -10.758000      9.711000      0.025000
C         -10.033000      9.888000     -1.168000
N         -10.299000      9.071000      1.057000
C          -8.733000      9.386000     -1.207000
C          -9.096000      8.549000      1.059000
C          -8.216000      8.697000     -0.078000
C          -6.770000      8.280000     -0.042000
C          -5.788000      9.079000     -0.666000
C          -6.220000      7.190000      0.738000
N          -4.495000      8.854000     -0.601000
N          -6.939000      6.360000      1.487000
C          -4.849000      6.984000      0.861000
C          -3.980000      7.884000      0.193000
S          -5.904000      5.487000      2.318000
N          -4.506000      6.132000      1.850000
C          -2.553000      7.657000      0.145000
S          -1.367000      8.989000      0.172000
C          -1.934000      6.447000      0.059000
C          -0.026000      7.801000      0.019000
S          -2.679000      4.960000     -0.318000
C          -0.556000      6.570000     -0.083000
C           1.352000      8.133000     -0.114000
C          -1.071000      4.322000     -0.329000
C          -0.049000      5.247000     -0.314000
N           1.701000      9.425000     -0.004000
S           2.655000      6.994000     -0.419000
C           3.086000      9.531000     -0.093000
C           3.710000      8.339000     -0.344000
C         -12.150000     10.241000      0.226000
H         -10.574000     10.315000     -2.007000
H          -8.027000      9.431000     -2.030000
H          -8.825000      7.966000      1.938000
H          -6.096000      9.953000     -1.239000
H          -1.037000      3.244000     -0.418000
H           1.008000      5.016000     -0.386000
H           3.547000     10.441000      0.267000
H           4.777000      8.191000     -0.443000
H         -12.137000     11.275000      0.593000
C         -13.084000      9.355000      1.057000
H         -12.590000     10.365000     -0.772000
H         -12.800000      9.464000      2.111000
H         -12.969000      8.287000      0.835000
C         -14.580000      9.672000      0.932000
H         -14.891000     10.647000      1.327000
C         -15.429000      8.586000      1.668000
H         -14.882000      9.712000     -0.122000
H         -15.340000      8.595000      2.761000
H         -15.162000      7.579000      1.323000
C         -16.950000      8.725000      1.389000
H         -17.200000      9.777000      1.575000
C         -17.660000      7.786000      2.329000
H         -17.089000      8.488000      0.327000
H         -17.589000      6.734000      2.024000
H         -18.741000      7.963000      2.271000
H         -17.378000      7.800000      3.389000
$end

--------------------------------------------------------------

             Standard Nuclear Orientation (Angstroms)
    I     Atom           X                Y                Z
 ----------------------------------------------------------------
    1      C       0.9180910237     3.4190485313     0.4909892025
    2      C       0.2916912579     2.2567864786     0.9262457411
    3      N       2.1891828280     3.4575348756     0.0563095199
    4      C       1.0600649143     1.0516620817     1.0061588958
    5      C       2.8742607954     2.2850532546    -0.0246041806
    6      C       2.3851494188     1.0720431985     0.4694106625
    7      C       3.3775149293    -0.0513897678     0.6725437808
    8      C       3.9559682118    -0.6353301243    -0.4268876450
    9      C       3.7835032787    -0.5099430500     1.9753017581
   10      N       4.9474546969    -1.5156900249    -0.4312460014
   11      N       3.3693208181    -0.0128031937     3.1018029133
   12      C       4.7561202686    -1.4727296348     2.0331911639
   13      C       5.3852604414    -1.8822466579     0.7938121054
   14      S       4.2600485975    -0.7956223719     4.2385087491
   15      N       5.2316523103    -1.8166367933     3.2670656079
   16      C       6.7122888785    -2.5060198817     0.7524419163
   17      S       7.2989497849    -3.7282966489    -0.3441151890
   18      C       7.8039916070    -1.8741885559     1.3082794181
   19      C       8.9792508668    -3.4501437812     0.0280853703
   20      S       7.8824024977    -0.4472775671     2.2600423939
   21      C       9.0046808493    -2.3414461787     0.8617879205
   22      C      10.1149918103    -3.9374670794    -0.6951950128
   23      C       9.6659108160    -0.4609551240     2.0240741694
   24      C      10.0643019976    -1.5663629520     1.2681006247
   25      N       9.9293093175    -5.0841538947    -1.2859202953
   26      S      11.6931534106    -3.2129556034    -1.0173239999
   27      C      11.0765989933    -5.5136584586    -1.9538778011
   28      C      12.1286038863    -4.5295457322    -2.0079688989
   29      C       0.1809565729     4.7198121140     0.5173881268
   30      H      -0.7499317937     2.2145111306     1.2314853410
   31      H       0.6140410770     0.1632449549     1.4437565938
   32      H       3.9139878164     2.3502722247    -0.3405206374
   33      H       3.7551413942    -0.3135826408    -1.4471479776
   34      H      10.2762397987     0.3344124835     2.4306930349
   35      H      11.0946440768    -1.8972144134     1.2019303114
   36      H      10.9741406094    -6.4491485637    -2.4859882622
   37      H      13.0453820367    -4.4999905959    -2.5804348951
   38      H       0.3806615034     5.1617473340    -0.4674571413
   39      C       0.5981100958     5.6639916575     1.7282278883
   40      H      -0.8867399812     4.4708476093     0.5056091706
   41      H       1.6944502852     5.6734184571     1.7244431070
   42      H       0.3451575622     5.1910391774     2.6850977683
   43      C       0.1063429815     7.0818308619     1.5645816364
   44      H       0.5086230340     7.4762954694     0.6232663689
   45      C       0.4791068785     8.0797721053     2.7021462948
   46      H      -0.9806599588     7.0927203551     1.4215465824
   47      H       0.1053557131     9.0829091365     2.4653950268
   48      H       1.5741102650     8.1410872581     2.7273064916
   49      C      -0.0538653172     7.6319650953     4.0617427498
   50      H      -1.0890295081     7.2773092975     3.9794726883
   51      C       0.0372268353     8.6948815833     5.1735344386
   52      H       0.4072102068     6.7251650852     4.4716489622
   53      H       1.1050167211     8.8972440245     5.3232381532
   54      H      -0.4020252730     8.3022570072     6.0998937251
   55      H      -0.4736069929     9.5840738083     4.7837050054
   56      C     -10.7577133491    -1.2782737882    -0.6853782037
   57      C     -10.3435788071    -1.1079536020    -2.0194271590
   58      N      -9.9417507311    -1.2945661996     0.3241982240
   59      C      -8.9844012095    -0.8952805664    -2.2451071056
   60      C      -8.6502123623    -1.1346166541     0.1628235519
   61      C      -8.0851317909    -0.8966012551    -1.1460330551
   62      C      -6.6414182815    -0.5212345769    -1.3482511546
   63      C      -6.2911658100     0.4470103284    -2.3136143037
   64      C      -5.5318668671    -0.9345015657    -0.5133223824
   65      N      -5.0758032231     0.9138881997    -2.4914283522
   66      N      -5.6330570224    -1.7645145455     0.5199738026
   67      C      -4.2557788078    -0.3975284983    -0.6563789789
   68      C      -4.0582034681     0.5864233505    -1.6584706635
   69      S      -4.2251845850    -1.7463840294     1.2558280574
   70      N      -3.4289180807    -0.6577625422     0.3781516298
   71      C      -2.7385694376     1.0860016101    -1.9733509393
   72      S      -2.4425819761     2.7754653971    -2.4628941293
   73      C      -1.5822216350     0.3667589012    -1.9589743937
   74      C      -0.6948457624     2.4101160609    -2.6749601329
   75      S      -1.4544280423    -1.3315549018    -1.8710993443
   76      C      -0.4976983075     1.1051620155    -2.4202194402
   77      C       0.2796016354     3.3235992663    -3.1677052011
   78      C       0.2390482652    -1.0722325989    -2.1113470059
   79      C       0.6115716631     0.1973317960    -2.4983438601
   80      N      -0.1018450768     4.5923132195    -3.3868588247
   81      S       1.9561312036     2.9378038007    -3.5262654688
   82      C       1.0021908901     5.3348487326    -3.7956712461
   83      C       2.1389102286     4.5870522873    -3.9436936154
   84      C     -12.1952884856    -1.4679425405    -0.2899436434
   85      H     -11.0989908110    -1.2541322703    -2.7855312650
   86      H      -8.4842139568    -0.7404201394    -3.1956969017
   87      H      -8.0362814350    -1.2386465161     1.0562649906
   88      H      -7.0641328149     0.8582385320    -2.9620604262
   89      H       0.8317909979    -1.9704274440    -1.9970532042
   90      H       1.6192264184     0.5053410347    -2.7543833159
   91      H       0.9394736738     6.4126032928    -3.7268769253
   92      H       3.1086343148     4.9609991031    -4.2436819080
   93      H     -12.7009687680    -0.5057270750    -0.1401342648
   94      C     -12.4409798454    -2.4269209009     0.8796328868
   95      H     -12.7185903965    -1.8589506974    -1.1721271455
   96      H     -12.1679659866    -1.9045127660     1.8048389036
   97      H     -11.7967585736    -3.3140787864     0.8470316732
   98      C     -13.8815293668    -2.9341430097     1.0268497627
   99      H     -14.6267186091    -2.1718790125     1.2857273242
  100      C     -13.9576900008    -4.0429608027     2.1253103491
  101      H     -14.2487538054    -3.3423513385     0.0769907353
  102      H     -13.7926993050    -3.6879886099     3.1497242365
  103      H     -13.2283002546    -4.8393429204     1.9300435555
  104      C     -15.3382533754    -4.7522459466     2.1648369655
  105      H     -16.0909531489    -3.9545652279     2.1956350501
  106      C     -15.3574885478    -5.6147475628     3.3998033497
  107      H     -15.4217892986    -5.3114066526     1.2247864060
  108      H     -14.7660511915    -6.5333631373     3.2943648376
  109      H     -16.3680051116    -6.0152661123     3.5470961390
  110      H     -15.0352523796    -5.1700975494     4.3494191760
 ----------------------------------------------------------------

   10   -5663.4962853052      4.01E-06 Convergence criterion met
 Total energy in the final basis set = -5663.4962853052

                    Orbital Energies (a.u.)
 --------------------------------------------------------------

 Alpha MOs
 -- Occupied --
-88.993 -88.991 -88.928 -88.925 -88.923 -88.919 -88.912 -88.912
-14.405 -14.393 -14.387 -14.382 -14.353 -14.347 -14.339 -14.338
-14.327 -14.322 -10.268 -10.265 -10.262 -10.262 -10.259 -10.259
-10.259 -10.254 -10.237 -10.235 -10.235 -10.235 -10.234 -10.234
-10.233 -10.232 -10.232 -10.231 -10.230 -10.228 -10.227 -10.225
-10.225 -10.223 -10.222 -10.222 -10.222 -10.221 -10.221 -10.216
-10.214 -10.214 -10.207 -10.204 -10.204 -10.202 -10.198 -10.197
-10.182 -10.178 -10.177 -10.176 -10.176 -10.175 -10.173 -10.173
-10.172 -10.171 -10.170 -10.169  -8.049  -8.046  -7.989  -7.986
 -7.983  -7.977  -7.975  -7.973  -6.014  -6.011  -6.009  -6.008
 -6.006  -6.004  -5.954  -5.950  -5.950  -5.947  -5.947  -5.947
 -5.943  -5.943  -5.942  -5.939  -5.939  -5.938  -5.938  -5.936
 -5.934  -5.934  -5.931  -5.929  -1.058  -1.045  -0.969  -0.966
 -0.962  -0.958  -0.956  -0.934  -0.924  -0.923  -0.915  -0.914
 -0.850  -0.849  -0.833  -0.832  -0.818  -0.812  -0.810  -0.806
 -0.804  -0.801  -0.801  -0.794  -0.787  -0.782  -0.769  -0.764
 -0.750  -0.746  -0.745  -0.742  -0.724  -0.724  -0.713  -0.711
 -0.693  -0.691  -0.679  -0.678  -0.656  -0.653  -0.650  -0.642
 -0.639  -0.636  -0.634  -0.624  -0.608  -0.607  -0.601  -0.597
 -0.596  -0.595  -0.587  -0.582  -0.580  -0.576  -0.572  -0.559
 -0.549  -0.548  -0.544  -0.541  -0.530  -0.527  -0.519  -0.518
 -0.512  -0.505  -0.504  -0.502  -0.489  -0.485  -0.482  -0.481
 -0.474  -0.473  -0.471  -0.468  -0.466  -0.460  -0.449  -0.447
 -0.447  -0.441  -0.439  -0.438  -0.437  -0.436  -0.434  -0.431
 -0.428  -0.428  -0.421  -0.420  -0.419  -0.418  -0.415  -0.414
 -0.412  -0.410  -0.407  -0.405  -0.402  -0.401  -0.399  -0.396
 -0.395  -0.393  -0.393  -0.391  -0.390  -0.388  -0.381  -0.380
 -0.379  -0.372  -0.372  -0.372  -0.370  -0.370  -0.361  -0.355
 -0.354  -0.351  -0.350  -0.350  -0.348  -0.346  -0.341  -0.341
 -0.339  -0.336  -0.335  -0.332  -0.330  -0.329  -0.325  -0.320
 -0.320  -0.316  -0.311  -0.308  -0.307  -0.307  -0.304  -0.302
 -0.300  -0.296  -0.292  -0.291  -0.289  -0.286  -0.280  -0.280
 -0.274  -0.272  -0.270  -0.263  -0.255  -0.253  -0.250  -0.246
 -0.244  -0.242  -0.235  -0.231  -0.195  -0.192

          Ground-State Mulliken Net Atomic Charges

     Atom                 Charge (a.u.)
  ----------------------------------------
      1 C                     0.271644
      2 C                    -0.115270
      3 N                    -0.477081
      4 C                    -0.060091
      5 C                     0.078925
      6 C                     0.017855
      7 C                     0.018752
      8 C                     0.039483
      9 C                     0.277013
     10 N                    -0.450893
     11 N                    -0.537882
     12 C                     0.199179
     13 C                     0.202381
     14 S                     0.586664
     15 N                    -0.529108
     16 C                    -0.206954
     17 S                     0.346756
     18 C                    -0.100349
     19 C                    -0.203353
     20 S                     0.245945
     21 C                     0.146006
     22 C                     0.056282
     23 C                    -0.316288
     24 C                    -0.084849
     25 N                    -0.421094
     26 S                     0.279534
     27 C                     0.099053
     28 C                    -0.321443
     29 C                    -0.230122
     30 H                     0.103529
     31 H                     0.106528
     32 H                     0.103217
     33 H                     0.106749
     34 H                     0.131946
     35 H                     0.116227
     36 H                     0.115323
     37 H                     0.146999
     38 H                     0.125387
     39 C                    -0.173903
     40 H                     0.098713
     41 H                     0.112312
     42 H                     0.095165
     43 C                    -0.179312
     44 H                     0.090806
     45 C                    -0.171428
     46 H                     0.091372
     47 H                     0.088964
     48 H                     0.091563
     49 C                    -0.177678
     50 H                     0.088172
     51 C                    -0.314771
     52 H                     0.092536
     53 H                     0.102926
     54 H                     0.099375
     55 H                     0.101510
     56 C                     0.284330
     57 C                    -0.124017
     58 N                    -0.466489
     59 C                    -0.078292
     60 C                     0.090742
     61 C                     0.019829
     62 C                     0.047405
     63 C                     0.057542
     64 C                     0.201599
     65 N                    -0.475438
     66 N                    -0.536993
     67 C                     0.166193
     68 C                     0.227069
     69 S                     0.609242
     70 N                    -0.514402
     71 C                    -0.203213
     72 S                     0.322195
     73 C                    -0.099602
     74 C                    -0.215401
     75 S                     0.268417
     76 C                     0.158914
     77 C                     0.053427
     78 C                    -0.300704
     79 C                    -0.078909
     80 N                    -0.447521
     81 S                     0.291973
     82 C                     0.114408
     83 C                    -0.304794
     84 C                    -0.234078
     85 H                     0.095026
     86 H                     0.102988
     87 H                     0.118895
     88 H                     0.108643
     89 H                     0.130378
     90 H                     0.112225
     91 H                     0.117834
     92 H                     0.128957
     93 H                     0.117979
     94 C                    -0.155119
     95 H                     0.087319
     96 H                     0.111925
     97 H                     0.097661
     98 C                    -0.185609
     99 H                     0.088192
    100 C                    -0.173564
    101 H                     0.084708
    102 H                     0.091414
    103 H                     0.089422
    104 C                    -0.173037
    105 H                     0.092301
    106 C                    -0.322145
    107 H                     0.095479
    108 H                     0.102607
    109 H                     0.094569
    110 H                     0.104603
  ----------------------------------------
  Sum of atomic charges =     0.000000

                    Cartesian Multipole Moments
 -----------------------------------------------------------------
    Charge (ESU x 10^10)
                 0.0000
    Dipole Moment (Debye)
         X       1.7707      Y      -0.6424      Z       0.3281
       Tot       1.9120
    Quadrupole Moments (Debye-Ang)
        XX    -386.4298     XY      12.2204     YY    -453.6583
        XZ      -1.5349     YZ       6.8027     ZZ    -440.5859

 Total job time:  101.85s(wall), 1088.78s(cpu)
        *  Thank you very much for using Q-Chem.  Have a nice day.  *
