 Q-Chem 4.4, Q-Chem, Inc., Pleasanton, CA (2016)
 Q-Chem 4.4.2 for Intel X86 Linux

User input:
--------------------------------------------------------------
$comment
SP
$end

$rem
MEM_STATIC 5000
MEM_TOTAL 20000
JOBTYPE SP
EXCHANGE B3LYP
BASIS 6-31g(d,p)
$end

$molecule
0 1
C          14.807000     -3.174000     11.994000
C          16.139000     -3.604000     11.928000
N          14.245000     -2.628000     10.912000
C          16.965000     -3.354000     10.844000
C          14.964000     -2.261000      9.884000
C          16.326000     -2.688000      9.752000
C          17.077000     -2.409000      8.503000
C          18.448000     -2.156000      8.546000
C          16.553000     -2.550000      7.137000
N          19.226000     -1.918000      7.465000
N          15.178000     -2.685000      6.910000
C          17.329000     -2.342000      6.013000
C          18.640000     -1.967000      6.243000
S          15.114000     -2.691000      5.251000
N          16.700000     -2.420000      4.815000
C          19.568000     -1.733000      5.130000
S          19.521000     -2.418000      3.532000
C          20.595000     -0.803000      5.154000
C          20.860000     -1.519000      2.908000
S          21.191000      0.305000      6.507000
C          21.269000     -0.691000      3.941000
C          21.348000     -1.455000      1.563000
C          22.496000      0.752000      5.232000
C          22.392000      0.150000      4.011000
N          20.976000     -2.519000      0.834000
S          21.926000     -0.014000      0.748000
C          21.167000     -2.210000     -0.487000
C          21.667000     -0.934000     -0.680000
C          13.887000     -3.570000     13.118000
H          16.464000     -4.282000     12.712000
H          17.876000     -3.930000     10.713000
H          14.540000     -1.653000      9.086000
H          18.912000     -2.276000      9.524000
H          23.312000      1.392000      5.540000
H          23.015000      0.363000      3.150000
H          20.817000     -2.920000     -1.225000
H          21.958000     -0.539000     -1.644000
H          14.311000     -3.107000     14.018000
C          13.610000     -5.050000     13.478000
H          12.921000     -3.054000     13.063000
H          13.656000     -5.219000     14.561000
H          14.394000     -5.692000     13.058000
C          12.282000     -5.684000     13.017000
H          11.495000     -4.944000     12.828000
C          11.829000     -6.859000     13.780000
H          12.500000     -6.129000     12.038000
H          11.530000     -6.531000     14.783000
H          12.697000     -7.519000     13.899000
C          10.695000     -7.676000     13.178000
H          10.941000     -8.381000     12.375000
C           9.554000     -6.770000     12.754000
H          10.462000     -8.361000     14.003000
H           9.713000     -6.159000     11.857000
H           9.189000     -6.217000     13.628000
H           8.728000     -7.471000     12.582000
C          11.087000     -1.425000      3.865000
C          10.373000     -2.247000      2.998000
N          12.265000     -0.789000      3.594000
C          11.099000     -2.668000      1.867000
C          12.829000     -1.122000      2.424000
C          12.416000     -2.091000      1.542000
C          13.219000     -2.401000      0.305000
C          12.608000     -2.680000     -0.881000
C          14.683000     -2.550000      0.376000
N          13.298000     -2.982000     -2.019000
N          15.420000     -2.530000      1.513000
C          15.397000     -2.816000     -0.766000
C          14.688000     -3.012000     -1.970000
S          16.966000     -2.877000      1.037000
N          16.722000     -3.130000     -0.555000
C          15.413000     -3.270000     -3.216000
S          14.843000     -4.390000     -4.487000
C          16.458000     -2.510000     -3.706000
C          15.906000     -3.561000     -5.661000
S          17.473000     -1.290000     -2.906000
C          16.712000     -2.610000     -5.034000
C          15.700000     -3.617000     -7.082000
C          18.129000     -0.824000     -4.501000
C          17.701000     -1.690000     -5.523000
N          16.291000     -2.763000     -7.816000
S          14.488000     -4.649000     -7.848000
C          15.834000     -2.844000     -9.096000
C          14.889000     -3.839000     -9.317000
C          10.417000     -0.927000      5.151000
H           9.372000     -2.587000      3.245000
H          10.685000     -3.413000      1.194000
H          13.740000     -0.562000      2.217000
H          11.552000     -2.435000     -0.983000
H          18.804000      0.019000     -4.570000
H          18.045000     -1.570000     -6.544000
H          16.209000     -2.142000     -9.830000
H          14.351000     -3.909000    -10.252000
H          10.412000      0.157000      5.319000
C          10.954000     -1.673000      6.453000
H           9.368000     -1.212000      5.005000
H          10.427000     -1.361000      7.363000
H          11.993000     -1.335000      6.556000
C          10.829000     -3.241000      6.351000
H           9.778000     -3.546000      6.426000
C          11.728000     -3.930000      7.359000
H          11.147000     -3.500000      5.334000
H          11.694000     -3.281000      8.243000
H          12.749000     -3.863000      6.963000
C          11.273000     -5.319000      7.823000
H          10.238000     -5.263000      8.183000
C          12.150000     -5.877000      8.901000
H          11.202000     -5.903000      6.897000
H          11.784000     -6.868000      9.197000
H          12.118000     -5.132000      9.705000
H          13.160000     -6.032000      8.504000
$end

--------------------------------------------------------------

             Standard Nuclear Orientation (Angstroms)
    I     Atom           X                Y                Z
 ----------------------------------------------------------------
    1      C       8.9617346899     0.5715547028     0.1134132941
    2      C       8.6968544614     1.6557283696    -0.7338681967
    3      N       7.9540774357     0.0121978055     0.7890098598
    4      C       7.4654545410     2.2878763060    -0.7961194816
    5      C       6.7865034988     0.5935876809     0.8738091208
    6      C       6.4513248409     1.6935360916     0.0179085651
    7      C       5.0690554227     2.2329610785     0.0039465056
    8      C       4.8448839561     3.5930380392    -0.2092126239
    9      C       3.8357815820     1.4333476108     0.0121279558
   10      N       3.6260208257     4.1774508675    -0.2668608282
   11      N       3.8700927051     0.0710626124     0.3336576278
   12      C       2.5777273159     1.9978545781    -0.0741700579
   13      C       2.5369713759     3.3781189138    -0.1480301764
   14      S       2.2559342367    -0.3167079941     0.3104327414
   15      N       1.5223796404     1.1541216736     0.0320611503
   16      C       1.2603502806     4.0939865178    -0.2597492548
   17      S      -0.2382188477     3.5169565077    -0.9278547369
   18      C       1.0202213707     5.3478612715     0.2790839370
   19      C      -1.1664241024     4.9225662523    -0.5364543647
   20      S       2.1441353111     6.5207247068     1.1592531348
   21      C      -0.2985668058     5.7696256684     0.1338202494
   22      C      -2.5772778802     5.1306086805    -0.6686472756
   23      C       0.6230683883     7.6222188346     1.1202005663
   24      C      -0.5030103664     7.0930883676     0.5580363671
   25      N      -3.1333144081     4.3022479929    -1.5667357739
   26      S      -3.6039961113     5.9665054659     0.4810988868
   27      C      -4.4889276605     4.3180386764    -1.3690836440
   28      C      -4.8777853169     5.1513266968    -0.3347501397
   29      C      10.2617474752    -0.1865114043     0.0698870339
   30      H       9.4661087112     1.8945714177    -1.4626801734
   31      H       7.2245621210     2.9223761559    -1.6436091762
   32      H       6.0272399327     0.2378547176     1.5689471617
   33      H       5.7311646617     4.1772496576    -0.4528995041
   34      H       0.7240448094     8.6437306047     1.4617228435
   35      H      -1.4764413277     7.5691461263     0.5331330747
   36      H      -5.0883787145     3.6214437037    -1.9406235620
   37      H      -5.9087585609     5.3575590904    -0.0806549408
   38      H      11.0281937828     0.5316117896     0.3876985125
   39      C      10.7922144620    -0.8454385934    -1.2267041644
   40      H      10.3353329117    -0.9277762424     0.8745910934
   41      H      11.8601712781    -0.6436566697    -1.3760972512
   42      H      10.2964132294    -0.4066296314    -2.1012599560
   43      C      10.6320239730    -2.3697082658    -1.3970038207
   44      H      10.5229510101    -2.8998414403    -0.4431946647
   45      C      11.5624442171    -3.0149610523    -2.3382636206
   46      H       9.6721408376    -2.5025719524    -1.9117480361
   47      H      12.5704276074    -2.9898463174    -1.9066008645
   48      H      11.5815352759    -2.3979588534    -3.2449768157
   49      C      11.2453235955    -4.4456594126    -2.7486119034
   50      H      10.4754843920    -4.6010307764    -3.5138290882
   51      C      10.9546351454    -5.2971041005    -1.5267137209
   52      H      12.1548414383    -4.7181816618    -3.2987463573
   53      H       9.9941486524    -5.1309941581    -1.0236389911
   54      H      11.8284486213    -5.2866390011    -0.8639539673
   55      H      10.9940284154    -6.3206133258    -1.9193178931
   56      C       1.5056054236    -3.9174039374     2.8029167226
   57      C       0.8543050773    -5.0125703838     2.2429280498
   58      N       0.9748841465    -2.6756025967     3.0075758448
   59      C      -0.3471993123    -4.6968266800     1.5794741212
   60      C      -0.2435924956    -2.4895626148     2.4797607277
   61      C      -0.9505158936    -3.3556755235     1.6812860952
   62      C      -2.2792608386    -2.9539477564     1.0946604289
   63      C      -3.3086402468    -3.8428787802     1.0055668330
   64      C      -2.4577360914    -1.6306477032     0.4721160102
   65      N      -4.5208987212    -3.5238455524     0.4661271321
   66      N      -1.4764053505    -0.7173563468     0.2740582527
   67      C      -3.6813126261    -1.2786503543    -0.0413762780
   68      C      -4.7180564976    -2.2354297044    -0.0202003437
   69      S      -2.1884910721     0.5109994399    -0.5751631474
   70      N      -3.6834908986    -0.1093682668    -0.7704281657
   71      C      -6.0462238026    -1.8911495344    -0.5322040298
   72      S      -7.0933596606    -3.0276099489    -1.4303717319
   73      C      -6.7786350438    -0.7760946089    -0.1717164616
   74      C      -8.5053880662    -2.0084456886    -1.0266812657
   75      S      -6.2811460629     0.7120839129     0.6628219743
   76      C      -8.1169033470    -0.8340133875    -0.3809612079
   77      C      -9.8566228279    -2.4969696285    -1.0446250295
   78      C      -8.0018183224     1.1551231835     0.8486180450
   79      C      -8.8522144600     0.2804725680     0.1490205107
   80      N     -10.7554065210    -1.8206981264    -0.4511625383
   81      S     -10.3019573278    -4.1009622677    -1.6359022881
   82      C     -11.9215286301    -2.5221065749    -0.4064924711
   83      C     -11.8834772323    -3.7595272472    -1.0383414807
   84      C       2.8423806271    -4.1261237940     3.5241435085
   85      H       1.3043039610    -6.0004303532     2.2585384787
   86      H      -0.8684986246    -5.4511349362     0.9975668419
   87      H      -0.6574025708    -1.5069320234     2.7024002174
   88      H      -3.2415987423    -4.7634306781     1.5831952948
   89      H      -8.2628159309     2.0366252217     1.4194677669
   90      H      -9.9246782207     0.4367146837     0.1247948351
   91      H     -12.7686380166    -2.0946230538     0.1148984825
   92      H     -12.6979575887    -4.4645923301    -0.9484861641
   93      H       2.9140189610    -3.7512224280     4.5525509739
   94      C       4.0874582867    -3.6105615337     2.6732227265
   95      H       2.9109675188    -5.2182469725     3.5983378560
   96      H       5.0463168350    -3.8201935850     3.1629345678
   97      H       3.9739150659    -2.5192306959     2.6513380403
   98      C       4.1456194830    -4.2476631125     1.2326076309
   99      H       4.4329113259    -5.3045341372     1.2937470956
  100      C       5.0330601659    -3.4362192712     0.3090309277
  101      H       3.1145485459    -4.2358688725     0.8594486589
  102      H       5.8493527107    -3.0863057764     0.9532669306
  103      H       4.4571053317    -2.5464052047     0.0257414009
  104      C       5.6893101997    -4.2105753852    -0.8404691819
  105      H       6.2218179355    -5.0811380590    -0.4373350327
  106      C       6.6379338153    -3.3638747533    -1.6315369893
  107      H       4.8449367228    -4.6453023287    -1.3896676124
  108      H       7.0791678794    -3.9615961985    -2.4388130106
  109      H       7.3671393128    -2.9971698896    -0.8992447762
  110      H       6.0821942527    -2.5554090264    -2.1206900400
 ----------------------------------------------------------------

   10   -5663.4838552159      3.88E-06 Convergence criterion met
 Total energy in the final basis set = -5663.4838552159

                    Orbital Energies (a.u.)
 --------------------------------------------------------------

 Alpha MOs
 -- Occupied --
-88.987 -88.986 -88.937 -88.925 -88.924 -88.919 -88.910 -88.908
-14.392 -14.391 -14.386 -14.382 -14.351 -14.351 -14.343 -14.336
-14.331 -14.325 -10.267 -10.264 -10.263 -10.260 -10.259 -10.257
-10.252 -10.251 -10.240 -10.239 -10.235 -10.234 -10.233 -10.231
-10.231 -10.231 -10.231 -10.229 -10.228 -10.228 -10.228 -10.228
-10.227 -10.227 -10.226 -10.225 -10.224 -10.223 -10.220 -10.219
-10.218 -10.214 -10.207 -10.206 -10.202 -10.200 -10.200 -10.199
-10.186 -10.184 -10.183 -10.180 -10.176 -10.170 -10.170 -10.170
-10.168 -10.167 -10.163 -10.162  -8.042  -8.041  -7.998  -7.985
 -7.984  -7.979  -7.968  -7.967  -6.007  -6.005  -6.001  -6.000
 -6.000  -5.999  -5.962  -5.959  -5.955  -5.949  -5.948  -5.946
 -5.945  -5.943  -5.942  -5.940  -5.939  -5.936  -5.932  -5.932
 -5.929  -5.929  -5.924  -5.923  -1.031  -1.026  -0.983  -0.969
 -0.955  -0.948  -0.944  -0.938  -0.912  -0.910  -0.898  -0.895
 -0.839  -0.834  -0.829  -0.823  -0.816  -0.813  -0.811  -0.809
 -0.807  -0.801  -0.798  -0.793  -0.790  -0.784  -0.769  -0.764
 -0.748  -0.746  -0.737  -0.735  -0.727  -0.716  -0.713  -0.708
 -0.694  -0.691  -0.671  -0.669  -0.658  -0.649  -0.644  -0.643
 -0.638  -0.629  -0.625  -0.624  -0.617  -0.608  -0.602  -0.596
 -0.593  -0.591  -0.585  -0.579  -0.574  -0.571  -0.564  -0.555
 -0.549  -0.544  -0.538  -0.536  -0.525  -0.522  -0.518  -0.511
 -0.506  -0.506  -0.501  -0.498  -0.488  -0.481  -0.476  -0.474
 -0.471  -0.469  -0.466  -0.465  -0.463  -0.461  -0.448  -0.447
 -0.442  -0.440  -0.440  -0.436  -0.435  -0.432  -0.430  -0.429
 -0.428  -0.426  -0.425  -0.423  -0.422  -0.417  -0.416  -0.415
 -0.408  -0.406  -0.405  -0.402  -0.399  -0.397  -0.396  -0.395
 -0.395  -0.392  -0.390  -0.388  -0.385  -0.382  -0.381  -0.380
 -0.377  -0.375  -0.373  -0.371  -0.369  -0.360  -0.358  -0.356
 -0.353  -0.351  -0.349  -0.348  -0.341  -0.338  -0.336  -0.335
 -0.333  -0.331  -0.330  -0.329  -0.329  -0.323  -0.322  -0.320
 -0.313  -0.310  -0.308  -0.302  -0.301  -0.300  -0.299  -0.296
 -0.296  -0.295  -0.294  -0.291  -0.290  -0.288  -0.284  -0.280
 -0.278  -0.276  -0.271  -0.267  -0.259  -0.252  -0.250  -0.247
 -0.246  -0.238  -0.232  -0.227  -0.194  -0.192

          Ground-State Mulliken Net Atomic Charges

     Atom                 Charge (a.u.)
  ----------------------------------------
      1 C                     0.267897
      2 C                    -0.117360
      3 N                    -0.461260
      4 C                    -0.080073
      5 C                     0.102543
      6 C                     0.004361
      7 C                     0.042430
      8 C                     0.053996
      9 C                     0.178254
     10 N                    -0.500475
     11 N                    -0.537584
     12 C                     0.259521
     13 C                     0.251378
     14 S                     0.645366
     15 N                    -0.571337
     16 C                    -0.233139
     17 S                     0.344577
     18 C                    -0.100418
     19 C                    -0.195308
     20 S                     0.242580
     21 C                     0.116008
     22 C                     0.038715
     23 C                    -0.303471
     24 C                    -0.053294
     25 N                    -0.426463
     26 S                     0.299152
     27 C                     0.123663
     28 C                    -0.315671
     29 C                    -0.235733
     30 H                     0.088657
     31 H                     0.115037
     32 H                     0.124046
     33 H                     0.105920
     34 H                     0.120067
     35 H                     0.106245
     36 H                     0.130053
     37 H                     0.126970
     38 H                     0.106645
     39 C                    -0.187228
     40 H                     0.118182
     41 H                     0.093250
     42 H                     0.095596
     43 C                    -0.176115
     44 H                     0.095533
     45 C                    -0.172145
     46 H                     0.104753
     47 H                     0.084930
     48 H                     0.082712
     49 C                    -0.180713
     50 H                     0.093115
     51 C                    -0.316676
     52 H                     0.092309
     53 H                     0.118299
     54 H                     0.102892
     55 H                     0.094720
     56 C                     0.260185
     57 C                    -0.099812
     58 N                    -0.473756
     59 C                    -0.100969
     60 C                     0.075427
     61 C                     0.052298
     62 C                     0.052380
     63 C                     0.043032
     64 C                     0.234921
     65 N                    -0.498134
     66 N                    -0.569508
     67 C                     0.203672
     68 C                     0.226923
     69 S                     0.661000
     70 N                    -0.532744
     71 C                    -0.212940
     72 S                     0.304963
     73 C                    -0.103392
     74 C                    -0.257993
     75 S                     0.250693
     76 C                     0.175354
     77 C                     0.097027
     78 C                    -0.314189
     79 C                    -0.040358
     80 N                    -0.430918
     81 S                     0.260289
     82 C                     0.112157
     83 C                    -0.309485
     84 C                    -0.226570
     85 H                     0.108289
     86 H                     0.098624
     87 H                     0.105821
     88 H                     0.118018
     89 H                     0.131500
     90 H                     0.128905
     91 H                     0.109817
     92 H                     0.131022
     93 H                     0.114791
     94 C                    -0.193395
     95 H                     0.083449
     96 H                     0.096877
     97 H                     0.114618
     98 C                    -0.186808
     99 H                     0.082968
    100 C                    -0.176290
    101 H                     0.090228
    102 H                     0.097560
    103 H                     0.105005
    104 C                    -0.184200
    105 H                     0.087128
    106 C                    -0.311412
    107 H                     0.083542
    108 H                     0.092758
    109 H                     0.122142
    110 H                     0.103582
  ----------------------------------------
  Sum of atomic charges =     0.000000

                    Cartesian Multipole Moments
 -----------------------------------------------------------------
    Charge (ESU x 10^10)
                 0.0000
    Dipole Moment (Debye)
         X      -1.4296      Y      -0.1852      Z      -0.0752
       Tot       1.4435
    Quadrupole Moments (Debye-Ang)
        XX    -381.5319     XY      -6.5706     YY    -415.6786
        XZ     -17.4842     YZ       8.2181     ZZ    -454.1861

 Total job time:  100.13s(wall), 1094.25s(cpu)
        *  Thank you very much for using Q-Chem.  Have a nice day.  *
