 Q-Chem 4.4, Q-Chem, Inc., Pleasanton, CA (2016)
 Q-Chem 4.4.2 for Intel X86 Linux

User input:
--------------------------------------------------------------
$comment
SP
$end

$rem
MEM_STATIC 5000
MEM_TOTAL 20000
JOBTYPE SP
EXCHANGE B3LYP
BASIS 6-31g(d,p)
$end

$molecule
0 1
C         -23.925000     19.608000     -9.187000
C         -22.692000     20.070000     -8.780000
N         -24.410000     18.349000     -8.891000
C         -21.878000     19.270000     -7.973000
C         -23.622000     17.559000     -8.109000
C         -22.341000     17.975000     -7.638000
C         -21.589000     16.994000     -6.721000
C         -21.642000     15.611000     -7.001000
C         -20.871000     17.347000     -5.549000
N         -20.948000     14.688000     -6.239000
N         -20.712000     18.638000     -5.190000
C         -20.155000     16.474000     -4.791000
C         -20.217000     15.090000     -5.144000
S         -19.775000     18.601000     -3.835000
N         -19.488000     17.020000     -3.717000
C         -19.635000     13.977000     -4.382000
S         -19.045000     12.480000     -5.121000
C         -19.561000     13.883000     -2.997000
C         -18.847000     11.735000     -3.605000
S         -20.396000     14.703000     -1.757000
C         -19.178000     12.603000     -2.616000
C         -18.733000     10.363000     -3.310000
C         -20.215000     13.366000     -0.690000
C         -19.472000     12.360000     -1.284000
N         -19.250000      9.512000     -4.229000
S         -17.607000      9.687000     -2.075000
C         -18.885000      8.219000     -3.862000
C         -18.071000      8.121000     -2.692000
C         -24.850000     20.435000    -10.045000
H         -22.386000     21.073000     -9.063000
H         -20.883000     19.577000     -7.664000
H         -24.087000     16.637000     -7.763000
H         -22.181000     15.194000     -7.851000
H         -20.654000     13.291000      0.296000
H         -19.227000     11.464000     -0.725000
H         -19.315000      7.390000     -4.408000
H         -17.665000      7.266000     -2.168000
H         -24.368000     21.389000    -10.292000
C         -26.219000     20.711000     -9.411000
H         -25.108000     19.895000    -10.964000
H         -25.980000     21.184000     -8.450000
H         -26.743000     19.780000     -9.161000
C         -27.149000     21.643000    -10.261000
H         -26.588000     22.524000    -10.595000
C         -28.483000     22.032000     -9.614000
H         -27.462000     21.021000    -11.110000
H         -28.259000     22.422000     -8.613000
H         -29.015000     21.079000     -9.509000
C         -29.332000     23.008000    -10.389000
H         -28.799000     23.937000    -10.628000
C         -30.650000     23.275000     -9.704000
H         -29.432000     22.580000    -11.393000
H         -31.296000     22.432000     -9.429000
H         -31.227000     23.812000    -10.467000
H         -30.566000     23.884000     -8.796000
C         -16.927000     26.398000      0.015000
C         -17.966000     25.543000      0.551000
N         -15.968000     25.963000     -0.793000
C         -17.910000     24.162000      0.216000
C         -15.917000     24.643000     -1.015000
C         -16.879000     23.648000     -0.590000
C         -16.777000     22.161000     -0.856000
C         -17.297000     21.174000      0.057000
C         -16.066000     21.577000     -1.967000
N         -17.218000     19.828000     -0.150000
N         -15.432000     22.405000     -2.819000
C         -15.937000     20.248000     -2.167000
C         -16.466000     19.369000     -1.165000
S         -14.640000     21.374000     -3.854000
N         -15.011000     20.011000     -3.120000
C         -16.443000     17.889000     -1.301000
S         -16.168000     17.145000     -2.882000
C         -16.979000     16.962000     -0.420000
C         -16.343000     15.518000     -2.141000
S         -17.564000     17.180000      1.205000
C         -16.909000     15.633000     -0.918000
C         -15.891000     14.261000     -2.692000
C         -17.663000     15.395000      1.282000
C         -17.252000     14.696000      0.128000
N         -15.953000     14.146000     -3.981000
S         -15.505000     12.822000     -1.796000
C         -15.672000     12.891000     -4.388000
C         -15.245000     12.049000     -3.408000
C         -17.007000     27.916000      0.174000
H         -18.819000     25.890000      1.127000
H         -18.742000     23.505000      0.452000
H         -15.091000     24.358000     -1.664000
H         -17.932000     21.472000      0.890000
H         -18.032000     14.927000      2.185000
H         -17.134000     13.619000      0.088000
H         -15.731000     12.749000     -5.459000
H         -14.909000     11.020000     -3.393000
H         -16.481000     28.341000     -0.690000
C         -16.453000     28.524000      1.406000
H         -18.055000     28.201000      0.023000
H         -16.218000     29.577000      1.207000
H         -15.544000     28.067000      1.816000
C         -17.387000     28.487000      2.627000
H         -18.416000     28.738000      2.341000
C         -16.902000     29.540000      3.704000
H         -17.423000     27.489000      3.080000
H         -16.983000     30.594000      3.412000
H         -15.842000     29.305000      3.858000
C         -17.720000     29.390000      5.017000
H         -17.742000     28.309000      5.202000
C         -19.154000     29.862000      4.694000
H         -17.249000     29.955000      5.831000
H         -19.647000     29.646000      3.738000
H         -19.186000     30.955000      4.776000
H         -19.860000     29.568000      5.480000
$end

--------------------------------------------------------------

             Standard Nuclear Orientation (Angstroms)
    I     Atom           X                Y                Z
 ----------------------------------------------------------------
    1      C       1.0737562342     7.7061944478     1.1567646349
    2      C       0.3982506474     6.6912141973     1.7993292568
    3      N       2.2157346653     7.5132034091     0.4040616909
    4      C       0.8291086254     5.3686746083     1.6611430119
    5      C       2.6472956917     6.2280651968     0.2671571410
    6      C       1.9909598543     5.1249468557     0.8902231040
    7      C       2.5642292057     3.7260608406     0.6017197812
    8      C       3.9643195874     3.5563582990     0.5321067776
    9      C       1.7994204761     2.5615370302     0.3321480797
   10      N       4.5363991368     2.3142338922     0.3221997811
   11      N       0.4520704159     2.5790758866     0.4041425504
   12      C       2.3234774293     1.3201616646     0.1485710887
   13      C       3.7481286014     1.2032406223     0.1239234154
   14      S      -0.0208943619     1.0316772618     0.0923336105
   15      N       1.4113787340     0.3087134208    -0.0552165955
   16      C       4.5100096181    -0.0116588852    -0.1949707724
   17      S       6.1031321841    -0.3812939284     0.4836752505
   18      C       4.1596090323    -0.9752452334    -1.1337240835
   19      C       6.3162234491    -1.6993631510    -0.5697812684
   20      S       3.0723617264    -0.9389585668    -2.4466603248
   21      C       5.2164123166    -1.8508526494    -1.3498917763
   22      C       7.5112117899    -2.3528618811    -0.9266387683
   23      C       3.9870618551    -2.1236066006    -3.2944525815
   24      C       5.0567432188    -2.5583304686    -2.5304382238
   25      N       8.6497584529    -1.6331760034    -0.7789406522
   26      S       7.6629129035    -4.1377539837    -1.1296755979
   27      C       9.7248556714    -2.4905694074    -0.9998603693
   28      C       9.3784817443    -3.8486930149    -1.2766732472
   29      C       0.6433318830     9.1484427973     1.2586104802
   30      H      -0.4895154758     6.9327353270     2.3766271473
   31      H       0.3523095153     4.5436277712     2.1824062134
   32      H       3.4531626222     6.0829828594    -0.4508641718
   33      H       4.6728892457     4.3690488164     0.6882258422
   34      H       3.7897057719    -2.4592486661    -4.3038766650
   35      H       5.7072950820    -3.3413078436    -2.9033332541
   36      H      10.7182258379    -2.0652679888    -1.0507663192
   37      H       9.9866363238    -4.7133273569    -1.5068741639
   38      H      -0.2252555327     9.2270697437     1.9240597305
   39      C       0.3080875665     9.8025632177    -0.0875064255
   40      H       1.4643611141     9.7692969766     1.6369966451
   41      H      -0.4609833923     9.1497969531    -0.5197066847
   42      H       1.1577855060     9.7585682270    -0.7802652957
   43      C      -0.2236772403    11.2726317269     0.0227150269
   44      H      -1.0032007836    11.3297496253     0.7918174850
   45      C      -0.6730057806    11.9249299412    -1.2895718710
   46      H       0.6580044745    11.8653227155     0.3002195239
   47      H      -1.3747249715    11.2341887492    -1.7740755168
   48      H       0.2435102944    11.9730991164    -1.8895185477
   49      C      -1.2771294624    13.3013220334    -1.1688184624
   50      H      -2.1291856910    13.3312809217    -0.4779106188
   51      C      -1.6244040083    13.8837923222    -2.5170642680
   52      H      -0.5497503930    13.8944338432    -0.6028343014
   53      H      -0.8547011790    13.9359189776    -3.2970837334
   54      H      -1.8417274935    14.9347825967    -2.2897826240
   55      H      -2.4915145707    13.4140258122    -2.9964802657
   56      C      -8.8542193283    -1.2899130343     0.6485723493
   57      C      -8.1191563227    -1.1259374148    -0.5886165506
   58      N      -8.2771953123    -1.5833472687     1.8073258326
   59      C      -6.7136339032    -1.3381350163    -0.5438850621
   60      C      -6.9642010007    -1.8470573959     1.7792561607
   61      C      -6.0690380612    -1.7065568072     0.6500808438
   62      C      -4.5889874891    -2.0254173224     0.6604382528
   63      C      -3.8937808472    -2.5112206070    -0.5052464790
   64      C      -3.7539955199    -1.9891883063     1.8361822172
   65      N      -2.5634164700    -2.8118530880    -0.5288417113
   66      N      -4.3282040607    -1.6685168021     3.0112985256
   67      C      -2.4464146987    -2.3253964452     1.8450412934
   68      C      -1.8803239343    -2.8313868967     0.6284884136
   69      S      -3.1015667063    -1.8638115490     4.1152327458
   70      N      -2.0083561537    -2.4472594150     3.1159103377
   71      C      -0.4403549406    -3.1746351617     0.4939710327
   72      S       0.7321681159    -2.5703732572     1.6724358107
   73      C       0.2095542330    -3.6117669725    -0.6502841163
   74      C       2.0551228798    -3.3726244765     0.7597372440
   75      S      -0.4512674399    -4.1687958725    -2.1613789251
   76      C       1.6155493347    -3.7154063543    -0.4725718417
   77      C       3.3750448719    -3.6962544445     1.2506787666
   78      C       1.2216275572    -4.6457736155    -2.5807469749
   79      C       2.2059267250    -4.3990850271    -1.6011869264
   80      N       3.8920169699    -2.8609693650     2.0954442286
   81      S       4.4210771529    -4.9472459221     0.6478771490
   82      C       5.1805314162    -3.1533454494     2.3672561986
   83      C       5.6320632695    -4.3205389935     1.8329611338
   84      C     -10.3321532735    -0.9098529024     0.7338398681
   85      H      -8.5500826086    -0.7849919251    -1.5255544936
   86      H      -6.0908232772    -1.0757430508    -1.3940770290
   87      H      -6.5666626336    -2.1047076011     2.7591957601
   88      H      -4.3783548230    -2.5043861786    -1.4804691984
   89      H       1.4155093368    -5.0884475485    -3.5487571219
   90      H       3.2262215252    -4.7591353229    -1.6705793271
   91      H       5.6546732157    -2.4669384290     3.0562561668
   92      H       6.5700760107    -4.8586275285     1.8835064176
   93      H     -10.5117493416    -0.6166860949     1.7757589989
   94      C     -11.3420160257    -1.9238129369     0.3511307484
   95      H     -10.4597405605     0.0177609416     0.1632401480
   96      H     -12.2968822723    -1.6710318599     0.8285898337
   97      H     -11.1201056931    -2.9651668479     0.6148879025
   98      C     -11.6039508331    -2.0438854478    -1.1593455834
   99      H     -11.6589369325    -1.0532081416    -1.6275047484
  100      C     -12.9799772567    -2.7850489820    -1.4067135225
  101      H     -10.7984253788    -2.5861739536    -1.6688167985
  102      H     -13.8781682008    -2.2459957252    -1.0820358141
  103      H     -12.9016947995    -3.7092114889    -0.8216182159
  104      C     -13.1742777009    -3.0786248276    -2.9205343706
  105      H     -12.2078196661    -3.4830435948    -3.2456102503
  106      C     -13.3900766898    -1.7121241602    -3.6057903246
  107      H     -14.0054112494    -3.7782072449    -3.0737122601
  108      H     -12.8426341779    -0.8085777645    -3.3098991165
  109      H     -14.4463966610    -1.4360917704    -3.5038529008
  110      H     -13.2937227715    -1.7897986970    -4.6954465037
 ----------------------------------------------------------------

   10   -5663.4874748141      6.90E-06 Convergence criterion met
 Total energy in the final basis set = -5663.4874748141

                    Orbital Energies (a.u.)
 --------------------------------------------------------------

 Alpha MOs
 -- Occupied --
-88.991 -88.989 -88.931 -88.925 -88.921 -88.917 -88.914 -88.906
-14.387 -14.385 -14.380 -14.378 -14.354 -14.348 -14.347 -14.333
-14.332 -14.329 -10.266 -10.266 -10.262 -10.261 -10.255 -10.254
-10.252 -10.251 -10.244 -10.239 -10.237 -10.235 -10.235 -10.235
-10.234 -10.233 -10.233 -10.230 -10.230 -10.229 -10.229 -10.228
-10.228 -10.225 -10.224 -10.223 -10.222 -10.221 -10.221 -10.220
-10.213 -10.213 -10.208 -10.207 -10.206 -10.198 -10.197 -10.192
-10.182 -10.182 -10.180 -10.178 -10.178 -10.177 -10.176 -10.175
-10.175 -10.172 -10.170 -10.169  -8.047  -8.045  -7.991  -7.986
 -7.980  -7.975  -7.974  -7.968  -6.012  -6.010  -6.006  -6.005
 -6.004  -6.003  -5.955  -5.952  -5.950  -5.948  -5.946  -5.945
 -5.942  -5.941  -5.940  -5.938  -5.937  -5.936  -5.935  -5.933
 -5.932  -5.930  -5.929  -5.924  -1.046  -1.039  -0.977  -0.956
 -0.956  -0.941  -0.941  -0.929  -0.921  -0.908  -0.901  -0.901
 -0.854  -0.837  -0.829  -0.822  -0.813  -0.809  -0.808  -0.805
 -0.803  -0.801  -0.797  -0.794  -0.788  -0.781  -0.768  -0.765
 -0.748  -0.744  -0.740  -0.739  -0.727  -0.717  -0.711  -0.708
 -0.692  -0.691  -0.675  -0.668  -0.655  -0.650  -0.645  -0.643
 -0.636  -0.635  -0.624  -0.622  -0.613  -0.606  -0.605  -0.596
 -0.594  -0.594  -0.580  -0.578  -0.575  -0.574  -0.567  -0.566
 -0.548  -0.543  -0.539  -0.536  -0.524  -0.520  -0.517  -0.516
 -0.506  -0.505  -0.498  -0.498  -0.485  -0.482  -0.480  -0.473
 -0.473  -0.472  -0.467  -0.466  -0.464  -0.458  -0.449  -0.448
 -0.446  -0.444  -0.441  -0.439  -0.437  -0.435  -0.434  -0.427
 -0.426  -0.423  -0.420  -0.418  -0.416  -0.414  -0.414  -0.412
 -0.411  -0.408  -0.404  -0.403  -0.398  -0.397  -0.396  -0.394
 -0.393  -0.392  -0.390  -0.389  -0.388  -0.384  -0.383  -0.380
 -0.379  -0.378  -0.375  -0.371  -0.369  -0.364  -0.360  -0.358
 -0.355  -0.352  -0.350  -0.347  -0.346  -0.344  -0.341  -0.340
 -0.338  -0.332  -0.330  -0.326  -0.325  -0.323  -0.321  -0.317
 -0.314  -0.312  -0.307  -0.306  -0.304  -0.302  -0.300  -0.299
 -0.297  -0.294  -0.294  -0.290  -0.287  -0.285  -0.281  -0.280
 -0.278  -0.269  -0.267  -0.263  -0.259  -0.257  -0.255  -0.245
 -0.241  -0.237  -0.233  -0.229  -0.194  -0.189

          Ground-State Mulliken Net Atomic Charges

     Atom                 Charge (a.u.)
  ----------------------------------------
      1 C                     0.278603
      2 C                    -0.124212
      3 N                    -0.489920
      4 C                    -0.049476
      5 C                     0.073722
      6 C                     0.028807
      7 C                     0.023626
      8 C                     0.052784
      9 C                     0.235959
     10 N                    -0.510780
     11 N                    -0.555801
     12 C                     0.213429
     13 C                     0.251775
     14 S                     0.615596
     15 N                    -0.534141
     16 C                    -0.201804
     17 S                     0.348794
     18 C                    -0.109875
     19 C                    -0.168364
     20 S                     0.279911
     21 C                     0.110034
     22 C                     0.018220
     23 C                    -0.296773
     24 C                    -0.084718
     25 N                    -0.411748
     26 S                     0.262511
     27 C                     0.112453
     28 C                    -0.311290
     29 C                    -0.218583
     30 H                     0.093020
     31 H                     0.113253
     32 H                     0.111371
     33 H                     0.123033
     34 H                     0.130408
     35 H                     0.101586
     36 H                     0.116288
     37 H                     0.134334
     38 H                     0.088186
     39 C                    -0.178908
     40 H                     0.117409
     41 H                     0.084816
     42 H                     0.115975
     43 C                    -0.182830
     44 H                     0.083612
     45 C                    -0.161977
     46 H                     0.090842
     47 H                     0.085536
     48 H                     0.091445
     49 C                    -0.171841
     50 H                     0.092334
     51 C                    -0.316350
     52 H                     0.090237
     53 H                     0.104317
     54 H                     0.097399
     55 H                     0.105763
     56 C                     0.260957
     57 C                    -0.120725
     58 N                    -0.462362
     59 C                    -0.100197
     60 C                     0.077622
     61 C                     0.058541
     62 C                     0.037311
     63 C                     0.046888
     64 C                     0.202594
     65 N                    -0.502964
     66 N                    -0.565331
     67 C                     0.198257
     68 C                     0.290173
     69 S                     0.606776
     70 N                    -0.512258
     71 C                    -0.236653
     72 S                     0.333392
     73 C                    -0.104111
     74 C                    -0.195805
     75 S                     0.289168
     76 C                     0.146689
     77 C                     0.047649
     78 C                    -0.310135
     79 C                    -0.070809
     80 N                    -0.410696
     81 S                     0.240540
     82 C                     0.139197
     83 C                    -0.313636
     84 C                    -0.235222
     85 H                     0.098131
     86 H                     0.097552
     87 H                     0.122409
     88 H                     0.107059
     89 H                     0.119009
     90 H                     0.116768
     91 H                     0.120408
     92 H                     0.138968
     93 H                     0.117115
     94 C                    -0.168078
     95 H                     0.099864
     96 H                     0.098449
     97 H                     0.104749
     98 C                    -0.181958
     99 H                     0.086746
    100 C                    -0.176169
    101 H                     0.094552
    102 H                     0.091698
    103 H                     0.084592
    104 C                    -0.176287
    105 H                     0.094870
    106 C                    -0.324630
    107 H                     0.095841
    108 H                     0.108638
    109 H                     0.100854
    110 H                     0.095999
  ----------------------------------------
  Sum of atomic charges =     0.000000

                    Cartesian Multipole Moments
 -----------------------------------------------------------------
    Charge (ESU x 10^10)
                 0.0000
    Dipole Moment (Debye)
         X       0.0870      Y      -2.5267      Z      -1.9559
       Tot       3.1965
    Quadrupole Moments (Debye-Ang)
        XX    -421.7234     XY     -41.4732     YY    -435.1263
        XZ       5.8833     YZ      18.4228     ZZ    -433.5447

 Total job time:  109.57s(wall), 1171.04s(cpu)
        *  Thank you very much for using Q-Chem.  Have a nice day.  *
