 Q-Chem 4.4, Q-Chem, Inc., Pleasanton, CA (2016)
 Q-Chem 4.4.2 for Intel X86 Linux

User input:
--------------------------------------------------------------
$comment
SP
$end

$rem
MEM_STATIC 5000
MEM_TOTAL 20000
JOBTYPE SP
EXCHANGE B3LYP
BASIS 6-31g(d,p)
$end

$molecule
0 1
C           1.136000      7.171000      3.468000
C          -0.058000      6.460000      3.507000
N           2.322000      6.612000      3.173000
C          -0.019000      5.042000      3.315000
C           2.342000      5.296000      2.829000
C           1.226000      4.459000      2.922000
C           1.467000      2.966000      2.890000
C           1.909000      2.388000      1.726000
C           1.299000      2.122000      4.044000
N           2.314000      1.136000      1.563000
N           0.947000      2.536000      5.224000
C           1.634000      0.800000      3.916000
C           2.235000      0.366000      2.671000
S           1.065000      1.199000      6.171000
N           1.596000      0.027000      5.042000
C           3.057000     -0.845000      2.573000
S           3.192000     -1.955000      1.235000
C           4.166000     -1.009000      3.375000
C           4.664000     -2.688000      1.814000
S           4.724000     -0.055000      4.689000
C           5.047000     -1.946000      2.922000
C           5.541000     -3.554000      1.085000
C           6.273000     -0.967000      4.614000
C           6.232000     -1.946000      3.618000
N           4.951000     -4.289000      0.185000
S           7.298000     -3.731000      1.115000
C           5.854000     -5.124000     -0.474000
C           7.236000     -4.859000     -0.161000
C           1.147000      8.631000      3.791000
H          -1.024000      6.919000      3.697000
H          -0.927000      4.461000      3.448000
H           3.320000      4.859000      2.635000
H           2.121000      2.956000      0.822000
H           7.089000     -0.712000      5.277000
H           6.953000     -2.753000      3.552000
H           5.425000     -5.740000     -1.252000
H           8.149000     -5.211000     -0.621000
H           1.748000      9.079000      2.989000
C           1.697000      8.957000      5.248000
H           0.127000      8.994000      3.618000
H           2.627000      8.384000      5.342000
H           1.042000      8.517000      6.010000
C           2.014000     10.420000      5.443000
H           2.753000     10.713000      4.687000
C           2.569000     10.828000      6.841000
H           1.134000     11.033000      5.215000
H           2.798000     11.900000      6.861000
H           3.517000     10.293000      6.977000
C           1.602000     10.480000      7.971000
H           0.573000     10.752000      7.704000
C           1.957000     11.096000      9.338000
H           1.456000      9.408000      8.151000
H           2.924000     10.668000      9.630000
H           1.191000     10.827000     10.077000
H           2.048000     12.176000      9.168000
C          11.087000     -1.425000      3.865000
C          10.373000     -2.247000      2.998000
N          12.265000     -0.789000      3.594000
C          11.099000     -2.668000      1.867000
C          12.829000     -1.122000      2.424000
C          12.416000     -2.091000      1.542000
C          13.219000     -2.401000      0.305000
C          12.608000     -2.680000     -0.881000
C          14.683000     -2.550000      0.376000
N          13.298000     -2.982000     -2.019000
N          15.420000     -2.530000      1.513000
C          15.397000     -2.816000     -0.766000
C          14.688000     -3.012000     -1.970000
S          16.966000     -2.877000      1.037000
N          16.722000     -3.130000     -0.555000
C          15.413000     -3.270000     -3.216000
S          14.843000     -4.390000     -4.487000
C          16.458000     -2.510000     -3.706000
C          15.906000     -3.561000     -5.661000
S          17.473000     -1.290000     -2.906000
C          16.712000     -2.610000     -5.034000
C          15.700000     -3.617000     -7.082000
C          18.129000     -0.824000     -4.501000
C          17.701000     -1.690000     -5.523000
N          16.291000     -2.763000     -7.816000
S          14.488000     -4.649000     -7.848000
C          15.834000     -2.844000     -9.096000
C          14.889000     -3.839000     -9.317000
C          10.417000     -0.927000      5.151000
H           9.372000     -2.587000      3.245000
H          10.685000     -3.413000      1.194000
H          13.740000     -0.562000      2.217000
H          11.552000     -2.435000     -0.983000
H          18.804000      0.019000     -4.570000
H          18.045000     -1.570000     -6.544000
H          16.209000     -2.142000     -9.830000
H          14.351000     -3.909000    -10.252000
H          10.412000      0.157000      5.319000
C          10.954000     -1.673000      6.453000
H           9.368000     -1.212000      5.005000
H          10.427000     -1.361000      7.363000
H          11.993000     -1.335000      6.556000
C          10.829000     -3.241000      6.351000
H           9.778000     -3.546000      6.426000
C          11.728000     -3.930000      7.359000
H          11.147000     -3.500000      5.334000
H          11.694000     -3.281000      8.243000
H          12.749000     -3.863000      6.963000
C          11.273000     -5.319000      7.823000
H          10.238000     -5.263000      8.183000
C          12.150000     -5.877000      8.901000
H          11.202000     -5.903000      6.897000
H          11.784000     -6.868000      9.197000
H          12.118000     -5.132000      9.705000
H          13.160000     -6.032000      8.504000
$end

--------------------------------------------------------------

             Standard Nuclear Orientation (Angstroms)
    I     Atom           X                Y                Z
 ----------------------------------------------------------------
    1      C     -10.1219122265     3.8881039175     0.9969834126
    2      C     -10.7230529211     3.5865039854    -0.2197110216
    3      N      -8.8312287875     3.6313587939     1.2696007301
    4      C      -9.9608452464     2.8827570402    -1.2060622256
    5      C      -8.0583311203     3.1112690630     0.2782744125
    6      C      -8.5685870355     2.6813170722    -0.9503240518
    7      C      -7.6943466393     1.7799485206    -1.7937648996
    8      C      -6.5512895994     2.2948922000    -2.3528691928
    9      C      -7.9806450781     0.3845399032    -2.0014762248
   10      N      -5.6004884365     1.6201098263    -2.9843309073
   11      N      -8.9886735814    -0.2530997059    -1.4867002877
   12      C      -7.0676030514    -0.3507344744    -2.7100091083
   13      C      -5.8312778339     0.2938024735    -3.1045393093
   14      S      -8.7376685897    -1.8179300326    -1.9186777670
   15      N      -7.2744006124    -1.6983942753    -2.7988732166
   16      C      -4.6134721632    -0.4620378253    -3.4167312232
   17      S      -3.3804058050    -0.0887145357    -4.5917827446
   18      C      -4.0748211187    -1.3380994052    -2.4989337725
   19      C      -2.2041405265    -1.1771657523    -3.9054971308
   20      S      -4.7006531861    -1.8762837315    -0.9933548625
   21      C      -2.7699041271    -1.6570165588    -2.7330758108
   22      C      -0.8049397435    -1.2350567241    -4.2045151975
   23      C      -3.0780757541    -2.5656950344    -0.6345728501
   24      C      -2.1982314707    -2.3609406134    -1.7004469814
   25      N      -0.4968370885    -0.8882831466    -5.4223599495
   26      S       0.5929708406    -1.5937447245    -3.1864450049
   27      C       0.8751821198    -0.9862449281    -5.6566285590
   28      C       1.6557828489    -1.2545092756    -4.4747593862
   29      C     -10.9267135386     4.5070836828     2.0948034791
   30      H     -11.7524026049     3.8375380823    -0.4592065551
   31      H     -10.4482134626     2.5476313772    -2.1170380825
   32      H      -7.0279782707     2.8750220816     0.5383693361
   33      H      -6.2238615612     3.3216704646    -2.2002216410
   34      H      -2.8861700388    -3.0425913848     0.3173683600
   35      H      -1.2550680578    -2.8866427409    -1.7980484661
   36      H       1.1941572944    -0.6854195606    -6.6448289113
   37      H       2.7231467188    -1.2212855433    -4.3053381572
   38      H     -10.2979064758     5.3306958302     2.4572585913
   39      C     -11.3411217770     3.4804616830     3.2375799583
   40      H     -11.7831852754     4.9942150159     1.6139113621
   41      H     -10.4206431108     2.9415109504     3.4911862138
   42      H     -11.9957186015     2.7002648522     2.8300693418
   43      C     -11.8552863768     4.1624506868     4.4823324490
   44      H     -11.0732208261     4.8388228802     4.8489386827
   45      C     -12.2753822961     3.2309336535     5.6590603000
   46      H     -12.6931238098     4.8246809151     4.2340733899
   47      H     -12.5969640606     3.8281125077     6.5204473121
   48      H     -11.3781845234     2.6792605810     5.9658468344
   49      C     -13.3808124492     2.2559679804     5.2583620183
   50      H     -14.1587679354     2.7639286539     4.6745168200
   51      C     -14.0322162844     1.4997031183     6.4322046406
   52      H     -13.0901508925     1.4900561395     4.5291193211
   53      H     -13.2422935161     0.8865364958     6.8834093758
   54      H     -14.8376472096     0.8546623062     6.0574495532
   55      H     -14.3728838078     2.2696801711     7.1355267408
   56      C       1.1298062849    -2.8759771920     1.8438973896
   57      C       1.3678605446    -2.5912760597     0.5024636660
   58      N       1.8616516311    -2.4340762628     2.9091424121
   59      C       2.6395580736    -2.0452416126     0.2414851662
   60      C       2.9889759556    -1.7833779122     2.5872472058
   61      C       3.5288339314    -1.6141859534     1.3352961496
   62      C       4.8583280076    -0.9279244842     1.1548281547
   63      C       5.0780576116    -0.0791577547     0.1112420585
   64      C       6.0022253256    -1.2640308172     2.0203161435
   65      N       6.2718270135     0.5484489233    -0.0970185301
   66      N       6.0183566227    -2.2458229291     2.9542122996
   67      C       7.1997496015    -0.6148053550     1.8495592759
   68      C       7.3160302770     0.3107087875     0.7909680533
   69      S       7.5707652722    -2.2794215423     3.5251759746
   70      N       8.2473738725    -1.1422891462     2.5727371495
   71      C       8.5670602766     1.0454175718     0.5913886391
   72      S       9.2388453689     1.4516737758    -1.0143515909
   73      C       9.2446501498     1.7519207736     1.5668117214
   74      C      10.2197200646     2.7372979699    -0.2524190068
   75      S       9.0858293947     1.7195668925     3.3366575322
   76      C      10.1055434442     2.7074706351     1.1379910153
   77      C      10.7556343892     3.8525842299    -0.9829978150
   78      C      10.1202162619     3.1729666392     3.4325219431
   79      C      10.6677130433     3.5164191144     2.1835577036
   80      N      11.1609795228     4.8672543357    -0.3322344947
   81      S      10.6639884939     3.9964824858    -2.7412976534
   82      C      11.4518164205     5.8889103963    -1.1839637902
   83      C      11.2900911067     5.5898796317    -2.5316716683
   84      C      -0.2070571739    -3.5055239968     2.2527578954
   85      H       0.6473059139    -2.8597926641    -0.2638977744
   86      H       2.9790970977    -1.9066308147    -0.7806940244
   87      H       3.5228524413    -1.4028042605     3.4570228054
   88      H       4.2144594780     0.2858447853    -0.4424152448
   89      H      10.2822223682     3.6450102126     4.3927114485
   90      H      11.3530984211     4.3497541870     2.0787887165
   91      H      11.7623158040     6.8405731913    -0.7715161481
   92      H      11.3526849228     6.3562680904    -3.2914741062
   93      H      -0.7808813383    -2.9875307947     3.0310341130
   94      C      -0.0728218983    -5.0508638973     2.6188104636
   95      H      -0.8045366740    -3.4244929896     1.3365732945
   96      H      -1.0406019145    -5.5136761239     2.8476765449
   97      H       0.5132348801    -5.0648589535     3.5465580536
   98      C       0.5908240990    -5.8942570429     1.4642910865
   99      H      -0.1027937049    -5.9994612713     0.6210370248
  100      C       1.1115543854    -7.2204275510     1.9830374138
  101      H       1.4263690917    -5.2879523792     1.0944894912
  102      H       0.3769472202    -7.5248534910     2.7390070957
  103      H       2.0408841506    -7.0005628860     2.5231778738
  104      C       1.1784047350    -8.3604195420     0.9595183415
  105      H       0.1996156597    -8.4762805628     0.4773262949
  106      C       1.5902552106    -9.6604456848     1.5782979581
  107      H       1.8236737299    -7.9701770889     0.1627048426
  108      H       1.6230320539   -10.4407250967     0.8077509331
  109      H       0.8511947649    -9.8443993457     2.3672312304
  110      H       2.6123156203    -9.5714758064     1.9645761993
 ----------------------------------------------------------------

   10   -5663.4898182969      3.71E-06 Convergence criterion met
 Total energy in the final basis set = -5663.4898182969

                    Orbital Energies (a.u.)
 --------------------------------------------------------------

 Alpha MOs
 -- Occupied --
-88.994 -88.991 -88.931 -88.927 -88.925 -88.925 -88.914 -88.909
-14.405 -14.393 -14.393 -14.387 -14.355 -14.353 -14.341 -14.337
-14.332 -14.331 -10.268 -10.267 -10.267 -10.264 -10.262 -10.261
-10.260 -10.257 -10.242 -10.241 -10.238 -10.238 -10.237 -10.236
-10.236 -10.235 -10.233 -10.232 -10.231 -10.231 -10.231 -10.229
-10.228 -10.227 -10.227 -10.225 -10.225 -10.224 -10.221 -10.220
-10.219 -10.217 -10.209 -10.207 -10.204 -10.203 -10.202 -10.199
-10.188 -10.185 -10.185 -10.183 -10.179 -10.177 -10.176 -10.174
-10.174 -10.172 -10.171 -10.171  -8.049  -8.047  -7.993  -7.986
 -7.985  -7.984  -7.975  -7.969  -6.014  -6.012  -6.009  -6.007
 -6.006  -6.004  -5.956  -5.953  -5.950  -5.950  -5.950  -5.948
 -5.947  -5.946  -5.944  -5.943  -5.942  -5.941  -5.939  -5.936
 -5.933  -5.931  -5.930  -5.925  -1.046  -1.037  -0.985  -0.970
 -0.968  -0.948  -0.939  -0.938  -0.925  -0.916  -0.913  -0.900
 -0.851  -0.840  -0.834  -0.826  -0.815  -0.814  -0.812  -0.811
 -0.806  -0.805  -0.797  -0.796  -0.788  -0.786  -0.768  -0.767
 -0.749  -0.748  -0.745  -0.739  -0.728  -0.725  -0.714  -0.712
 -0.695  -0.694  -0.680  -0.673  -0.659  -0.654  -0.648  -0.645
 -0.641  -0.632  -0.628  -0.627  -0.611  -0.610  -0.604  -0.600
 -0.598  -0.594  -0.591  -0.583  -0.580  -0.576  -0.571  -0.563
 -0.551  -0.549  -0.544  -0.541  -0.529  -0.525  -0.519  -0.509
 -0.508  -0.508  -0.505  -0.503  -0.492  -0.483  -0.482  -0.478
 -0.473  -0.472  -0.471  -0.470  -0.467  -0.463  -0.452  -0.449
 -0.443  -0.443  -0.443  -0.440  -0.439  -0.436  -0.436  -0.434
 -0.431  -0.431  -0.429  -0.423  -0.422  -0.418  -0.417  -0.417
 -0.414  -0.411  -0.410  -0.404  -0.403  -0.402  -0.401  -0.401
 -0.396  -0.396  -0.394  -0.390  -0.390  -0.384  -0.384  -0.380
 -0.377  -0.376  -0.374  -0.373  -0.366  -0.363  -0.359  -0.358
 -0.354  -0.353  -0.350  -0.350  -0.349  -0.344  -0.342  -0.341
 -0.338  -0.337  -0.335  -0.331  -0.331  -0.330  -0.328  -0.324
 -0.315  -0.315  -0.314  -0.312  -0.310  -0.306  -0.303  -0.303
 -0.301  -0.300  -0.294  -0.290  -0.288  -0.286  -0.283  -0.282
 -0.280  -0.279  -0.273  -0.266  -0.260  -0.259  -0.255  -0.253
 -0.248  -0.244  -0.237  -0.235  -0.196  -0.193

          Ground-State Mulliken Net Atomic Charges

     Atom                 Charge (a.u.)
  ----------------------------------------
      1 C                     0.269402
      2 C                    -0.117582
      3 N                    -0.475593
      4 C                    -0.061619
      5 C                     0.083071
      6 C                     0.014473
      7 C                     0.016444
      8 C                     0.044355
      9 C                     0.277625
     10 N                    -0.448922
     11 N                    -0.539276
     12 C                     0.199858
     13 C                     0.202863
     14 S                     0.587055
     15 N                    -0.529393
     16 C                    -0.207446
     17 S                     0.351426
     18 C                    -0.098896
     19 C                    -0.203142
     20 S                     0.249556
     21 C                     0.143872
     22 C                     0.049743
     23 C                    -0.320477
     24 C                    -0.084769
     25 N                    -0.419676
     26 S                     0.283550
     27 C                     0.101771
     28 C                    -0.330681
     29 C                    -0.222957
     30 H                     0.093999
     31 H                     0.103835
     32 H                     0.108564
     33 H                     0.113566
     34 H                     0.137168
     35 H                     0.109041
     36 H                     0.117517
     37 H                     0.148513
     38 H                     0.116440
     39 C                    -0.171816
     40 H                     0.089970
     41 H                     0.116183
     42 H                     0.097120
     43 C                    -0.180956
     44 H                     0.092948
     45 C                    -0.171331
     46 H                     0.088854
     47 H                     0.090043
     48 H                     0.093650
     49 C                    -0.178527
     50 H                     0.087321
     51 C                    -0.314525
     52 H                     0.092958
     53 H                     0.104017
     54 H                     0.099924
     55 H                     0.101738
     56 C                     0.261658
     57 C                    -0.092304
     58 N                    -0.472176
     59 C                    -0.101590
     60 C                     0.081135
     61 C                     0.053484
     62 C                     0.052853
     63 C                     0.040980
     64 C                     0.229409
     65 N                    -0.497072
     66 N                    -0.551534
     67 C                     0.208039
     68 C                     0.228863
     69 S                     0.618739
     70 N                    -0.523118
     71 C                    -0.213381
     72 S                     0.303417
     73 C                    -0.102252
     74 C                    -0.257044
     75 S                     0.250969
     76 C                     0.175068
     77 C                     0.097051
     78 C                    -0.311109
     79 C                    -0.039957
     80 N                    -0.430083
     81 S                     0.260477
     82 C                     0.112329
     83 C                    -0.308752
     84 C                    -0.234544
     85 H                     0.106131
     86 H                     0.092611
     87 H                     0.103170
     88 H                     0.119992
     89 H                     0.135146
     90 H                     0.129930
     91 H                     0.110847
     92 H                     0.131774
     93 H                     0.115986
     94 C                    -0.190673
     95 H                     0.083283
     96 H                     0.092446
     97 H                     0.116116
     98 C                    -0.185246
     99 H                     0.083308
    100 C                    -0.165832
    101 H                     0.097086
    102 H                     0.085232
    103 H                     0.097069
    104 C                    -0.181523
    105 H                     0.090549
    106 C                    -0.305000
    107 H                     0.088820
    108 H                     0.099009
    109 H                     0.105078
    110 H                     0.104289
  ----------------------------------------
  Sum of atomic charges =     0.000000

                    Cartesian Multipole Moments
 -----------------------------------------------------------------
    Charge (ESU x 10^10)
                 0.0000
    Dipole Moment (Debye)
         X      -0.3754      Y       0.4935      Z      -0.3472
       Tot       0.7106
    Quadrupole Moments (Debye-Ang)
        XX    -388.8459     XY      14.1472     YY    -429.6253
        XZ      -0.4771     YZ      -4.8132     ZZ    -449.5012

 Total job time:  93.03s(wall), 1005.23s(cpu)
        *  Thank you very much for using Q-Chem.  Have a nice day.  *
