 Q-Chem 4.4, Q-Chem, Inc., Pleasanton, CA (2016)
 Q-Chem 4.4.2 for Intel X86 Linux

User input:
--------------------------------------------------------------
$comment
SP
$end

$rem
MEM_STATIC 5000
MEM_TOTAL 20000
JOBTYPE SP
EXCHANGE B3LYP
BASIS 6-31g(d,p)
$end

$molecule
0 1
C           0.396000     14.313000     -4.655000
C           0.832000     14.452000     -5.973000
N           1.075000     14.728000     -3.611000
C           1.738000     15.477000     -6.214000
C           2.129000     15.575000     -3.872000
C           2.400000     16.066000     -5.157000
C           3.267000     17.311000     -5.245000
C           2.891000     18.313000     -6.108000
C           4.373000     17.670000     -4.436000
N           3.493000     19.493000     -6.262000
N           4.931000     16.715000     -3.621000
C           5.006000     18.899000     -4.507000
C           4.505000     19.850000     -5.420000
S           6.330000     17.379000     -3.139000
N           6.083000     18.945000     -3.680000
C           5.022000     21.181000     -5.686000
S           5.096000     22.073000     -7.228000
C           5.412000     22.054000     -4.695000
C           5.693000     23.559000     -6.426000
S           5.287000     21.791000     -3.005000
C           5.788000     23.359000     -5.055000
C           5.867000     24.821000     -7.158000
C           5.646000     23.501000     -2.757000
C           5.880000     24.224000     -3.937000
N           6.459000     25.836000     -6.569000
S           5.368000     24.916000     -8.802000
C           6.732000     26.752000     -7.590000
C           6.178000     26.497000     -8.806000
C          -0.836000     13.416000     -4.278000
H           0.210000     14.010000     -6.746000
H           1.948000     15.856000     -7.209000
H           2.546000     16.105000     -3.017000
H           2.103000     18.118000     -6.834000
H           5.521000     23.956000     -1.783000
H           5.912000     25.307000     -3.987000
H           7.315000     27.631000     -7.346000
H           6.300000     27.099000     -9.697000
H          -0.906000     12.711000     -5.116000
C          -2.118000     14.191000     -3.965000
H          -0.537000     12.798000     -3.422000
H          -2.350000     14.939000     -4.733000
H          -1.960000     14.787000     -3.058000
C          -3.340000     13.237000     -3.794000
H          -3.333000     12.635000     -4.711000
C          -4.672000     14.043000     -3.836000
H          -3.227000     12.560000     -2.939000
H          -4.846000     14.495000     -4.820000
H          -4.673000     14.882000     -3.129000
C          -5.973000     13.084000     -3.648000
H          -6.871000     13.540000     -4.083000
C          -6.256000     12.856000     -2.196000
H          -5.753000     12.166000     -4.206000
H          -5.317000     12.555000     -1.715000
H          -6.986000     12.061000     -1.998000
H          -6.494000     13.799000     -1.689000
C          -7.193000     24.541000    -12.832000
C          -6.223000     23.862000    -12.090000
N          -7.082000     25.867000    -13.045000
C          -4.999000     24.515000    -11.703000
C          -5.970000     26.527000    -12.728000
C          -4.821000     25.865000    -12.146000
C          -3.600000     26.729000    -11.754000
C          -2.305000     26.236000    -12.072000
C          -3.574000     27.995000    -11.138000
N          -1.162000     26.866000    -11.671000
N          -4.731000     28.683000    -10.809000
C          -2.429000     28.625000    -10.696000
C          -1.157000     28.051000    -10.917000
S          -4.248000     29.955000     -9.956000
N          -2.636000     29.823000    -10.009000
C           0.067000     28.551000    -10.281000
S           0.100000     29.252000     -8.673000
C           1.340000     28.331000    -10.689000
C           1.869000     29.157000     -8.529000
S           1.878000     27.615000    -12.223000
C           2.288000     28.642000     -9.746000
C           2.731000     29.440000     -7.376000
C           3.517000     28.006000    -11.667000
C           3.616000     28.445000    -10.357000
N           2.072000     29.767000     -6.323000
S           4.494000     29.354000     -7.168000
C           2.832000     30.030000     -5.239000
C           4.239000     29.910000     -5.496000
C          -8.452000     23.877000    -13.345000
H          -6.254000     22.784000    -11.960000
H          -4.221000     23.866000    -11.314000
H          -5.884000     27.603000    -12.869000
H          -2.229000     25.357000    -12.711000
H           4.389000     28.039000    -12.306000
H           4.475000     28.797000     -9.796000
H           2.378000     30.310000     -4.298000
H           5.150000     30.000000     -4.919000
H          -8.570000     22.850000    -12.978000
C          -8.527000     23.900000    -14.900000
H          -9.304000     24.421000    -12.919000
H          -7.571000     23.651000    -15.377000
H          -8.745000     24.910000    -15.269000
C          -9.674000     23.161000    -15.577000
H          -9.718000     22.159000    -15.131000
C          -9.554000     23.118000    -17.081000
H         -10.616000     23.667000    -15.334000
H          -8.885000     22.296000    -17.366000
H          -9.000000     24.005000    -17.411000
C         -10.886000     22.944000    -17.752000
H         -10.873000     22.594000    -18.791000
C         -11.722000     24.252000    -18.003000
H         -11.539000     22.235000    -17.229000
H         -12.041000     24.793000    -17.104000
H         -12.590000     23.964000    -18.609000
H         -11.084000     24.956000    -18.551000
$end

--------------------------------------------------------------

             Standard Nuclear Orientation (Angstroms)
    I     Atom           X                Y                Z
 ----------------------------------------------------------------
    1      C      -7.2305265740     6.2333494103    -0.4953460165
    2      C      -6.6205536170     5.9163781567    -1.7094313578
    3      N      -7.9920094589     5.4046866368     0.1804230446
    4      C      -6.4020048205     4.5661161269    -1.9514455606
    5      C      -7.9479863869     4.0853519369    -0.2118318708
    6      C      -7.0613773748     3.6209208177    -1.1936542555
    7      C      -6.7843175591     2.1268359374    -1.2138093851
    8      C      -5.4857518600     1.7021125348    -1.3670613229
    9      C      -7.6814680420     1.0635717386    -0.9469981140
   10      N      -5.0570077609     0.4395781416    -1.3405018923
   11      N      -9.0278275581     1.3332634350    -0.9001318949
   12      C      -7.2910268453    -0.2609451414    -0.8501389039
   13      C      -5.9214936920    -0.5604117546    -1.0039884715
   14      S      -9.7227008036    -0.1320351836    -0.9218604730
   15      N      -8.3624928729    -1.0766612047    -0.6697452902
   16      C      -5.2916418317    -1.8688144610    -0.9727636090
   17      S      -3.9110831698    -2.4770421366    -1.9230377146
   18      C      -5.5945063059    -2.8329974758    -0.0373844216
   19      C      -3.8670340106    -4.0186175134    -1.0123160066
   20      S      -6.6714174062    -2.6593186406     1.2858661760
   21      C      -4.8442899527    -4.0208683748    -0.0255882036
   22      C      -2.8077640041    -5.0150566773    -1.2216006114
   23      C      -6.0369451613    -4.1691685243     1.9433487225
   24      C      -5.0577525103    -4.7846164025     1.1481816574
   25      N      -2.9063711218    -6.1956463936    -0.6523075776
   26      S      -1.5010275456    -4.6449143218    -2.2781026061
   27      C      -1.9319481770    -6.9885032328    -1.2670465118
   28      C      -1.0478143550    -6.3512225194    -2.0811580995
   29      C      -7.2708406717     7.7030258348     0.0550974236
   30      H      -6.0666888699     6.7094722028    -2.2034077498
   31      H      -5.7162622192     4.2072608827    -2.7121991334
   32      H      -8.3833731424     3.3620726717     0.4760049396
   33      H      -4.7233681313     2.4243746451    -1.6554247989
   34      H      -6.2784934906    -4.4768152939     2.9524740219
   35      H      -4.4231195814    -5.5954915624     1.4889682778
   36      H      -1.9003207468    -8.0423507445    -1.0211377326
   37      H      -0.2451754844    -6.8198163878    -2.6355583429
   38      H      -7.1428448670     8.3176318937    -0.8449278351
   39      C      -6.2828149172     7.9875196682     1.1886698153
   40      H      -8.3006418660     7.8995738030     0.3790409316
   41      H      -5.2680492714     7.6449845358     0.9518737696
   42      H      -6.5640948571     7.3886575950     2.0633553661
   43      C      -6.2401475477     9.5047274163     1.5476978711
   44      H      -6.0499337973     9.9965422398     0.5857836813
   45      C      -4.9966439456     9.8222592531     2.4300222583
   46      H      -7.1979049027     9.8708048763     1.9360419738
   47      H      -4.0577530836     9.6700996104     1.8839751978
   48      H      -4.9300479190     9.1658777175     3.3066631477
   49      C      -4.9221061217    11.3957302349     2.8377711787
   50      H      -3.8942867267    11.6986513647     3.0731242759
   51      C      -5.7490122821    11.6656907506     4.0558534919
   52      H      -5.2461273783    11.9520469705     1.9500719532
   53      H      -6.7379821422    11.2187257422     3.8950931201
   54      H      -5.9095821667    12.7308255047     4.2652198402
   55      H      -5.3703334902    11.1064362764     4.9200171372
   56      C       7.7777315179     4.4064173977     0.1994506918
   57      C       6.3997662478     4.1989076400     0.0962207801
   58      N       8.6035465309     3.3741323730     0.4609524932
   59      C       5.8537483785     2.8663186200     0.0756054896
   60      C       8.1663005448     2.1167712273     0.4387737488
   61      C       6.7910088875     1.7850770187     0.1293859512
   62      C       6.3651781680     0.2998733082     0.1913467181
   63      C       5.5350298073    -0.1994237843    -0.8492079958
   64      C       6.7158718454    -0.6816140309     1.1382282038
   65      N       5.0134251973    -1.4610405989    -0.8291669359
   66      N       7.5735539767    -0.4193465998     2.1945572984
   67      C       6.1689610394    -1.9471021505     1.1903567915
   68      C       5.2480408620    -2.3774748676     0.2090381118
   69      S       7.5289792592    -1.7300923182     3.1212939149
   70      N       6.5707050093    -2.7249728096     2.2782635064
   71      C       4.4671630431    -3.6134078219     0.3330202246
   72      S       3.9038576740    -4.2471595866     1.8689888968
   73      C       3.8596618502    -4.2919465558    -0.6699356505
   74      C       2.7617554563    -5.3877971875     1.1248985879
   75      S       4.0471082089    -4.0395163333    -2.4181915944
   76      C       2.9454245469    -5.2210170658    -0.2390387480
   77      C       1.7563298485    -6.2508565890     1.7548111347
   78      C       3.0154760283    -5.4726333099    -2.5921133443
   79      C       2.4396753297    -5.9412868400    -1.4227376885
   80      N       1.6971667567    -6.1070824723     3.0298984776
   81      S       0.5850745587    -7.3979260698     1.0683552713
   82      C       0.7787171878    -6.8820157868     3.6445152260
   83      C       0.0638010570    -7.7339572329     2.7372177563
   84      C       8.4115408748     5.7785441589     0.1308952375
   85      H       5.7202778508     5.0005425640    -0.1787737052
   86      H       4.8099805669     2.7888859720    -0.2113769845
   87      H       8.8199536539     1.2799238221     0.6785174316
   88      H       5.3628175236     0.4311179872    -1.7206998223
   89      H       2.9170292972    -6.0497674866    -3.5015188552
   90      H       1.8246918193    -6.8164949560    -1.2429822002
   91      H       0.6423598383    -6.8362088728     4.7165718476
   92      H      -0.7408716280    -8.4538068331     2.8098016597
   93      H       7.6709783922     6.5874261734     0.1060135982
   94      C       9.3840778395     5.9079663875    -1.0780715689
   95      H       8.9563091031     5.9330799702     1.0703963075
   96      H       8.9802178750     5.4701406731    -1.9993054007
   97      H      10.3064536672     5.3398152566    -0.9042552150
   98      C      10.0079414785     7.2689501896    -1.3583861248
   99      H       9.1932529369     8.0044500885    -1.3450265234
  100      C      10.8019150527     7.3111032454    -2.6413881059
  101      H      10.6897377783     7.5236177046    -0.5381744068
  102      H      10.1177311766     7.4755530757    -3.4835986953
  103      H      11.1930001124     6.3062811287    -2.8413130661
  104      C      11.8522537249     8.3840554320    -2.6239731966
  105      H      12.2560270772     8.6949370751    -3.5948025760
  106      C      13.2267975581     8.0103609471    -1.9578330593
  107      H      11.5059278569     9.3140708121    -2.1573375937
  108      H      13.1889062201     7.7761454644    -0.8871555382
  109      H      13.9102459548     8.8476234662    -2.1462309446
  110      H      13.5934861124     7.0957217298    -2.4394331075
 ----------------------------------------------------------------

   10   -5663.4851369842      3.69E-06 Convergence criterion met
 Total energy in the final basis set = -5663.4851369842

                    Orbital Energies (a.u.)
 --------------------------------------------------------------

 Alpha MOs
 -- Occupied --
-88.992 -88.991 -88.929 -88.925 -88.924 -88.922 -88.913 -88.908
-14.387 -14.387 -14.386 -14.381 -14.352 -14.350 -14.343 -14.339
-14.330 -14.328 -10.271 -10.268 -10.267 -10.265 -10.260 -10.259
-10.257 -10.254 -10.243 -10.243 -10.241 -10.240 -10.238 -10.238
-10.236 -10.232 -10.232 -10.230 -10.230 -10.229 -10.229 -10.229
-10.228 -10.227 -10.227 -10.226 -10.226 -10.225 -10.224 -10.221
-10.217 -10.215 -10.209 -10.207 -10.206 -10.203 -10.202 -10.200
-10.190 -10.186 -10.184 -10.183 -10.183 -10.179 -10.177 -10.177
-10.175 -10.173 -10.172 -10.168  -8.048  -8.047  -7.989  -7.987
 -7.983  -7.981  -7.973  -7.969  -6.013  -6.011  -6.007  -6.006
 -6.005  -6.005  -5.953  -5.951  -5.950  -5.947  -5.947  -5.946
 -5.945  -5.944  -5.943  -5.941  -5.939  -5.937  -5.937  -5.934
 -5.934  -5.930  -5.928  -5.925  -1.036  -1.035  -0.977  -0.969
 -0.960  -0.946  -0.941  -0.937  -0.913  -0.913  -0.900  -0.897
 -0.844  -0.841  -0.836  -0.823  -0.812  -0.810  -0.806  -0.806
 -0.803  -0.801  -0.801  -0.793  -0.785  -0.782  -0.768  -0.766
 -0.752  -0.748  -0.746  -0.740  -0.723  -0.720  -0.711  -0.710
 -0.695  -0.694  -0.676  -0.670  -0.654  -0.654  -0.648  -0.640
 -0.636  -0.634  -0.631  -0.625  -0.614  -0.609  -0.605  -0.596
 -0.593  -0.589  -0.583  -0.581  -0.579  -0.576  -0.570  -0.569
 -0.551  -0.544  -0.543  -0.536  -0.524  -0.522  -0.518  -0.515
 -0.510  -0.508  -0.503  -0.498  -0.488  -0.482  -0.475  -0.475
 -0.471  -0.471  -0.468  -0.465  -0.463  -0.462  -0.450  -0.448
 -0.447  -0.443  -0.439  -0.435  -0.434  -0.432  -0.432  -0.430
 -0.429  -0.429  -0.425  -0.421  -0.419  -0.417  -0.416  -0.415
 -0.413  -0.411  -0.407  -0.405  -0.404  -0.401  -0.400  -0.398
 -0.396  -0.391  -0.390  -0.388  -0.388  -0.386  -0.383  -0.380
 -0.379  -0.377  -0.374  -0.371  -0.368  -0.366  -0.361  -0.360
 -0.358  -0.351  -0.350  -0.348  -0.344  -0.344  -0.339  -0.339
 -0.337  -0.336  -0.334  -0.333  -0.330  -0.325  -0.324  -0.318
 -0.317  -0.316  -0.314  -0.311  -0.301  -0.301  -0.300  -0.299
 -0.298  -0.296  -0.295  -0.291  -0.288  -0.284  -0.283  -0.280
 -0.278  -0.270  -0.270  -0.264  -0.253  -0.253  -0.251  -0.246
 -0.245  -0.242  -0.235  -0.235  -0.197  -0.193

          Ground-State Mulliken Net Atomic Charges

     Atom                 Charge (a.u.)
  ----------------------------------------
      1 C                     0.251081
      2 C                    -0.119405
      3 N                    -0.463944
      4 C                    -0.085954
      5 C                     0.081436
      6 C                     0.065451
      7 C                     0.061103
      8 C                     0.054425
      9 C                     0.155373
     10 N                    -0.498143
     11 N                    -0.528058
     12 C                     0.278236
     13 C                     0.224234
     14 S                     0.612918
     15 N                    -0.574005
     16 C                    -0.177192
     17 S                     0.307673
     18 C                    -0.138467
     19 C                    -0.257568
     20 S                     0.278373
     21 C                     0.176529
     22 C                     0.087304
     23 C                    -0.306136
     24 C                    -0.059084
     25 N                    -0.443608
     26 S                     0.277235
     27 C                     0.122931
     28 C                    -0.301045
     29 C                    -0.218524
     30 H                     0.094888
     31 H                     0.101926
     32 H                     0.113291
     33 H                     0.100113
     34 H                     0.127405
     35 H                     0.128063
     36 H                     0.107547
     37 H                     0.125835
     38 H                     0.086690
     39 C                    -0.178743
     40 H                     0.119728
     41 H                     0.092172
     42 H                     0.112236
     43 C                    -0.170075
     44 H                     0.094841
     45 C                    -0.190064
     46 H                     0.100815
     47 H                     0.091079
     48 H                     0.091912
     49 C                    -0.179331
     50 H                     0.089653
     51 C                    -0.307710
     52 H                     0.092171
     53 H                     0.098461
     54 H                     0.098038
     55 H                     0.103615
     56 C                     0.285150
     57 C                    -0.130718
     58 N                    -0.481050
     59 C                    -0.073397
     60 C                     0.107817
     61 C                    -0.000863
     62 C                     0.018032
     63 C                     0.068554
     64 C                     0.216084
     65 N                    -0.525869
     66 N                    -0.539245
     67 C                     0.167785
     68 C                     0.275685
     69 S                     0.627632
     70 N                    -0.542877
     71 C                    -0.220440
     72 S                     0.353725
     73 C                    -0.094915
     74 C                    -0.220612
     75 S                     0.284760
     76 C                     0.124555
     77 C                     0.067303
     78 C                    -0.308918
     79 C                    -0.068111
     80 N                    -0.413440
     81 S                     0.272063
     82 C                     0.126090
     83 C                    -0.331087
     84 C                    -0.221565
     85 H                     0.090547
     86 H                     0.107391
     87 H                     0.120968
     88 H                     0.121082
     89 H                     0.122265
     90 H                     0.097135
     91 H                     0.120607
     92 H                     0.142550
     93 H                     0.093931
     94 C                    -0.183645
     95 H                     0.122288
     96 H                     0.091318
     97 H                     0.116530
     98 C                    -0.175218
     99 H                     0.084815
    100 C                    -0.166907
    101 H                     0.096167
    102 H                     0.092482
    103 H                     0.091478
    104 C                    -0.185157
    105 H                     0.091637
    106 C                    -0.321349
    107 H                     0.095144
    108 H                     0.100943
    109 H                     0.100435
    110 H                     0.102712
  ----------------------------------------
  Sum of atomic charges =     0.000000

                    Cartesian Multipole Moments
 -----------------------------------------------------------------
    Charge (ESU x 10^10)
                 0.0000
    Dipole Moment (Debye)
         X      -1.0530      Y      -0.2619      Z      -1.4067
       Tot       1.7765
    Quadrupole Moments (Debye-Ang)
        XX    -471.9647     XY       9.1612     YY    -402.3344
        XZ      -5.3312     YZ     -13.0443     ZZ    -432.6661

 Total job time:  90.17s(wall), 967.28s(cpu)
        *  Thank you very much for using Q-Chem.  Have a nice day.  *
