 Q-Chem 4.4, Q-Chem, Inc., Pleasanton, CA (2016)
 Q-Chem 4.4.2 for Intel X86 Linux

User input:
--------------------------------------------------------------
$comment
SP
$end

$rem
MEM_STATIC 5000
MEM_TOTAL 20000
JOBTYPE SP
EXCHANGE B3LYP
BASIS 6-31g(d,p)
$end

$molecule
0 1
C          -3.582000    -19.577000      2.377000
C          -3.451000    -19.835000      1.002000
N          -3.181000    -18.448000      2.965000
C          -2.814000    -18.889000      0.213000
C          -2.614000    -17.444000      2.229000
C          -2.463000    -17.605000      0.801000
C          -2.002000    -16.512000     -0.040000
C          -0.799000    -16.606000     -0.867000
C          -2.452000    -15.191000      0.088000
N          -0.222000    -15.589000     -1.498000
N          -3.494000    -14.777000      0.897000
C          -1.830000    -14.134000     -0.622000
C          -0.648000    -14.340000     -1.380000
S          -3.637000    -13.175000      0.680000
N          -2.404000    -12.925000     -0.381000
C           0.217000    -13.229000     -1.877000
S           0.003000    -11.532000     -1.528000
C           1.399000    -13.433000     -2.545000
C           1.650000    -11.113000     -2.051000
S           2.244000    -14.995000     -2.967000
C           2.189000    -12.255000     -2.624000
C           2.412000     -9.976000     -1.715000
C           3.664000    -13.967000     -3.299000
C           3.528000    -12.614000     -3.039000
N           3.399000     -9.670000     -2.475000
S           1.951000     -8.850000     -0.500000
C           3.896000     -8.448000     -2.068000
C           3.182000     -7.796000     -1.081000
C          -4.059000    -20.703000      3.370000
H          -3.789000    -20.825000      0.708000
H          -2.647000    -19.141000     -0.830000
H          -2.321000    -16.546000      2.772000
H          -0.256000    -17.548000     -0.931000
H           4.591000    -14.448000     -3.580000
H           4.313000    -11.879000     -3.179000
H           4.728000     -7.988000     -2.586000
H           3.333000     -6.782000     -0.735000
H          -3.255000    -21.113000      3.992000
C          -5.167000    -21.723000      2.866000
H          -4.518000    -20.084000      4.151000
H          -4.727000    -22.526000      2.262000
H          -5.990000    -21.241000      2.325000
C          -5.974000    -22.340000      4.028000
H          -5.247000    -22.850000      4.672000
C          -7.036000    -23.307000      3.509000
H          -6.429000    -21.578000      4.673000
H          -6.759000    -23.889000      2.621000
H          -7.945000    -22.748000      3.255000
C          -7.669000    -24.201000      4.611000
H          -6.954000    -24.964000      4.943000
C          -8.839000    -25.113000      4.069000
H          -8.024000    -23.655000      5.494000
H          -8.539000    -25.497000      3.086000
H          -9.815000    -24.615000      4.005000
H          -8.919000    -26.068000      4.603000
C          -4.535000    -15.231000      7.154000
C          -4.492000    -16.248000      6.174000
N          -3.746000    -15.204000      8.294000
C          -3.706000    -17.371000      6.473000
C          -2.917000    -16.268000      8.503000
C          -2.835000    -17.402000      7.647000
C          -1.846000    -18.527000      7.767000
C          -0.560000    -18.308000      8.181000
C          -2.152000    -19.840000      7.310000
N           0.464000    -19.186000      8.004000
N          -3.379000    -20.281000      6.986000
C          -1.172000    -20.821000      7.366000
C           0.182000    -20.499000      7.688000
S          -3.178000    -21.910000      6.649000
N          -1.590000    -22.066000      7.026000
C           1.290000    -21.461000      7.561000
S           1.236000    -23.054000      6.769000
C           2.567000    -21.274000      8.026000
C           2.909000    -23.362000      7.009000
S           3.323000    -19.993000      8.948000
C           3.486000    -22.312000      7.688000
C           3.503000    -24.606000      6.636000
C           4.861000    -20.960000      8.959000
C           4.764000    -22.160000      8.292000
N           4.796000    -24.798000      6.882000
S           2.713000    -25.908000      5.841000
C           5.214000    -25.968000      6.339000
C           4.215000    -26.790000      5.903000
C          -5.482000    -14.052000      6.941000
H          -5.050000    -16.226000      5.243000
H          -3.685000    -18.207000      5.780000
H          -2.399000    -16.220000      9.460000
H          -0.230000    -17.390000      8.664000
H           5.759000    -20.505000      9.355000
H           5.615000    -22.831000      8.275000
H           6.276000    -26.156000      6.432000
H           4.219000    -27.723000      5.356000
H          -6.498000    -14.419000      7.132000
C          -5.456000    -13.448000      5.499000
H          -5.194000    -13.302000      7.689000
H          -6.054000    -14.028000      4.787000
H          -4.467000    -13.452000      5.022000
C          -5.957000    -12.040000      5.490000
H          -6.972000    -12.046000      5.905000
C          -5.937000    -11.387000      4.083000
H          -5.302000    -11.486000      6.174000
H          -6.439000    -11.977000      3.306000
H          -4.879000    -11.258000      3.825000
C          -6.747000    -10.097000      4.274000
H          -7.773000    -10.265000      4.624000
C          -6.863000     -9.356000      2.895000
H          -6.221000     -9.382000      4.919000
H          -6.268000     -8.434000      2.864000
H          -7.911000     -9.153000      2.642000
H          -6.370000     -9.905000      2.084000
$end

--------------------------------------------------------------

             Standard Nuclear Orientation (Angstroms)
    I     Atom           X                Y                Z
 ----------------------------------------------------------------
    1      C      -1.2049798656     1.9853412739    -2.6733377832
    2      C      -0.6638366932     1.5271633241    -3.8864276535
    3      N      -0.5924319541     1.8699834155    -1.4932260848
    4      C       0.5521847573     0.8612284063    -3.8543571518
    5      C       0.6436466590     1.2907393092    -1.4049825163
    6      C       1.2946722273     0.8141822736    -2.6037173082
    7      C       2.6642327179     0.3261806337    -2.5790300198
    8      C       3.0264137813    -1.0294144937    -2.9927457769
    9      C       3.7013907688     0.9592360912    -1.8808402425
   10      N       4.2153231237    -1.5938893970    -2.8104228241
   11      N       3.6140286044     2.1962688345    -1.2694820462
   12      C       4.9666478365     0.3392222998    -1.7293791878
   13      C       5.1976252956    -0.9954840456    -2.1528557337
   14      S       5.0718863413     2.4935379435    -0.6212352601
   15      N       5.8496575041     1.1023823803    -1.0314403520
   16      C       6.3874062628    -1.7975039433    -1.7396483599
   17      S       7.6133824092    -1.2965483804    -0.6023568350
   18      C       6.5704350809    -3.1124319116    -2.0895467594
   19      C       8.2302599069    -2.9499070108    -0.3842596271
   20      S       5.4892817930    -4.2224781112    -3.0543565867
   21      C       7.5866200634    -3.7425959604    -1.3225484851
   22      C       8.9838093137    -3.4682321314     0.6880329453
   23      C       6.5117868355    -5.5364479502    -2.4129716007
   24      C       7.4988668358    -5.1745021258    -1.5122089830
   25      N       9.6454892890    -4.5488485923     0.4884015986
   26      S       9.2591728870    -2.6138284423     2.1545905605
   27      C      10.4341808342    -4.7844078204     1.5967424742
   28      C      10.4430495200    -3.7955709530     2.5617253736
   29      C      -2.6856630894     2.5175526210    -2.5972965258
   30      H      -1.3233146633     1.6631963072    -4.7392839335
   31      H       0.9148426447     0.4409967048    -4.7876987686
   32      H       1.0896769056     1.2404334351    -0.4121943525
   33      H       2.2689527976    -1.6898581611    -3.4127172289
   34      H       6.2536355808    -6.5562853061    -2.6638514469
   35      H       8.1791901350    -5.8700120235    -1.0331722508
   36      H      11.0928893326    -5.6427431421     1.6356216418
   37      H      11.0962636775    -3.7362813715     3.4222537055
   38      H      -3.3808426863     1.8217323644    -2.1136029260
   39      C      -3.2445826792     3.3493007957    -3.8293208218
   40      H      -2.5940046446     3.2107038777    -1.7517534666
   41      H      -3.5870737566     2.6892719355    -4.6357244215
   42      H      -2.5337532616     4.0903328049    -4.2139337446
   43      C      -4.3896182267     4.3029449309    -3.4272779652
   44      H      -5.1793662195     3.6735524419    -2.9988760481
   45      C      -4.8966413547     5.0937396199    -4.6313814938
   46      H      -4.1037419257     4.9811110963    -2.6136076434
   47      H      -4.8961257963     4.5582562442    -5.5891154279
   48      H      -4.2787052768     5.9901434323    -4.7651469925
   49      C      -6.2418919967     5.8303796070    -4.3824010940
   50      H      -7.0705362370     5.1123993932    -4.3440457087
   51      C      -6.6889775347     6.7277670446    -5.6027364203
   52      H      -6.2686886935     6.4356300714    -3.4676422119
   53      H      -6.4712080365     6.1748764165    -6.5250343109
   54      H      -6.2258216226     7.7223753316    -5.6330177104
   55      H      -7.7790226246     6.7982310966    -5.7048026694
   56      C      -0.2009260230     4.5024280040     3.2656692276
   57      C      -0.5095901809     4.1175044098     1.9416230561
   58      N      -0.8169387514     3.9896606091     4.3972380134
   59      C      -1.6212615582     3.2773778458     1.7782213874
   60      C      -1.8303226343     3.0959872964     4.2037978003
   61      C      -2.3054475138     2.6851778974     2.9267277214
   62      C      -3.3226911646     1.6095274430     2.6691671366
   63      C      -3.3846243094     0.4830304737     3.4439715402
   64      C      -4.1621644929     1.6377134562     1.5198438228
   65      N      -4.0325279355    -0.6591543170     3.0884103006
   66      N      -4.3357946719     2.6980970435     0.7133543878
   67      C      -5.0238840769     0.5754034507     1.2856776196
   68      C      -4.9500404711    -0.6236095803     2.0587228147
   69      S      -5.5114945425     2.2210665467    -0.3810782138
   70      N      -5.8697062178     0.7460906799     0.2388730649
   71      C      -5.6966530623    -1.8470344881     1.7195500953
   72      S      -6.5882303247    -2.1713664367     0.2136524321
   73      C      -5.8132825595    -2.9578742035     2.5160145873
   74      C      -6.9987967178    -3.7778531912     0.6631282874
   75      S      -5.2625927444    -3.3247751270     4.1361088562
   76      C      -6.5045623375    -4.0539428617     1.9185074617
   77      C      -7.8384868691    -4.5934979414    -0.1548846044
   78      C      -6.0949350349    -4.9350171611     4.0137123567
   79      C      -6.7270326960    -5.1401004693     2.8084358807
   80      N      -8.1507507342    -5.8160476415     0.2659390040
   81      S      -8.4762770286    -4.1688487011    -1.6924884986
   82      C      -8.8327456486    -6.4887387137    -0.6936664661
   83      C      -9.2653691390    -5.7222640151    -1.7372825123
   84      C       0.9121007198     5.5242058788     3.4878413331
   85      H       0.0291335099     4.4583675598     1.0628750273
   86      H      -1.9368767881     2.9992643753     0.7769092861
   87      H      -2.3244757996     2.8084706196     5.1309567995
   88      H      -2.8893032990     0.3864771364     4.4084649563
   89      H      -5.9451273778    -5.6596137079     4.8028653902
   90      H      -7.2882586897    -6.0535579043     2.6492130856
   91      H      -9.0543802185    -7.5204237945    -0.4521276254
   92      H      -9.7421759533    -5.9647295109    -2.6772717383
   93      H       0.5135935778     6.5016253520     3.1890617635
   94      C       2.2106074173     5.2639238986     2.6565834625
   95      H       1.1217150599     5.5041762666     4.5651568129
   96      H       2.1269119328     5.6136016969     1.6213692319
   97      H       2.4576389266     4.2029011439     2.5192075277
   98      C       3.3965197253     5.9278008322     3.2782147156
   99      H       3.1756580619     6.9992499394     3.3537325036
  100      C       4.7166836103     5.6872161600     2.4999189286
  101      H       3.4732358782     5.5135487715     4.2912827598
  102      H       4.6592573212     5.9286113658     1.4311516125
  103      H       4.9530509014     4.6240233017     2.6276704444
  104      C       5.6978364346     6.6783196204     3.1415840017
  105      H       5.3778075668     7.7254875001     3.0750937351
  106      C       7.0777072663     6.5867276382     2.3987883391
  107      H       5.9320047645     6.4011389985     4.1770848932
  108      H       7.8563569632     6.1227625395     3.0180710182
  109      H       7.3998846913     7.5720890436     2.0399198287
  110      H       7.0605492589     5.8631672036     1.5751762337
 ----------------------------------------------------------------

   10   -5663.5342492921      4.35E-06 Convergence criterion met
 Total energy in the final basis set = -5663.5342492921

                    Orbital Energies (a.u.)
 --------------------------------------------------------------

 Alpha MOs
 -- Occupied --
-88.992 -88.985 -88.926 -88.925 -88.923 -88.921 -88.911 -88.906
-14.388 -14.386 -14.382 -14.381 -14.350 -14.347 -14.341 -14.338
-14.335 -14.326 -10.267 -10.266 -10.263 -10.262 -10.259 -10.256
-10.252 -10.252 -10.248 -10.242 -10.241 -10.239 -10.237 -10.236
-10.236 -10.232 -10.231 -10.230 -10.229 -10.229 -10.229 -10.229
-10.228 -10.226 -10.226 -10.222 -10.222 -10.221 -10.221 -10.220
-10.213 -10.210 -10.208 -10.203 -10.201 -10.195 -10.194 -10.194
-10.194 -10.191 -10.186 -10.185 -10.185 -10.182 -10.181 -10.180
-10.176 -10.176 -10.172 -10.169  -8.047  -8.040  -7.988  -7.988
 -7.983  -7.981  -7.969  -7.965  -6.012  -6.006  -6.005  -6.005
 -6.000  -5.998  -5.952  -5.952  -5.948  -5.948  -5.947  -5.945
 -5.945  -5.945  -5.943  -5.941  -5.939  -5.937  -5.934  -5.930
 -5.929  -5.926  -5.925  -5.921  -1.031  -1.030  -0.985  -0.975
 -0.966  -0.945  -0.938  -0.916  -0.911  -0.907  -0.900  -0.896
 -0.840  -0.836  -0.835  -0.821  -0.816  -0.809  -0.809  -0.809
 -0.806  -0.805  -0.798  -0.787  -0.784  -0.780  -0.767  -0.764
 -0.751  -0.747  -0.737  -0.737  -0.721  -0.720  -0.710  -0.707
 -0.693  -0.690  -0.678  -0.672  -0.656  -0.651  -0.645  -0.638
 -0.636  -0.634  -0.631  -0.616  -0.615  -0.602  -0.596  -0.593
 -0.593  -0.589  -0.585  -0.579  -0.578  -0.578  -0.574  -0.571
 -0.551  -0.549  -0.540  -0.534  -0.522  -0.522  -0.512  -0.511
 -0.508  -0.499  -0.497  -0.495  -0.488  -0.483  -0.482  -0.479
 -0.477  -0.472  -0.469  -0.466  -0.463  -0.460  -0.451  -0.450
 -0.446  -0.443  -0.442  -0.437  -0.436  -0.435  -0.431  -0.430
 -0.429  -0.427  -0.426  -0.424  -0.421  -0.417  -0.415  -0.414
 -0.409  -0.406  -0.403  -0.402  -0.401  -0.399  -0.397  -0.396
 -0.395  -0.392  -0.389  -0.387  -0.387  -0.385  -0.384  -0.379
 -0.376  -0.374  -0.373  -0.365  -0.364  -0.360  -0.356  -0.355
 -0.352  -0.348  -0.348  -0.346  -0.344  -0.343  -0.340  -0.339
 -0.339  -0.338  -0.336  -0.334  -0.332  -0.330  -0.329  -0.324
 -0.318  -0.316  -0.309  -0.308  -0.305  -0.304  -0.303  -0.301
 -0.293  -0.293  -0.291  -0.291  -0.289  -0.287  -0.280  -0.276
 -0.274  -0.270  -0.266  -0.262  -0.253  -0.252  -0.250  -0.249
 -0.245  -0.241  -0.231  -0.226  -0.195  -0.193

          Ground-State Mulliken Net Atomic Charges

     Atom                 Charge (a.u.)
  ----------------------------------------
      1 C                     0.274607
      2 C                    -0.094893
      3 N                    -0.496373
      4 C                    -0.079282
      5 C                     0.106323
      6 C                    -0.000522
      7 C                     0.001401
      8 C                     0.067670
      9 C                     0.219532
     10 N                    -0.517317
     11 N                    -0.551573
     12 C                     0.188998
     13 C                     0.343469
     14 S                     0.612304
     15 N                    -0.571330
     16 C                    -0.215699
     17 S                     0.318160
     18 C                    -0.116824
     19 C                    -0.223566
     20 S                     0.284204
     21 C                     0.137572
     22 C                     0.066651
     23 C                    -0.303515
     24 C                    -0.057428
     25 N                    -0.418996
     26 S                     0.272321
     27 C                     0.108519
     28 C                    -0.305569
     29 C                    -0.256745
     30 H                     0.095817
     31 H                     0.106049
     32 H                     0.124144
     33 H                     0.116537
     34 H                     0.124450
     35 H                     0.125097
     36 H                     0.110487
     37 H                     0.138323
     38 H                     0.124921
     39 C                    -0.191376
     40 H                     0.133313
     41 H                     0.098495
     42 H                     0.107244
     43 C                    -0.189020
     44 H                     0.093701
     45 C                    -0.175363
     46 H                     0.103613
     47 H                     0.093521
     48 H                     0.099827
     49 C                    -0.182973
     50 H                     0.093107
     51 C                    -0.332657
     52 H                     0.097945
     53 H                     0.099733
     54 H                     0.105803
     55 H                     0.102579
     56 C                     0.252221
     57 C                    -0.106403
     58 N                    -0.489911
     59 C                    -0.075693
     60 C                     0.057022
     61 C                     0.036238
     62 C                     0.050957
     63 C                     0.053303
     64 C                     0.249046
     65 N                    -0.518656
     66 N                    -0.571414
     67 C                     0.186850
     68 C                     0.296549
     69 S                     0.598925
     70 N                    -0.564112
     71 C                    -0.221136
     72 S                     0.318408
     73 C                    -0.102680
     74 C                    -0.227048
     75 S                     0.268784
     76 C                     0.133224
     77 C                     0.067137
     78 C                    -0.313323
     79 C                    -0.033316
     80 N                    -0.434291
     81 S                     0.270168
     82 C                     0.128104
     83 C                    -0.312164
     84 C                    -0.234577
     85 H                     0.104264
     86 H                     0.136469
     87 H                     0.100769
     88 H                     0.117822
     89 H                     0.127353
     90 H                     0.132077
     91 H                     0.112386
     92 H                     0.135001
     93 H                     0.116491
     94 C                    -0.182613
     95 H                     0.118119
     96 H                     0.090069
     97 H                     0.093200
     98 C                    -0.175235
     99 H                     0.090702
    100 C                    -0.181941
    101 H                     0.098126
    102 H                     0.095249
    103 H                     0.098455
    104 C                    -0.171588
    105 H                     0.101655
    106 C                    -0.337494
    107 H                     0.102960
    108 H                     0.100719
    109 H                     0.102092
    110 H                     0.097261
  ----------------------------------------
  Sum of atomic charges =     0.000000

                    Cartesian Multipole Moments
 -----------------------------------------------------------------
    Charge (ESU x 10^10)
                 0.0000
    Dipole Moment (Debye)
         X      -0.1051      Y      -1.0053      Z      -3.0741
       Tot       3.2360
    Quadrupole Moments (Debye-Ang)
        XX    -417.6527     XY       9.5844     YY    -420.0621
        XZ      45.6349     YZ     -12.7322     ZZ    -436.0633

 Total job time:  94.07s(wall), 1010.68s(cpu)
        *  Thank you very much for using Q-Chem.  Have a nice day.  *
