 Q-Chem 4.4, Q-Chem, Inc., Pleasanton, CA (2016)
 Q-Chem 4.4.2 for Intel X86 Linux

User input:
--------------------------------------------------------------
$comment
SP
$end

$rem
MEM_STATIC 5000
MEM_TOTAL 20000
JOBTYPE SP
EXCHANGE B3LYP
BASIS 6-31g(d,p)
$end

$molecule
0 1
C          -6.324000    -24.243000      8.782000
C          -5.458000    -24.846000      7.874000
N          -5.910000    -23.482000      9.813000
C          -4.081000    -24.753000      8.080000
C          -4.556000    -23.455000     10.058000
C          -3.563000    -24.073000      9.236000
C          -2.148000    -24.080000      9.546000
C          -1.360000    -25.215000      9.124000
C          -1.501000    -23.102000     10.366000
N          -0.038000    -25.284000      9.426000
N          -2.036000    -21.961000     10.806000
C          -0.128000    -23.259000     10.632000
C           0.603000    -24.378000     10.171000
S          -0.761000    -21.148000     11.377000
N           0.365000    -22.287000     11.430000
C           2.078000    -24.484000     10.335000
S           3.135000    -23.284000     11.195000
C           2.894000    -25.507000      9.942000
C           4.555000    -24.383000     11.057000
S           2.336000    -27.132000      9.428000
C           4.175000    -25.473000     10.357000
C           5.824000    -24.113000     11.687000
C           4.055000    -27.576000      9.316000
C           4.807000    -26.647000      9.957000
N           6.065000    -22.815000     11.761000
S           7.102000    -25.201000     12.217000
C           7.380000    -22.584000     12.148000
C           8.096000    -23.764000     12.352000
C          -7.825000    -24.393000      8.788000
H          -5.871000    -25.188000      6.929000
H          -3.423000    -25.176000      7.327000
H          -4.257000    -22.985000     10.993000
H          -1.834000    -26.034000      8.585000
H           4.374000    -28.524000      8.902000
H           5.875000    -26.800000     10.061000
H           7.736000    -21.563000     12.167000
H           9.148000    -23.879000     12.576000
H          -8.115000    -24.397000      9.846000
C          -8.416000    -25.599000      8.037000
H          -8.323000    -23.463000      8.487000
H          -8.175000    -25.676000      6.969000
H          -9.512000    -25.572000      8.026000
C          -8.093000    -26.957000      8.661000
H          -7.013000    -27.138000      8.599000
C          -8.913000    -28.104000      8.089000
H          -8.250000    -26.865000      9.743000
H          -9.985000    -27.929000      8.239000
H          -8.815000    -29.030000      8.669000
C          -8.761000    -28.453000      6.622000
H          -9.380000    -29.337000      6.423000
C          -7.261000    -28.681000      6.185000
H          -9.214000    -27.681000      5.988000
H          -7.264000    -29.020000      5.141000
H          -6.761000    -29.477000      6.751000
H          -6.798000    -27.693000      6.293000
C          -4.535000    -15.231000      7.154000
C          -4.492000    -16.248000      6.174000
N          -3.746000    -15.204000      8.294000
C          -3.706000    -17.371000      6.473000
C          -2.917000    -16.268000      8.503000
C          -2.835000    -17.402000      7.647000
C          -1.846000    -18.527000      7.767000
C          -0.560000    -18.308000      8.181000
C          -2.152000    -19.840000      7.310000
N           0.464000    -19.186000      8.004000
N          -3.379000    -20.281000      6.986000
C          -1.172000    -20.821000      7.366000
C           0.182000    -20.499000      7.688000
S          -3.178000    -21.910000      6.649000
N          -1.590000    -22.066000      7.026000
C           1.290000    -21.461000      7.561000
S           1.236000    -23.054000      6.769000
C           2.567000    -21.274000      8.026000
C           2.909000    -23.362000      7.009000
S           3.323000    -19.993000      8.948000
C           3.486000    -22.312000      7.688000
C           3.503000    -24.606000      6.636000
C           4.861000    -20.960000      8.959000
C           4.764000    -22.160000      8.292000
N           4.796000    -24.798000      6.882000
S           2.713000    -25.908000      5.841000
C           5.214000    -25.968000      6.339000
C           4.215000    -26.790000      5.903000
C          -5.482000    -14.052000      6.941000
H          -5.050000    -16.226000      5.243000
H          -3.685000    -18.207000      5.780000
H          -2.399000    -16.220000      9.460000
H          -0.230000    -17.390000      8.664000
H           5.759000    -20.505000      9.355000
H           5.615000    -22.831000      8.275000
H           6.276000    -26.156000      6.432000
H           4.219000    -27.723000      5.356000
H          -6.498000    -14.419000      7.132000
C          -5.456000    -13.448000      5.499000
H          -5.194000    -13.302000      7.689000
H          -6.054000    -14.028000      4.787000
H          -4.467000    -13.452000      5.022000
C          -5.957000    -12.040000      5.490000
H          -6.972000    -12.046000      5.905000
C          -5.937000    -11.387000      4.083000
H          -5.302000    -11.486000      6.174000
H          -6.439000    -11.977000      3.306000
H          -4.879000    -11.258000      3.825000
C          -6.747000    -10.097000      4.274000
H          -7.773000    -10.265000      4.624000
C          -6.863000     -9.356000      2.895000
H          -6.221000     -9.382000      4.919000
H          -6.268000     -8.434000      2.864000
H          -7.911000     -9.153000      2.642000
H          -6.370000     -9.905000      2.084000
$end

--------------------------------------------------------------

             Standard Nuclear Orientation (Angstroms)
    I     Atom           X                Y                Z
 ----------------------------------------------------------------
    1      C      -2.5548331079     5.4687062955    -1.1704818627
    2      C      -1.7819780554     5.3418662888    -0.0195536805
    3      N      -2.4898551324     4.6137753120    -2.2089176460
    4      C      -0.8111192393     4.3415069523     0.0431229268
    5      C      -1.4820093905     3.6771146321    -2.1775531526
    6      C      -0.5867380071     3.4745046645    -1.0816081946
    7      C       0.5036021061     2.5209056371    -1.0950741716
    8      C       1.6955866938     2.8327393097    -0.3406303345
    9      C       0.5371844511     1.3514959742    -1.9189954460
   10      N       2.7583357390     1.9877462839    -0.3547814261
   11      N      -0.4743421709     0.8643157058    -2.6409201506
   12      C       1.6843262028     0.5375356615    -1.8735156579
   13      C       2.8152026105     0.8765416612    -1.0955461967
   14      S       0.0483075684    -0.6035866286    -3.0707282319
   15      N       1.6067228183    -0.5232586697    -2.7061801171
   16      C       3.9748630246    -0.0424854257    -0.9395528075
   17      S       4.1648864103    -1.6528729483    -1.7564935275
   18      C       5.1210453877     0.1674035985    -0.2260777987
   19      C       5.8561940624    -1.7978093926    -1.1550645184
   20      S       5.6535146869     1.7501466416     0.4278227328
   21      C       6.1167554499    -0.7274834207    -0.3746735413
   22      C       6.7450584964    -2.8616990150    -1.5528331565
   23      C       7.1356102796     0.9197239541     0.9554891181
   24      C       7.2291780872    -0.2819261092     0.3336304599
   25      N       6.0866558281    -3.9832805808    -1.7914158839
   26      S       8.5023514401    -2.9280212507    -1.6266631700
   27      C       6.9703876200    -5.0461216359    -1.9388676099
   28      C       8.3037547083    -4.6609949306    -1.7957535690
   29      C      -3.5212539141     6.5919099762    -1.4532915460
   30      H      -2.0978530421     5.8857099969     0.8664570496
   31      H      -0.2633275811     4.2200312315     0.9726765555
   32      H      -1.3334157194     3.1158397047    -3.0981053656
   33      H       1.7541047742     3.7642803931     0.2204087409
   34      H       7.8742816092     1.4098202795     1.5768032566
   35      H       8.1148731098    -0.8908879739     0.4734831478
   36      H       6.5604833909    -6.0400943400    -2.0552067108
   37      H       9.1844985615    -5.2888370103    -1.7812764107
   38      H      -3.4489688981     6.7761462003    -2.5323243954
   39      C      -3.3479811028     7.8908832475    -0.6468406960
   40      H      -4.5615666243     6.2455503235    -1.4173825516
   41      H      -3.4047020196     7.7996207969     0.4454449364
   42      H      -4.1469337106     8.6104678023    -0.8611740788
   43      C      -2.0679117992     8.6668057662    -0.9586672869
   44      H      -1.1986306455     8.0726658721    -0.6514978512
   45      C      -2.0492346415    10.0742894089    -0.3808836256
   46      H      -1.9576923287     8.6901409585    -2.0500627867
   47      H      -2.8859833969    10.6662672376    -0.7703996977
   48      H      -1.2229484075    10.6837530484    -0.7672579671
   49      C      -2.0952393857    10.2492300756     1.1238666283
   50      H      -2.0086189040    11.3219504418     1.3383098798
   51      C      -0.9946170453     9.4115327658     1.8853432735
   52      H      -3.0870204066     9.9936431937     1.5165430248
   53      H      -1.0470455186     9.6779186117     2.9489013755
   54      H       0.0285247594     9.6540491065     1.5717532993
   55      H      -1.2837568408     8.3685264734     1.7100918751
   56      C      -7.6019098843    -2.3674500944    -0.7360649585
   57      C      -7.1616024691    -1.6325608202     0.3875920777
   58      N      -6.7621790049    -2.9351005746    -1.6823603577
   59      C      -5.7910440393    -1.3380140388     0.4436080042
   60      C      -5.4231118185    -2.7118863226    -1.5406124545
   61      C      -4.8462848000    -1.9186356320    -0.5093802146
   62      C      -3.3768733195    -1.7571288829    -0.2393960096
   63      C      -2.4988567360    -2.7919160291    -0.4167528286
   64      C      -2.8546100119    -0.5754324902     0.3583402810
   65      N      -1.2434942120    -2.8322921797     0.1059552158
   66      N      -3.5220933873     0.5821812773     0.4975606422
   67      C      -1.5024361193    -0.5132665726     0.6643764926
   68      C      -0.6674503041    -1.6686986921     0.5724020101
   69      S      -2.4018177229     1.6534534732     1.1339326386
   70      N      -1.0737082438     0.6922102785     1.1153387639
   71      C       0.7155327300    -1.7044226752     1.0776927427
   72      S       1.5126117534    -0.4815257864     2.0960331720
   73      C       1.6213711103    -2.7102123092     0.8546074653
   74      C       2.9648027840    -1.3860670825     2.2520436021
   75      S       1.5607918398    -4.1781684961    -0.0961899818
   76      C       2.8648474774    -2.5594823435     1.5381979873
   77      C       4.1030481738    -0.8635771015     2.9382670733
   78      C       3.2884036088    -4.5021524912     0.3632073912
   79      C       3.8304986390    -3.5419999064     1.1869415668
   80      N       5.2110485480    -1.5974660236     2.9927759799
   81      S       4.1862996986     0.6410921539     3.7631116740
   82      C       6.1316069088    -1.0085566829     3.7954160567
   83      C       5.8460423034     0.2779671460     4.1519133130
   84      C      -9.1010346008    -2.5958837921    -0.9167916306
   85      H      -7.8148602581    -1.2597428524     1.1704522338
   86      H      -5.4099583004    -0.7257647630     1.2557105125
   87      H      -4.8372678938    -3.1097369406    -2.3682469038
   88      H      -2.7389827939    -3.6986226925    -0.9691435443
   89      H       3.7318186292    -5.4491318565     0.0859742738
   90      H       4.8693018774    -3.6206181908     1.4860034286
   91      H       7.0330635267    -1.5874897187     3.9504950884
   92      H       6.3165261529     0.9712959498     4.8357657220
   93      H      -9.5328769131    -1.6422124375    -1.2445860247
   94      C      -9.8532491133    -3.0396515063     0.3801661725
   95      H      -9.1920838909    -3.3538578728    -1.7055459141
   96      H     -10.0841716669    -2.1985091641     1.0435682635
   97      H      -9.2724726278    -3.6974099941     1.0402558980
   98      C     -11.1322148319    -3.7407395516     0.0541780695
   99      H     -11.7410708735    -3.0572199081    -0.5496275429
  100      C     -11.9116167372    -4.2170992168     1.3080010791
  101      H     -10.8510999069    -4.6007648780    -0.5664086181
  102      H     -12.0847504225    -3.4324563741     2.0551244534
  103      H     -11.3117550748    -5.0225373108     1.7484604562
  104      C     -13.2807742346    -4.6253574091     0.7463837756
  105      H     -13.8084345138    -3.8139701580     0.2300259941
  106      C     -14.2070239954    -5.0753001762     1.9312005913
  107      H     -13.2067306401    -5.5166574966     0.1107520424
  108      H     -14.3954630304    -6.1567566660     1.9276522481
  109      H     -15.1500314587    -4.5147122375     1.9309052301
  110      H     -13.7091336199    -4.9916847298     2.9044860741
 ----------------------------------------------------------------

   10   -5663.5168527147      6.49E-06 Convergence criterion met
 Total energy in the final basis set = -5663.5168527147

                    Orbital Energies (a.u.)
 --------------------------------------------------------------

 Alpha MOs
 -- Occupied --
-88.984 -88.983 -88.934 -88.921 -88.917 -88.914 -88.901 -88.898
-14.386 -14.383 -14.379 -14.379 -14.346 -14.345 -14.342 -14.334
-14.332 -14.329 -10.268 -10.263 -10.261 -10.259 -10.253 -10.250
-10.250 -10.249 -10.244 -10.238 -10.235 -10.234 -10.234 -10.234
-10.233 -10.232 -10.231 -10.229 -10.229 -10.226 -10.226 -10.225
-10.225 -10.224 -10.220 -10.218 -10.218 -10.218 -10.217 -10.217
-10.216 -10.208 -10.204 -10.201 -10.196 -10.194 -10.190 -10.187
-10.187 -10.183 -10.183 -10.181 -10.179 -10.178 -10.178 -10.177
-10.176 -10.176 -10.172 -10.167  -8.040  -8.038  -7.994  -7.983
 -7.977  -7.971  -7.960  -7.957  -6.005  -6.003  -5.999  -5.998
 -5.997  -5.995  -5.958  -5.955  -5.951  -5.946  -5.943  -5.941
 -5.940  -5.937  -5.936  -5.933  -5.932  -5.928  -5.925  -5.922
 -5.921  -5.918  -5.917  -5.913  -1.048  -1.028  -0.971  -0.966
 -0.951  -0.944  -0.935  -0.918  -0.914  -0.910  -0.908  -0.898
 -0.836  -0.835  -0.833  -0.821  -0.811  -0.808  -0.807  -0.804
 -0.804  -0.803  -0.793  -0.788  -0.784  -0.781  -0.766  -0.764
 -0.747  -0.745  -0.737  -0.735  -0.718  -0.716  -0.709  -0.705
 -0.689  -0.689  -0.672  -0.669  -0.659  -0.651  -0.649  -0.638
 -0.636  -0.632  -0.625  -0.619  -0.616  -0.603  -0.601  -0.598
 -0.591  -0.589  -0.586  -0.577  -0.575  -0.574  -0.571  -0.553
 -0.546  -0.545  -0.539  -0.532  -0.524  -0.520  -0.519  -0.509
 -0.505  -0.498  -0.496  -0.495  -0.485  -0.483  -0.479  -0.477
 -0.470  -0.469  -0.467  -0.465  -0.464  -0.460  -0.452  -0.450
 -0.446  -0.443  -0.442  -0.436  -0.435  -0.433  -0.430  -0.429
 -0.426  -0.425  -0.424  -0.422  -0.418  -0.416  -0.413  -0.409
 -0.408  -0.407  -0.404  -0.399  -0.398  -0.395  -0.395  -0.394
 -0.389  -0.389  -0.388  -0.386  -0.384  -0.383  -0.383  -0.381
 -0.376  -0.375  -0.375  -0.370  -0.365  -0.357  -0.355  -0.355
 -0.350  -0.347  -0.346  -0.344  -0.343  -0.341  -0.340  -0.338
 -0.335  -0.333  -0.331  -0.330  -0.328  -0.323  -0.322  -0.322
 -0.318  -0.314  -0.310  -0.307  -0.306  -0.300  -0.299  -0.295
 -0.292  -0.291  -0.289  -0.286  -0.284  -0.281  -0.277  -0.276
 -0.269  -0.267  -0.266  -0.264  -0.254  -0.252  -0.251  -0.246
 -0.238  -0.236  -0.225  -0.224  -0.194  -0.186

          Ground-State Mulliken Net Atomic Charges

     Atom                 Charge (a.u.)
  ----------------------------------------
      1 C                     0.274771
      2 C                    -0.106265
      3 N                    -0.486489
      4 C                    -0.117624
      5 C                     0.078254
      6 C                     0.032535
      7 C                     0.044244
      8 C                     0.077174
      9 C                     0.237606
     10 N                    -0.536467
     11 N                    -0.556211
     12 C                     0.173402
     13 C                     0.326734
     14 S                     0.611382
     15 N                    -0.533633
     16 C                    -0.219599
     17 S                     0.359695
     18 C                    -0.153701
     19 C                    -0.251876
     20 S                     0.257729
     21 C                     0.242848
     22 C                     0.042683
     23 C                    -0.290687
     24 C                    -0.090928
     25 N                    -0.417376
     26 S                     0.280478
     27 C                     0.122176
     28 C                    -0.315625
     29 C                    -0.234390
     30 H                     0.098951
     31 H                     0.104778
     32 H                     0.123570
     33 H                     0.118850
     34 H                     0.121702
     35 H                     0.093675
     36 H                     0.118642
     37 H                     0.133895
     38 H                     0.130139
     39 C                    -0.190638
     40 H                     0.119865
     41 H                     0.091031
     42 H                     0.093659
     43 C                    -0.175199
     44 H                     0.097066
     45 C                    -0.174222
     46 H                     0.091687
     47 H                     0.086249
     48 H                     0.089256
     49 C                    -0.183876
     50 H                     0.090245
     51 C                    -0.316476
     52 H                     0.092217
     53 H                     0.099952
     54 H                     0.106786
     55 H                     0.104609
     56 C                     0.253585
     57 C                    -0.096884
     58 N                    -0.487160
     59 C                    -0.066904
     60 C                     0.058603
     61 C                     0.040911
     62 C                     0.047058
     63 C                     0.048579
     64 C                     0.245432
     65 N                    -0.520601
     66 N                    -0.562672
     67 C                     0.192154
     68 C                     0.285841
     69 S                     0.600912
     70 N                    -0.575210
     71 C                    -0.230864
     72 S                     0.318393
     73 C                    -0.098960
     74 C                    -0.223145
     75 S                     0.262742
     76 C                     0.134137
     77 C                     0.072866
     78 C                    -0.287366
     79 C                    -0.035270
     80 N                    -0.436430
     81 S                     0.282890
     82 C                     0.132256
     83 C                    -0.313395
     84 C                    -0.235458
     85 H                     0.097303
     86 H                     0.108838
     87 H                     0.102445
     88 H                     0.116905
     89 H                     0.123684
     90 H                     0.130595
     91 H                     0.106886
     92 H                     0.130143
     93 H                     0.117795
     94 C                    -0.182346
     95 H                     0.119471
     96 H                     0.087468
     97 H                     0.094296
     98 C                    -0.175477
     99 H                     0.090195
    100 C                    -0.178285
    101 H                     0.097951
    102 H                     0.095661
    103 H                     0.099342
    104 C                    -0.172278
    105 H                     0.100621
    106 C                    -0.338023
    107 H                     0.102310
    108 H                     0.100069
    109 H                     0.101084
    110 H                     0.100050
  ----------------------------------------
  Sum of atomic charges =     0.000000

                    Cartesian Multipole Moments
 -----------------------------------------------------------------
    Charge (ESU x 10^10)
                 0.0000
    Dipole Moment (Debye)
         X       3.4738      Y       1.7022      Z       3.8658
       Tot       5.4689
    Quadrupole Moments (Debye-Ang)
        XX    -391.3125     XY     -22.3053     YY    -421.7374
        XZ      -2.6890     YZ      14.4994     ZZ    -446.7625

 Total job time:  124.28s(wall), 1311.68s(cpu)
        *  Thank you very much for using Q-Chem.  Have a nice day.  *
