 Q-Chem 4.4, Q-Chem, Inc., Pleasanton, CA (2016)
 Q-Chem 4.4.2 for Intel X86 Linux

User input:
--------------------------------------------------------------
$comment
SP
$end

$rem
MEM_STATIC 5000
MEM_TOTAL 20000
JOBTYPE SP
EXCHANGE B3LYP
BASIS 6-31g(d,p)
$end

$molecule
0 1
C           2.660000    -31.113000      0.646000
C           2.006000    -30.517000      1.710000
N           3.810000    -30.544000      0.196000
C           2.415000    -29.270000      2.191000
C           4.162000    -29.366000      0.631000
C           3.457000    -28.625000      1.658000
C           3.882000    -27.220000      2.117000
C           2.870000    -26.297000      2.507000
C           5.194000    -26.759000      2.132000
N           3.132000    -25.028000      2.772000
N           6.256000    -27.518000      1.828000
C           5.425000    -25.391000      2.383000
C           4.406000    -24.544000      2.802000
S           7.484000    -26.601000      2.220000
N           6.721000    -25.164000      2.448000
C           4.592000    -23.163000      3.402000
S           6.142000    -22.538000      3.970000
C           3.623000    -22.204000      3.629000
C           5.394000    -21.026000      4.639000
S           1.863000    -22.295000      3.126000
C           4.063000    -21.099000      4.320000
C           6.094000    -19.860000      5.167000
C           1.767000    -20.737000      4.013000
C           2.942000    -20.300000      4.633000
N           7.340000    -19.655000      4.891000
S           5.332000    -18.614000      6.155000
C           7.824000    -18.578000      5.602000
C           6.962000    -18.019000      6.511000
C           2.139000    -32.305000     -0.059000
H           1.079000    -30.982000      2.034000
H           1.861000    -28.788000      2.991000
H           5.062000    -28.912000      0.218000
H           1.815000    -26.556000      2.426000
H           0.793000    -20.270000      4.067000
H           3.046000    -19.489000      5.344000
H           8.885000    -18.379000      5.668000
H           7.066000    -17.177000      7.183000
H           1.069000    -32.464000      0.126000
C           2.900000    -33.598000      0.234000
H           2.266000    -32.121000     -1.133000
H           2.920000    -33.828000      1.307000
H           3.940000    -33.412000     -0.058000
C           2.476000    -34.842000     -0.560000
H           1.396000    -35.005000     -0.460000
C           3.185000    -36.161000     -0.076000
H           2.669000    -34.708000     -1.632000
H           2.933000    -36.363000      0.972000
H           4.256000    -35.922000     -0.075000
C           2.817000    -37.329000     -0.940000
H           1.754000    -37.518000     -0.747000
C           3.652000    -38.541000     -0.557000
H           3.006000    -37.128000     -2.002000
H           4.695000    -38.416000     -0.874000
H           3.359000    -39.406000     -1.165000
H           3.576000    -38.800000      0.506000
C          -4.535000    -15.231000      7.154000
C          -4.492000    -16.248000      6.174000
N          -3.746000    -15.204000      8.294000
C          -3.706000    -17.371000      6.473000
C          -2.917000    -16.268000      8.503000
C          -2.835000    -17.402000      7.647000
C          -1.846000    -18.527000      7.767000
C          -0.560000    -18.308000      8.181000
C          -2.152000    -19.840000      7.310000
N           0.464000    -19.186000      8.004000
N          -3.379000    -20.281000      6.986000
C          -1.172000    -20.821000      7.366000
C           0.182000    -20.499000      7.688000
S          -3.178000    -21.910000      6.649000
N          -1.590000    -22.066000      7.026000
C           1.290000    -21.461000      7.561000
S           1.236000    -23.054000      6.769000
C           2.567000    -21.274000      8.026000
C           2.909000    -23.362000      7.009000
S           3.323000    -19.993000      8.948000
C           3.486000    -22.312000      7.688000
C           3.503000    -24.606000      6.636000
C           4.861000    -20.960000      8.959000
C           4.764000    -22.160000      8.292000
N           4.796000    -24.798000      6.882000
S           2.713000    -25.908000      5.841000
C           5.214000    -25.968000      6.339000
C           4.215000    -26.790000      5.903000
C          -5.482000    -14.052000      6.941000
H          -5.050000    -16.226000      5.243000
H          -3.685000    -18.207000      5.780000
H          -2.399000    -16.220000      9.460000
H          -0.230000    -17.390000      8.664000
H           5.759000    -20.505000      9.355000
H           5.615000    -22.831000      8.275000
H           6.276000    -26.156000      6.432000
H           4.219000    -27.723000      5.356000
H          -6.498000    -14.419000      7.132000
C          -5.456000    -13.448000      5.499000
H          -5.194000    -13.302000      7.689000
H          -6.054000    -14.028000      4.787000
H          -4.467000    -13.452000      5.022000
C          -5.957000    -12.040000      5.490000
H          -6.972000    -12.046000      5.905000
C          -5.937000    -11.387000      4.083000
H          -5.302000    -11.486000      6.174000
H          -6.439000    -11.977000      3.306000
H          -4.879000    -11.258000      3.825000
C          -6.747000    -10.097000      4.274000
H          -7.773000    -10.265000      4.624000
C          -6.863000     -9.356000      2.895000
H          -6.221000     -9.382000      4.919000
H          -6.268000     -8.434000      2.864000
H          -7.911000     -9.153000      2.642000
H          -6.370000     -9.905000      2.084000
$end

--------------------------------------------------------------

             Standard Nuclear Orientation (Angstroms)
    I     Atom           X                Y                Z
 ----------------------------------------------------------------
    1      C      -8.7889188100    -3.0666807069     0.7753023442
    2      C      -7.7163960857    -3.1360036129    -0.0964300346
    3      N      -8.8651016111    -2.0039717504     1.6200548846
    4      C      -6.6504991726    -2.2382160484     0.0107719238
    5      C      -7.8500139323    -1.1929021504     1.7321981336
    6      C      -6.6403905189    -1.2759116915     0.9379968910
    7      C      -5.4481789219    -0.3229049693     1.1270489884
    8      C      -4.1334287039    -0.8290120052     0.9185770901
    9      C      -5.5548934616     1.0003754061     1.5413327742
   10      N      -3.0498830850    -0.1252640408     1.2012388923
   11      N      -6.7217188622     1.6283728398     1.7425259840
   12      C      -4.3761448543     1.7017889893     1.8674565328
   13      C      -3.1173620590     1.1755962094     1.6030363506
   14      S      -6.2916039045     3.1339503659     1.9678578196
   15      N      -4.6681662589     2.9557370519     2.1462176408
   16      C      -1.8135507515     1.9513560253     1.6084936801
   17      S      -1.7177621330     3.7137903746     1.6284612754
   18      C      -0.5289270343     1.4430151927     1.5697315461
   19      C       0.0868766327     3.7118283823     1.4374532235
   20      S      -0.0557457025    -0.3258300352     1.6483189934
   21      C       0.4579346132     2.3923730813     1.4396174106
   22      C       0.9803078129     4.8615167266     1.5287627910
   23      C       1.5930916868     0.3412608452     1.4040363274
   24      C       1.6855128203     1.7263253802     1.2335999227
   25      N       0.5948440270     5.9555679729     2.0990140868
   26      S       2.6447502323     4.8677714028     0.9466147759
   27      C       1.5453508046     6.9423405695     1.9489384117
   28      C       2.6244854686     6.6256777587     1.1634455465
   29      C      -9.8241572879    -4.1196081520     0.8699336779
   30      H      -7.6712001961    -4.0068617716    -0.7445761594
   31      H      -5.7898993412    -2.3360390890    -0.6442384448
   32      H      -7.9187322104    -0.3779039030     2.4517401094
   33      H      -3.9685584159    -1.8811660536     0.6895429298
   34      H       2.4003575264    -0.3754567216     1.3383187984
   35      H       2.5518683289     2.2911072979     0.9103236968
   36      H       1.3213465658     7.9769590352     2.1704440132
   37      H       3.5073191438     7.1874568450     0.8870889650
   38      H      -9.4924893589    -5.0704837935     0.4337709796
   39      C     -11.1771655155    -3.7341230641     0.2719462341
   40      H     -10.0079384706    -4.2909056622     1.9378019469
   41      H     -11.0917705538    -3.4449737901    -0.7833875509
   42      H     -11.5027813105    -2.8360170223     0.8093845021
   43      C     -12.3206150427    -4.7438952784     0.4469641018
   44      H     -12.0119047132    -5.7319651444     0.0844935896
   45      C     -13.6234858331    -4.3523433962    -0.3441824251
   46      H     -12.5736490100    -4.8703856989     1.5073239393
   47      H     -13.4135477475    -4.3070778753    -1.4195842257
   48      H     -13.8341925451    -3.3172753267    -0.0468614318
   49      C     -14.7414915210    -5.3110206840    -0.0664322862
   50      H     -14.4366992279    -6.2621466670    -0.5196430789
   51      C     -16.0277377434    -4.8059337287    -0.7015037963
   52      H     -14.9314094990    -5.4176473894     1.0089875886
   53      H     -16.4149366373    -3.9315379470    -0.1634777435
   54      H     -16.8389108724    -5.5241833959    -0.5287219385
   55      H     -15.9328304204    -4.6150050419    -1.7773127182
   56      C       9.7641423963    -2.6573360819    -0.6305318751
   57      C       8.5852934309    -3.2378218336    -0.1110230601
   58      N       9.7914088330    -1.5780846216    -1.5007748451
   59      C       7.3732951005    -2.7765043456    -0.6463474686
   60      C       8.5895428207    -1.0888525039    -1.9240809088
   61      C       7.3268036145    -1.6303262007    -1.5529853246
   62      C       5.9840810153    -1.0440514487    -1.8869373225
   63      C       5.7849453942     0.3093368402    -1.9298109026
   64      C       4.8264065944    -1.8616395990    -2.0203297950
   65      N       4.5635469666     0.9075014892    -1.8955481864
   66      N       4.8323044442    -3.2006279193    -2.1301546255
   67      C       3.5959834327    -1.2601885976    -2.2444113337
   68      C       3.4352209707     0.1562636026    -2.1522018144
   69      S       3.2311704994    -3.6201697835    -2.3908569751
   70      N       2.5741531164    -2.1206742907    -2.4805811386
   71      C       2.1208632832     0.8203633817    -2.1781315778
   72      S       0.5263612734     0.0380608528    -2.0623944002
   73      C       1.9112074539     2.1721757709    -2.2809454763
   74      C      -0.3351068573     1.5244112228    -2.0677082713
   75      S       2.9919099612     3.5321387498    -2.4934632085
   76      C       0.5463739098     2.5764166505    -2.1806075072
   77      C      -1.7626702335     1.5631308539    -2.0757455072
   78      C       1.5422025004     4.6249542603    -2.5624308685
   79      C       0.3438377744     3.9626812017    -2.4223795234
   80      N      -2.3714224834     2.7450336769    -2.1176431821
   81      S      -2.8135189491     0.2065956417    -1.9929312889
   82      C      -3.7116633119     2.5940058414    -1.9782942871
   83      C      -4.1604692320     1.3089907817    -2.0836059312
   84      C      11.1121774524    -3.2190612318    -0.1838940536
   85      H       8.5677609776    -4.0282817225     0.6329357944
   86      H       6.4408487621    -3.2308119809    -0.3242692195
   87      H       8.6913655604    -0.3048885238    -2.6734203563
   88      H       6.5937172970     1.0371766804    -1.9622173256
   89      H       1.6976289391     5.6954093102    -2.5770462109
   90      H      -0.5839521880     4.5188686451    -2.4901461332
   91      H      -4.2682399135     3.5209475226    -1.9250157156
   92      H      -5.1312069976     0.8564154272    -1.9334135913
   93      H      11.2417564815    -4.1824716252    -0.6922990978
   94      C      11.2354315670    -3.4708594410     1.3543718808
   95      H      11.8628996778    -2.4956506551    -0.5274654112
   96      H      10.7655646729    -4.4099403827     1.6679003272
   97      H      10.7122421519    -2.7348569859     1.9790631821
   98      C      12.6653246529    -3.4976930987     1.7882286749
   99      H      13.1729016080    -4.2797785185     1.2109990578
  100      C      12.8435600316    -3.7289332805     3.3117831137
  101      H      13.0822846733    -2.5241557726     1.5015818260
  102      H      12.3093314342    -4.6054207461     3.6993428231
  103      H      12.4702044195    -2.8211082847     3.8006883848
  104      C      14.3462878301    -4.0056318408     3.4598644101
  105      H      14.6981501637    -4.8672868639     2.8792237990
  106      C      14.6628699425    -4.3235494845     4.9641523273
  107      H      14.9444791047    -3.1116637854     3.2432672840
  108      H      15.2297001267    -3.5196241774     5.4514691062
  109      H      15.1831087249    -5.2841885675     5.0643828695
  110      H      13.7644125092    -4.3043168222     5.5923046537
 ----------------------------------------------------------------

   10   -5663.5231286612      4.67E-06 Convergence criterion met
 Total energy in the final basis set = -5663.5231286612

                    Orbital Energies (a.u.)
 --------------------------------------------------------------

 Alpha MOs
 -- Occupied --
-88.993 -88.989 -88.925 -88.920 -88.919 -88.916 -88.912 -88.907
-14.392 -14.385 -14.385 -14.385 -14.353 -14.350 -14.337 -14.337
-14.333 -14.328 -10.270 -10.267 -10.267 -10.265 -10.258 -10.256
-10.256 -10.255 -10.245 -10.244 -10.241 -10.240 -10.237 -10.236
-10.232 -10.230 -10.230 -10.229 -10.229 -10.229 -10.228 -10.228
-10.228 -10.227 -10.227 -10.226 -10.224 -10.221 -10.221 -10.215
-10.212 -10.208 -10.207 -10.203 -10.200 -10.199 -10.197 -10.194
-10.187 -10.186 -10.181 -10.180 -10.180 -10.179 -10.179 -10.177
-10.176 -10.174 -10.171 -10.168  -8.050  -8.044  -7.986  -7.980
 -7.977  -7.977  -7.970  -7.966  -6.015  -6.009  -6.009  -6.008
 -6.003  -6.001  -5.950  -5.947  -5.944  -5.944  -5.942  -5.941
 -5.940  -5.938  -5.938  -5.937  -5.934  -5.934  -5.934  -5.931
 -5.930  -5.927  -5.926  -5.922  -1.058  -1.034  -0.974  -0.970
 -0.964  -0.949  -0.948  -0.922  -0.921  -0.912  -0.908  -0.903
 -0.841  -0.839  -0.832  -0.826  -0.814  -0.811  -0.811  -0.808
 -0.807  -0.798  -0.797  -0.792  -0.792  -0.785  -0.770  -0.767
 -0.752  -0.748  -0.741  -0.739  -0.720  -0.716  -0.711  -0.709
 -0.695  -0.692  -0.681  -0.674  -0.657  -0.654  -0.652  -0.643
 -0.636  -0.636  -0.630  -0.620  -0.610  -0.605  -0.599  -0.594
 -0.593  -0.591  -0.580  -0.579  -0.578  -0.577  -0.574  -0.574
 -0.550  -0.546  -0.545  -0.537  -0.529  -0.524  -0.515  -0.513
 -0.511  -0.502  -0.500  -0.500  -0.495  -0.486  -0.484  -0.480
 -0.480  -0.476  -0.475  -0.469  -0.468  -0.466  -0.454  -0.449
 -0.447  -0.446  -0.443  -0.438  -0.433  -0.431  -0.429  -0.429
 -0.428  -0.426  -0.425  -0.423  -0.421  -0.416  -0.414  -0.412
 -0.408  -0.406  -0.405  -0.402  -0.402  -0.399  -0.399  -0.399
 -0.395  -0.392  -0.392  -0.390  -0.388  -0.387  -0.386  -0.379
 -0.379  -0.377  -0.375  -0.370  -0.368  -0.358  -0.358  -0.357
 -0.355  -0.354  -0.351  -0.348  -0.344  -0.343  -0.342  -0.340
 -0.338  -0.336  -0.334  -0.333  -0.330  -0.326  -0.325  -0.324
 -0.321  -0.317  -0.316  -0.312  -0.309  -0.305  -0.304  -0.300
 -0.298  -0.294  -0.293  -0.289  -0.284  -0.282  -0.281  -0.276
 -0.275  -0.271  -0.268  -0.265  -0.256  -0.255  -0.253  -0.248
 -0.241  -0.237  -0.230  -0.228  -0.196  -0.194

          Ground-State Mulliken Net Atomic Charges

     Atom                 Charge (a.u.)
  ----------------------------------------
      1 C                     0.279740
      2 C                    -0.129302
      3 N                    -0.483374
      4 C                    -0.091031
      5 C                     0.095526
      6 C                     0.052339
      7 C                     0.012322
      8 C                     0.051137
      9 C                     0.189650
     10 N                    -0.497511
     11 N                    -0.529410
     12 C                     0.235583
     13 C                     0.291656
     14 S                     0.609647
     15 N                    -0.551036
     16 C                    -0.228195
     17 S                     0.343226
     18 C                    -0.111774
     19 C                    -0.218841
     20 S                     0.275467
     21 C                     0.167190
     22 C                     0.057969
     23 C                    -0.300441
     24 C                    -0.085791
     25 N                    -0.418177
     26 S                     0.266761
     27 C                     0.103364
     28 C                    -0.304426
     29 C                    -0.223465
     30 H                     0.084681
     31 H                     0.090456
     32 H                     0.113212
     33 H                     0.117947
     34 H                     0.121100
     35 H                     0.124173
     36 H                     0.112237
     37 H                     0.135089
     38 H                     0.095092
     39 C                    -0.179624
     40 H                     0.119098
     41 H                     0.089397
     42 H                     0.115705
     43 C                    -0.181083
     44 H                     0.083314
     45 C                    -0.168226
     46 H                     0.092096
     47 H                     0.089350
     48 H                     0.090577
     49 C                    -0.166554
     50 H                     0.094884
     51 C                    -0.318071
     52 H                     0.094030
     53 H                     0.103386
     54 H                     0.094220
     55 H                     0.101622
     56 C                     0.253046
     57 C                    -0.097087
     58 N                    -0.486629
     59 C                    -0.068141
     60 C                     0.058154
     61 C                     0.039646
     62 C                     0.046304
     63 C                     0.053446
     64 C                     0.242984
     65 N                    -0.524826
     66 N                    -0.564956
     67 C                     0.186548
     68 C                     0.296579
     69 S                     0.590407
     70 N                    -0.556610
     71 C                    -0.217303
     72 S                     0.330716
     73 C                    -0.109079
     74 C                    -0.220878
     75 S                     0.261514
     76 C                     0.133237
     77 C                     0.070826
     78 C                    -0.308959
     79 C                    -0.032162
     80 N                    -0.433950
     81 S                     0.284664
     82 C                     0.124587
     83 C                    -0.323853
     84 C                    -0.235357
     85 H                     0.098249
     86 H                     0.107471
     87 H                     0.103889
     88 H                     0.117528
     89 H                     0.127187
     90 H                     0.135511
     91 H                     0.112621
     92 H                     0.135960
     93 H                     0.117842
     94 C                    -0.182356
     95 H                     0.119932
     96 H                     0.087733
     97 H                     0.094229
     98 C                    -0.175649
     99 H                     0.090383
    100 C                    -0.178305
    101 H                     0.098049
    102 H                     0.095940
    103 H                     0.099429
    104 C                    -0.172371
    105 H                     0.100739
    106 C                    -0.338024
    107 H                     0.102314
    108 H                     0.100355
    109 H                     0.101396
    110 H                     0.100172
  ----------------------------------------
  Sum of atomic charges =     0.000000

                    Cartesian Multipole Moments
 -----------------------------------------------------------------
    Charge (ESU x 10^10)
                 0.0000
    Dipole Moment (Debye)
         X      -1.1080      Y      -1.9080      Z      -0.3603
       Tot       2.2356
    Quadrupole Moments (Debye-Ang)
        XX    -439.5521     XY       4.7486     YY    -410.8091
        XZ      22.7574     YZ      -4.7264     ZZ    -461.2107

 Total job time:  112.56s(wall), 1198.98s(cpu)
        *  Thank you very much for using Q-Chem.  Have a nice day.  *
