 Q-Chem 4.4, Q-Chem, Inc., Pleasanton, CA (2016)
 Q-Chem 4.4.2 for Intel X86 Linux

User input:
--------------------------------------------------------------
$comment
SP
$end

$rem
MEM_STATIC 5000
MEM_TOTAL 20000
JOBTYPE SP
EXCHANGE B3LYP
BASIS 6-31g(d,p)
$end

$molecule
0 1
C          -0.797000    -17.745000     12.516000
C          -0.122000    -17.101000     13.516000
N          -0.336000    -17.794000     11.283000
C           1.035000    -16.419000     13.300000
C           0.895000    -17.211000     11.057000
C           1.635000    -16.411000     12.004000
C           2.831000    -15.622000     11.600000
C           3.035000    -14.390000     12.252000
C           3.905000    -16.087000     10.831000
N           4.111000    -13.642000     11.971000
N           3.927000    -17.281000     10.247000
C           4.964000    -15.265000     10.521000
C           5.024000    -13.961000     11.042000
S           5.335000    -17.359000      9.485000
N           5.865000    -15.856000      9.686000
C           6.041000    -12.954000     10.663000
S           7.018000    -13.012000      9.199000
C           6.331000    -11.825000     11.361000
C           7.769000    -11.410000      9.532000
S           5.816000    -11.388000     13.018000
C           7.329000    -11.045000     10.762000
C           8.549000    -10.691000      8.629000
C           6.913000    -10.014000     12.858000
C           7.701000    -10.023000     11.681000
N           8.520000    -11.166000      7.412000
S           9.169000     -9.105000      8.779000
C           9.404000    -10.574000      6.620000
C           9.868000     -9.401000      7.133000
C          -2.169000    -18.377000     12.802000
H          -0.538000    -16.884000     14.496000
H           1.429000    -15.894000     14.165000
H           1.264000    -17.216000     10.033000
H           2.215000    -14.039000     12.877000
H           6.896000     -9.242000     13.616000
H           8.427000     -9.274000     11.388000
H           9.612000    -10.968000      5.634000
H          10.501000     -8.646000      6.685000
H          -1.958000    -19.401000     13.137000
C          -3.175000    -18.287000     11.659000
H          -2.738000    -17.839000     13.570000
H          -2.711000    -18.509000     10.691000
H          -3.650000    -17.299000     11.704000
C          -4.423000    -19.187000     11.844000
H          -4.147000    -20.237000     11.689000
C          -5.490000    -18.975000     10.772000
H          -4.836000    -18.981000     12.839000
H          -6.320000    -19.670000     10.947000
H          -4.967000    -19.335000      9.877000
C          -5.987000    -17.576000     10.508000
H          -5.162000    -16.932000     10.183000
C          -6.639000    -16.984000     11.719000
H          -6.543000    -17.627000      9.564000
H          -7.673000    -17.321000     11.864000
H          -6.775000    -15.912000     11.532000
H          -6.091000    -17.020000     12.669000
C          -4.535000    -15.231000      7.154000
C          -4.492000    -16.248000      6.174000
N          -3.746000    -15.204000      8.294000
C          -3.706000    -17.371000      6.473000
C          -2.917000    -16.268000      8.503000
C          -2.835000    -17.402000      7.647000
C          -1.846000    -18.527000      7.767000
C          -0.560000    -18.308000      8.181000
C          -2.152000    -19.840000      7.310000
N           0.464000    -19.186000      8.004000
N          -3.379000    -20.281000      6.986000
C          -1.172000    -20.821000      7.366000
C           0.182000    -20.499000      7.688000
S          -3.178000    -21.910000      6.649000
N          -1.590000    -22.066000      7.026000
C           1.290000    -21.461000      7.561000
S           1.236000    -23.054000      6.769000
C           2.567000    -21.274000      8.026000
C           2.909000    -23.362000      7.009000
S           3.323000    -19.993000      8.948000
C           3.486000    -22.312000      7.688000
C           3.503000    -24.606000      6.636000
C           4.861000    -20.960000      8.959000
C           4.764000    -22.160000      8.292000
N           4.796000    -24.798000      6.882000
S           2.713000    -25.908000      5.841000
C           5.214000    -25.968000      6.339000
C           4.215000    -26.790000      5.903000
C          -5.482000    -14.052000      6.941000
H          -5.050000    -16.226000      5.243000
H          -3.685000    -18.207000      5.780000
H          -2.399000    -16.220000      9.460000
H          -0.230000    -17.390000      8.664000
H           5.759000    -20.505000      9.355000
H           5.615000    -22.831000      8.275000
H           6.276000    -26.156000      6.432000
H           4.219000    -27.723000      5.356000
H          -6.498000    -14.419000      7.132000
C          -5.456000    -13.448000      5.499000
H          -5.194000    -13.302000      7.689000
H          -6.054000    -14.028000      4.787000
H          -4.467000    -13.452000      5.022000
C          -5.957000    -12.040000      5.490000
H          -6.972000    -12.046000      5.905000
C          -5.937000    -11.387000      4.083000
H          -5.302000    -11.486000      6.174000
H          -6.439000    -11.977000      3.306000
H          -4.879000    -11.258000      3.825000
C          -6.747000    -10.097000      4.274000
H          -7.773000    -10.265000      4.624000
C          -6.863000     -9.356000      2.895000
H          -6.221000     -9.382000      4.919000
H          -6.268000     -8.434000      2.864000
H          -7.911000     -9.153000      2.642000
H          -6.370000     -9.905000      2.084000
$end

--------------------------------------------------------------

             Standard Nuclear Orientation (Angstroms)
    I     Atom           X                Y                Z
 ----------------------------------------------------------------
    1      C      -1.4691935909     0.7142090725     4.0846590073
    2      C      -0.3645751479     0.7245735385     4.8909292307
    3      N      -1.3957947032     0.4079811353     2.8055780663
    4      C       0.8887965385     0.4797253118     4.4223806614
    5      C      -0.1545176677     0.0402455641     2.3256532068
    6      C       1.0895110811     0.1263951210     3.0532380652
    7      C       2.4057260998    -0.0585275891     2.3827646385
    8      C       3.4820178482     0.7139302220     2.8617729917
    9      C       2.7457942700    -1.0945854311     1.5041294540
   10      N       4.7066467115     0.5739084639     2.3355420020
   11      N       1.8730893811    -1.9894833105     1.0516695525
   12      C       4.0006994986    -1.1669983748     0.9444561271
   13      C       4.9934174623    -0.2417976812     1.3104776034
   14      S       2.7120420561    -2.9553741885     0.0860582327
   15      N       4.1191063761    -2.1817271034     0.0418973097
   16      C       6.3250426409    -0.1456167554     0.6705536914
   17      S       6.7277926683    -0.7924676997    -0.9170751289
   18      C       7.4060337877     0.4914602826     1.1916448430
   19      C       8.3866438236    -0.0939449480    -0.8774164594
   20      S       7.6261184824     1.1128128822     2.8551732240
   21      C       8.5341120205     0.4358595464     0.3624566505
   22      C       9.2573851602    -0.0430248790    -1.9636883735
   23      C       9.2971662828     1.4257201416     2.3791760644
   24      C       9.6473517043     0.9322716333     1.0984603504
   25      N       8.6962712497    -0.3464605126    -3.1041413519
   26      S      10.7750038735     0.7350315586    -2.0809812575
   27      C       9.5815750084    -0.4626469694    -4.0849175558
   28      C      10.7840359858     0.0979062665    -3.7778969252
   29      C      -2.8346066825     1.1364591231     4.6511887808
   30      H      -0.3432484506     1.1344125350     5.8969720573
   31      H       1.6839634848     0.5898528533     5.1535902429
   32      H      -0.0804657626    -0.1781247669     1.2618897398
   33      H       3.2269106546     1.5008717712     3.5702003470
   34      H       9.9313278536     1.9954705949     3.0455547278
   35      H      10.6133554218     1.0241993576     0.6164726832
   36      H       9.2909837174    -0.8680624960    -5.0450690815
   37      H      11.6563487686     0.2600397779    -4.3977365282
   38      H      -3.2839055624     0.2187534692     5.0527717103
   39      C      -3.7307976276     1.8997410774     3.6812261794
   40      H      -2.7564466272     1.8942748678     5.4402612127
   41      H      -3.7178679460     1.4541484318     2.6797852088
   42      H      -3.4269644196     2.9538632121     3.6987163724
   43      C      -5.1989772718     2.0417471755     4.1566331635
   44      H      -5.7101602481     1.0754100780     4.0695379358
   45      C      -6.0469972048     2.9349023063     3.2534426490
   46      H      -5.1797823815     2.4409238273     5.1780633162
   47      H      -7.0764789394     2.9554483892     3.6306630310
   48      H      -6.0669064860     2.3446912704     2.3285596544
   49      C      -5.5498050517     4.3209172200     2.9283755452
   50      H      -4.5856103504     4.2695792808     2.4100330003
   51      C      -5.4136121836     5.1615886386     4.1599647903
   52      H      -6.1698486049     4.6758815105     2.0962581588
   53      H      -6.3651704711     5.5864265374     4.5031842322
   54      H      -4.8499587625     6.0617168636     3.8866280027
   55      H      -4.8550274671     4.7463878641     5.0083110824
   56      C      -3.5890567778     5.2187369534    -0.8407133278
   57      C      -4.4058346279     4.4540593094    -1.7036617877
   58      N      -2.7765006665     4.6865505556     0.1489230720
   59      C      -4.5042567288     3.0837357838    -1.4193160030
   60      C      -2.8219027415     3.3347076805     0.3318916285
   61      C      -3.6628703344     2.4529432515    -0.4034185099
   62      C      -3.6473823903     0.9522487406    -0.3271157684
   63      C      -2.4819956177     0.2568521391    -0.1497736218
   64      C      -4.8145045905     0.1807519859    -0.5899322960
   65      N      -2.3359424941    -1.0730627162    -0.3963176599
   66      N      -6.0642786673     0.6679610055    -0.6652856510
   67      C      -4.7238486453    -1.2040507060    -0.5899961564
   68      C      -3.4587768811    -1.8643526437    -0.5245837513
   69      S      -7.0424275665    -0.6786710245    -0.8587227389
   70      N      -5.9067554211    -1.8538860814    -0.7270893531
   71      C      -3.2963496231    -3.3141708041    -0.7267759558
   72      S      -4.5243218705    -4.4527774031    -1.3296757585
   73      C      -2.1487892152    -4.0290991178    -0.4946001248
   74      C      -3.4512368522    -5.7943738868    -1.3303226521
   75      S      -0.5841547547    -3.5915271198     0.1558080175
   76      C      -2.2145958939    -5.4054049847    -0.8656804960
   77      C      -3.8966126679    -7.1100492409    -1.6621957386
   78      C      -0.0831377056    -5.3326085084     0.0206358497
   79      C      -1.0628329743    -6.1511874792    -0.4935855512
   80      N      -3.0258046347    -8.1140388618    -1.6080920384
   81      S      -5.4758875067    -7.5445368180    -2.1803082057
   82      C      -3.5843234691    -9.2532657878    -2.0863092723
   83      C      -4.9362458209    -9.1994632957    -2.2684966661
   84      C      -3.5560860465     6.7349005891    -1.0206570987
   85      H      -4.9772965456     4.8648068998    -2.5302975561
   86      H      -5.1649133016     2.4614504902    -2.0158727112
   87      H      -2.2292602964     3.0021896944     1.1831752012
   88      H      -1.5498506159     0.7151078144     0.1758341664
   89      H       0.9477921374    -5.5943163200     0.2179621791
   90      H      -0.8786054481    -7.2160123588    -0.5768873772
   91      H      -2.9094665321   -10.0975827558    -2.1457564938
   92      H      -5.6450141169    -9.8874941174    -2.7089226995
   93      H      -4.5052860457     7.1240401852    -0.6320496665
   94      C      -3.4159162773     7.2119345350    -2.5031034047
   95      H      -2.7141943934     7.0872291448    -0.4107136314
   96      H      -4.3678051640     7.1907562569    -3.0456962796
   97      H      -2.7824986796     6.5699882612    -3.1294843817
   98      C      -2.8675709777     8.6001810819    -2.5781697576
   99      H      -3.5383247920     9.2535086187    -2.0074347488
  100      C      -2.6932430272     9.1169923283    -4.0304004216
  101      H      -1.8960721162     8.5650205952    -2.0694943187
  102      H      -3.5934498910     9.0268080271    -4.6511478697
  103      H      -1.8810348261     8.5232733542    -4.4667312798
  104      C      -2.4109062605    10.6148070184    -3.8473209196
  105      H      -3.2076443165    11.1555406552    -3.3217587405
  106      C      -2.2737781536    11.2866331643    -5.2594198935
  107      H      -1.4365455863    10.7867566391    -3.3729997156
  108      H      -1.2416360009    11.5875438938    -5.4812425921
  109      H      -2.9588331377    12.1374786860    -5.3608278175
  110      H      -2.4230486867    10.5718937775    -6.0773666625
 ----------------------------------------------------------------

    9   -5663.5067854655      7.35E-06 Convergence criterion met
 Total energy in the final basis set = -5663.5067854655

                    Orbital Energies (a.u.)
 --------------------------------------------------------------

 Alpha MOs
 -- Occupied --
-88.989 -88.983 -88.926 -88.925 -88.920 -88.917 -88.913 -88.903
-14.387 -14.383 -14.380 -14.375 -14.348 -14.345 -14.337 -14.335
-14.329 -14.328 -10.265 -10.264 -10.262 -10.260 -10.251 -10.250
-10.250 -10.249 -10.241 -10.240 -10.237 -10.234 -10.231 -10.231
-10.231 -10.229 -10.228 -10.228 -10.228 -10.228 -10.227 -10.227
-10.225 -10.224 -10.222 -10.222 -10.221 -10.221 -10.217 -10.215
-10.211 -10.207 -10.207 -10.204 -10.204 -10.195 -10.194 -10.190
-10.184 -10.183 -10.179 -10.178 -10.177 -10.172 -10.168 -10.167
-10.166 -10.163 -10.162 -10.160  -8.045  -8.039  -7.987  -7.987
 -7.980  -7.975  -7.972  -7.962  -6.010  -6.005  -6.004  -6.003
 -5.998  -5.996  -5.951  -5.951  -5.948  -5.947  -5.944  -5.944
 -5.944  -5.940  -5.940  -5.936  -5.936  -5.936  -5.933  -5.932
 -5.928  -5.927  -5.923  -5.918  -1.051  -1.029  -0.983  -0.974
 -0.961  -0.944  -0.942  -0.918  -0.913  -0.910  -0.907  -0.899
 -0.840  -0.838  -0.834  -0.821  -0.814  -0.808  -0.808  -0.806
 -0.804  -0.803  -0.797  -0.788  -0.785  -0.781  -0.771  -0.764
 -0.752  -0.746  -0.741  -0.736  -0.719  -0.717  -0.708  -0.706
 -0.694  -0.689  -0.677  -0.670  -0.655  -0.651  -0.647  -0.639
 -0.637  -0.633  -0.625  -0.617  -0.616  -0.606  -0.602  -0.595
 -0.593  -0.589  -0.583  -0.578  -0.578  -0.577  -0.571  -0.548
 -0.546  -0.544  -0.534  -0.533  -0.527  -0.521  -0.520  -0.512
 -0.510  -0.499  -0.498  -0.497  -0.483  -0.483  -0.478  -0.477
 -0.477  -0.471  -0.469  -0.464  -0.463  -0.461  -0.453  -0.446
 -0.443  -0.442  -0.440  -0.438  -0.436  -0.435  -0.432  -0.432
 -0.429  -0.427  -0.424  -0.423  -0.419  -0.417  -0.415  -0.410
 -0.407  -0.403  -0.400  -0.399  -0.397  -0.396  -0.394  -0.393
 -0.389  -0.389  -0.389  -0.387  -0.386  -0.384  -0.383  -0.378
 -0.377  -0.375  -0.374  -0.368  -0.364  -0.359  -0.355  -0.353
 -0.351  -0.350  -0.347  -0.344  -0.342  -0.340  -0.339  -0.337
 -0.333  -0.332  -0.330  -0.329  -0.327  -0.325  -0.322  -0.318
 -0.309  -0.307  -0.302  -0.302  -0.301  -0.299  -0.298  -0.295
 -0.292  -0.292  -0.290  -0.290  -0.289  -0.279  -0.277  -0.273
 -0.269  -0.267  -0.265  -0.263  -0.254  -0.252  -0.251  -0.250
 -0.242  -0.240  -0.231  -0.225  -0.192  -0.192

          Ground-State Mulliken Net Atomic Charges

     Atom                 Charge (a.u.)
  ----------------------------------------
      1 C                     0.292505
      2 C                    -0.111278
      3 N                    -0.506232
      4 C                    -0.076420
      5 C                     0.075506
      6 C                     0.028764
      7 C                     0.013188
      8 C                     0.076231
      9 C                     0.262533
     10 N                    -0.547857
     11 N                    -0.551647
     12 C                     0.174016
     13 C                     0.324390
     14 S                     0.623349
     15 N                    -0.553517
     16 C                    -0.215284
     17 S                     0.344413
     18 C                    -0.117841
     19 C                    -0.217705
     20 S                     0.289242
     21 C                     0.170117
     22 C                     0.055062
     23 C                    -0.301310
     24 C                    -0.097248
     25 N                    -0.422354
     26 S                     0.254296
     27 C                     0.147885
     28 C                    -0.320708
     29 C                    -0.227432
     30 H                     0.088019
     31 H                     0.098036
     32 H                     0.126072
     33 H                     0.119145
     34 H                     0.129457
     35 H                     0.101312
     36 H                     0.117478
     37 H                     0.125988
     38 H                     0.118715
     39 C                    -0.187950
     40 H                     0.101525
     41 H                     0.118584
     42 H                     0.102413
     43 C                    -0.183930
     44 H                     0.087442
     45 C                    -0.172288
     46 H                     0.079540
     47 H                     0.081136
     48 H                     0.090164
     49 C                    -0.186991
     50 H                     0.115037
     51 C                    -0.317794
     52 H                     0.090847
     53 H                     0.100113
     54 H                     0.099063
     55 H                     0.101356
     56 C                     0.252169
     57 C                    -0.097666
     58 N                    -0.490389
     59 C                    -0.070251
     60 C                     0.051198
     61 C                     0.039511
     62 C                     0.039830
     63 C                     0.106848
     64 C                     0.245094
     65 N                    -0.535390
     66 N                    -0.567824
     67 C                     0.189570
     68 C                     0.301201
     69 S                     0.588488
     70 N                    -0.560950
     71 C                    -0.226946
     72 S                     0.319470
     73 C                    -0.120670
     74 C                    -0.225408
     75 S                     0.311891
     76 C                     0.129427
     77 C                     0.067144
     78 C                    -0.332908
     79 C                    -0.032756
     80 N                    -0.434577
     81 S                     0.271229
     82 C                     0.127952
     83 C                    -0.312222
     84 C                    -0.235464
     85 H                     0.096835
     86 H                     0.108110
     87 H                     0.120310
     88 H                     0.108721
     89 H                     0.124386
     90 H                     0.131633
     91 H                     0.111988
     92 H                     0.134932
     93 H                     0.116768
     94 C                    -0.182624
     95 H                     0.118829
     96 H                     0.087507
     97 H                     0.094728
     98 C                    -0.175152
     99 H                     0.089771
    100 C                    -0.178952
    101 H                     0.098003
    102 H                     0.095861
    103 H                     0.099797
    104 C                    -0.172196
    105 H                     0.100405
    106 C                    -0.338091
    107 H                     0.102349
    108 H                     0.100129
    109 H                     0.100986
    110 H                     0.100215
  ----------------------------------------
  Sum of atomic charges =     0.000000

                    Cartesian Multipole Moments
 -----------------------------------------------------------------
    Charge (ESU x 10^10)
                 0.0000
    Dipole Moment (Debye)
         X       0.5567      Y      -0.8153      Z      -0.8207
       Tot       1.2838
    Quadrupole Moments (Debye-Ang)
        XX    -394.7027     XY      11.3771     YY    -417.5291
        XZ       8.0243     YZ       7.7595     ZZ    -422.5162

 Total job time:  92.06s(wall), 1036.69s(cpu)
        *  Thank you very much for using Q-Chem.  Have a nice day.  *
