 Q-Chem 4.4, Q-Chem, Inc., Pleasanton, CA (2016)
 Q-Chem 4.4.2 for Intel X86 Linux

User input:
--------------------------------------------------------------
$comment
SP
$end

$rem
MEM_STATIC 5000
MEM_TOTAL 20000
JOBTYPE SP
EXCHANGE B3LYP
BASIS 6-31g(d,p)
$end

$molecule
0 1
C          -0.024000      8.336000     12.919000
C          -0.777000      7.244000     13.385000
N          -0.025000      8.644000     11.621000
C          -1.443000      6.477000     12.512000
C          -0.774000      7.990000     10.737000
C          -1.595000      6.857000     11.152000
C          -2.327000      6.015000     10.156000
C          -3.312000      5.018000     10.538000
C          -1.921000      5.800000      8.794000
N          -3.801000      4.083000      9.771000
N          -0.830000      6.421000      8.202000
C          -2.512000      4.897000      7.936000
C          -3.442000      4.029000      8.479000
S          -0.629000      5.738000      6.698000
N          -1.978000      4.826000      6.684000
C          -3.980000      2.859000      7.768000
S          -3.069000      2.025000      6.526000
C          -5.178000      2.217000      8.024000
C          -4.375000      0.860000      6.300000
S          -6.560000      2.708000      9.004000
C          -5.362000      1.095000      7.181000
C          -4.234000     -0.330000      5.577000
C          -7.331000      1.184000      8.495000
C          -6.580000      0.402000      7.575000
N          -5.015000     -1.312000      5.933000
S          -2.824000     -0.747000      4.665000
C          -4.710000     -2.448000      5.230000
C          -3.522000     -2.309000      4.519000
C           0.559000      9.345000     13.852000
H          -0.760000      6.960000     14.433000
H          -1.842000      5.552000     12.918000
H          -0.830000      8.478000      9.765000
H          -3.683000      5.001000     11.561000
H          -8.288000      0.961000      8.947000
H          -6.931000     -0.508000      7.102000
H          -5.317000     -3.311000      5.470000
H          -3.016000     -3.127000      4.022000
H           1.634000      9.328000     13.633000
C           0.431000      9.080000     15.374000
H           0.404000     10.404000     13.611000
H           0.931000      8.134000     15.615000
H          -0.650000      9.132000     15.550000
C           0.973000     10.177000     16.249000
H           2.063000     10.200000     16.128000
C           0.739000      9.953000     17.779000
H           0.418000     11.067000     15.930000
H           1.078000      8.946000     18.050000
H          -0.329000      9.976000     18.031000
C           1.432000     11.086000     18.647000
H           0.954000     12.026000     18.344000
C           2.924000     11.183000     18.383000
H           1.143000     10.921000     19.693000
H           3.441000     10.245000     18.620000
H           3.299000     11.850000     19.169000
H           3.069000     11.660000     17.406000
C         -12.540000      7.085000     -2.972000
C         -12.487000      6.662000     -1.632000
N         -11.444000      7.160000     -3.768000
C         -11.300000      6.061000     -1.182000
C         -10.281000      6.611000     -3.272000
C         -10.154000      6.118000     -1.995000
C          -8.944000      5.332000     -1.598000
C          -9.123000      4.258000     -0.655000
C          -7.624000      5.587000     -1.991000
N          -8.162000      3.418000     -0.258000
N          -7.281000      6.569000     -2.822000
C          -6.708000      4.678000     -1.678000
C          -6.977000      3.574000     -0.812000
S          -5.680000      6.249000     -3.117000
N          -5.464000      4.942000     -2.203000
C          -5.962000      2.531000     -0.444000
S          -4.595000      2.027000     -1.483000
C          -6.029000      1.655000      0.637000
C          -4.063000      0.751000     -0.429000
S          -7.082000      1.673000      2.010000
C          -4.954000      0.694000      0.647000
C          -2.768000      0.104000     -0.560000
C          -6.112000      0.302000      2.647000
C          -5.110000     -0.122000      1.805000
N          -2.328000     -0.535000      0.507000
S          -1.611000      0.450000     -1.799000
C          -0.968000     -0.851000      0.337000
C          -0.487000     -0.527000     -0.939000
C         -13.828000      7.684000     -3.535000
H         -13.370000      6.808000     -1.017000
H         -11.181000      5.778000     -0.141000
H          -9.529000      6.411000     -4.034000
H         -10.111000      4.065000     -0.241000
H          -6.365000     -0.272000      3.529000
H          -4.457000     -0.937000      2.096000
H          -0.459000     -1.385000      1.128000
H           0.492000     -0.666000     -1.380000
H         -14.089000      8.638000     -3.060000
C         -15.036000      6.715000     -3.478000
H         -13.646000      8.009000     -4.567000
H         -15.708000      7.078000     -4.266000
H         -15.508000      6.873000     -2.500000
C         -14.678000      5.222000     -3.759000
H         -14.124000      5.137000     -4.702000
C         -15.940000      4.436000     -4.031000
H         -14.014000      4.759000     -3.019000
H         -16.496000      4.945000     -4.828000
H         -16.592000      4.465000     -3.149000
C         -15.669000      3.019000     -4.460000
H         -15.183000      3.024000     -5.443000
C         -17.070000      2.309000     -4.543000
H         -15.010000      2.511000     -3.744000
H         -17.676000      2.636000     -5.397000
H         -17.719000      2.465000     -3.672000
H         -16.858000      1.238000     -4.437000
$end

--------------------------------------------------------------

             Standard Nuclear Orientation (Angstroms)
    I     Atom           X                Y                Z
 ----------------------------------------------------------------
    1      C     -10.8035167432     2.2417641630     1.0997327194
    2      C     -10.6077177524     1.8366870011    -0.2322598662
    3      N      -9.7740890785     2.2728116860     1.9476618051
    4      C      -9.3973241684     1.4215612720    -0.6279769380
    5      C      -8.5307623274     1.9937924663     1.5649610538
    6      C      -8.2496870565     1.5834640635     0.1928887912
    7      C      -6.8890895133     1.1217828499    -0.2223566572
    8      C      -6.5183382846     0.9068665527    -1.6103453141
    9      C      -5.9282085372     0.4907495684     0.6405510711
   10      N      -5.4597342428     0.2754785098    -2.0373600938
   11      N      -6.1137850973     0.3034455095     2.0032192368
   12      C      -4.7458887298    -0.0742991082     0.2119558470
   13      C      -4.5606857160    -0.1858571902    -1.1542167768
   14      S      -4.8456108907    -0.6239159847     2.5515264870
   15      N      -3.9688480520    -0.6382364155     1.1793665656
   16      C      -3.4821888758    -0.9736903151    -1.7706813200
   17      S      -2.7778895107    -2.3675431748    -0.9774741529
   18      C      -2.9567064529    -0.8027252922    -3.0385705834
   19      C      -1.7027371648    -2.6491487062    -2.3481246400
   20      S      -3.1361643626     0.5219625998    -4.1893971765
   21      C      -1.9617929079    -1.7669634629    -3.3280196948
   22      C      -0.9661891852    -3.8259911013    -2.5248986506
   23      C      -2.0424877322    -0.3945294709    -5.2571104866
   24      C      -1.5320505885    -1.6033006616    -4.7091587271
   25      N      -0.6831565523    -4.1443813517    -3.7575953600
   26      S      -0.8709970819    -5.0936192671    -1.3511055272
   27      C      -0.0585490776    -5.3630041358    -3.8081325992
   28      C      -0.1116662904    -6.0189941326    -2.5821465936
   29      C     -12.0626712413     2.9109663604     1.5414989120
   30      H     -11.4411952491     1.7738079953    -0.9255206347
   31      H      -9.3658941140     0.9500171900    -1.6058932588
   32      H      -7.7758019231     2.2583029331     2.3039691735
   33      H      -7.1743791689     1.2704710324    -2.3989270413
   34      H      -1.8796433485     0.0221649266    -6.2418589244
   35      H      -0.7952479401    -2.2391742675    -5.1864601147
   36      H       0.2094104213    -5.6985888011    -4.8013086357
   37      H       0.1805009489    -7.0511970383    -2.4359807093
   38      H     -12.4397960627     2.2728819449     2.3505107461
   39      C     -13.2188857071     3.0239277476     0.5150970248
   40      H     -11.9650582183     3.8230032900     2.1433687791
   41      H     -13.5167888751     2.0163082315     0.2005280923
   42      H     -12.8088553261     3.6866376054    -0.2562211527
   43      C     -14.4235375152     3.7777644591     1.0083943323
   44      H     -14.8972194469     3.1810785406     1.7976099823
   45      C     -15.5380795970     3.9835744545    -0.0692281404
   46      H     -14.0220307479     4.7561128003     1.2973802130
   47      H     -15.7660945193     3.0189134525    -0.5381090918
   48      H     -15.1931876350     4.6284084423    -0.8876996809
   49      C     -16.8222113981     4.6833388851     0.5461556903
   50      H     -16.4830693586     5.6634194174     0.9043704685
   51      C     -17.3999596957     3.9034980846     1.7137276283
   52      H     -17.5145716944     4.8847259253    -0.2814568279
   53      H     -17.7048198578     2.8924789800     1.4167383156
   54      H     -18.3680355071     4.3805110756     1.9101909325
   55      H     -16.7441316776     4.0484381391     2.5808867782
   56      C       9.2199156678     5.3261951006     0.5634694701
   57      C       8.1482762138     5.1796236361    -0.3351092335
   58      N       9.2970029679     4.6533654566     1.7389756667
   59      C       7.2563152984     4.1158615249    -0.1218350059
   60      C       8.3701792684     3.6532291317     1.9407457380
   61      C       7.3245436290     3.3980705838     1.0854988584
   62      C       6.4969820593     2.1609307314     1.2408431016
   63      C       5.9913349036     1.5390084422     0.0440558940
   64      C       6.0893310946     1.5824842194     2.4496004485
   65      N       5.3035289247     0.3934588452     0.0070551348
   66      N       6.4317469673     2.0586082066     3.6448373785
   67      C       5.5071633246     0.3905154012     2.3896252529
   68      C       5.1180770738    -0.2200786729     1.1579922856
   69      S       5.8954554762     0.8719131234     4.6728316470
   70      N       5.2478206303    -0.1616646026     3.6227901284
   71      C       4.4615622976    -1.5665814047     1.0609523869
   72      S       4.7003454349    -2.9038449754     2.2258278119
   73      C       3.7476882930    -2.0635878266    -0.0270708307
   74      C       3.7651252491    -4.0604828999     1.3260123222
   75      S       3.1506505064    -1.2391844177    -1.4264159993
   76      C       3.3440596335    -3.4368407746     0.1475895429
   77      C       3.3092160158    -5.3203543340     1.8896307576
   78      C       2.3504909818    -2.7841483580    -1.8726683475
   79      C       2.6021000343    -3.8228810982    -1.0063709511
   80      N       2.3003180769    -5.9020304374     1.2698018621
   81      S       3.6766258888    -5.8799911555     3.4850312130
   82      C       1.7852341325    -6.9325303098     2.0767185513
   83      C       2.5412083291    -7.1476338153     3.2372126254
   84      C      10.2593419547     6.4240954596     0.3422867498
   85      H       8.0721389153     5.8865212513    -1.1559191222
   86      H       6.3751069237     3.9969404925    -0.7441376561
   87      H       8.6469042107     2.9483670829     2.7235233555
   88      H       6.1968728998     1.9907257392    -0.9247034237
   89      H       1.8473336040    -2.9659777234    -2.8135082569
   90      H       2.1595766706    -4.7979805997    -1.1756902790
   91      H       0.9521127711    -7.5129671971     1.7039990631
   92      H       2.4207505215    -7.8713995221     4.0333885596
   93      H       9.8335734603     7.4303902131     0.4420567763
   94      C      11.0130101492     6.2982218466    -1.0059024381
   95      H      10.9681585215     6.4147451179     1.1797022056
   96      H      11.9587527344     6.8278549191    -0.8345642607
   97      H      10.4168787870     6.8527953982    -1.7416385150
   98      C      11.3201183593     4.8300534673    -1.4375737915
   99      H      11.8314133259     4.2966021324    -0.6267734891
  100      C      12.3445634071     4.8274560658    -2.5488476540
  101      H      10.4360218063     4.2145413101    -1.6434452791
  102      H      13.2116486410     5.4120078442    -2.2173534377
  103      H      11.9452031048     5.3580120587    -3.4222837921
  104      C      12.8074080960     3.4437788121    -2.9184190971
  105      H      13.3719786300     3.0144179152    -2.0821061579
  106      C      13.7337420637     3.6117272636    -4.1783749289
  107      H      11.9537868026     2.7899743314    -3.1394878384
  108      H      14.7062539861     4.0645157711    -3.9488446952
  109      H      13.3198562833     4.2429413034    -4.9748957364
  110      H      13.7209758995     2.6356352709    -4.6786772842
 ----------------------------------------------------------------

   11   -5663.4904436095      6.42E-06 Convergence criterion met
 Total energy in the final basis set = -5663.4904436095

                    Orbital Energies (a.u.)
 --------------------------------------------------------------

 Alpha MOs
 -- Occupied --
-88.991 -88.990 -88.927 -88.925 -88.917 -88.917 -88.907 -88.907
-14.391 -14.383 -14.381 -14.377 -14.348 -14.344 -14.343 -14.334
-14.330 -14.321 -10.267 -10.262 -10.256 -10.255 -10.254 -10.250
-10.249 -10.246 -10.239 -10.237 -10.237 -10.237 -10.236 -10.234
-10.232 -10.230 -10.229 -10.229 -10.228 -10.227 -10.227 -10.226
-10.226 -10.225 -10.224 -10.223 -10.221 -10.220 -10.214 -10.212
-10.211 -10.207 -10.204 -10.202 -10.201 -10.198 -10.189 -10.187
-10.184 -10.183 -10.182 -10.181 -10.181 -10.180 -10.179 -10.177
-10.174 -10.173 -10.171 -10.168  -8.046  -8.046  -7.989  -7.987
 -7.977  -7.976  -7.967  -7.966  -6.011  -6.011  -6.005  -6.005
 -6.004  -6.004  -5.953  -5.950  -5.949  -5.947  -5.946  -5.943
 -5.941  -5.941  -5.937  -5.937  -5.933  -5.933  -5.931  -5.931
 -5.928  -5.927  -5.923  -5.922  -1.046  -1.027  -0.977  -0.968
 -0.965  -0.965  -0.940  -0.930  -0.908  -0.907  -0.899  -0.888
 -0.837  -0.836  -0.836  -0.826  -0.813  -0.813  -0.812  -0.811
 -0.810  -0.807  -0.798  -0.790  -0.785  -0.784  -0.768  -0.762
 -0.749  -0.745  -0.737  -0.736  -0.718  -0.713  -0.710  -0.708
 -0.692  -0.690  -0.675  -0.673  -0.658  -0.653  -0.648  -0.639
 -0.635  -0.633  -0.624  -0.622  -0.610  -0.609  -0.598  -0.595
 -0.592  -0.589  -0.582  -0.579  -0.576  -0.571  -0.569  -0.561
 -0.549  -0.547  -0.540  -0.536  -0.521  -0.520  -0.509  -0.508
 -0.505  -0.503  -0.499  -0.496  -0.488  -0.485  -0.482  -0.478
 -0.474  -0.470  -0.468  -0.466  -0.465  -0.463  -0.453  -0.446
 -0.443  -0.440  -0.436  -0.435  -0.434  -0.433  -0.429  -0.429
 -0.428  -0.426  -0.424  -0.419  -0.416  -0.415  -0.412  -0.410
 -0.409  -0.408  -0.403  -0.398  -0.397  -0.396  -0.395  -0.395
 -0.393  -0.392  -0.389  -0.389  -0.388  -0.384  -0.384  -0.383
 -0.379  -0.377  -0.375  -0.374  -0.366  -0.363  -0.361  -0.355
 -0.352  -0.351  -0.349  -0.345  -0.345  -0.343  -0.340  -0.339
 -0.337  -0.335  -0.331  -0.331  -0.329  -0.329  -0.326  -0.326
 -0.315  -0.313  -0.306  -0.304  -0.303  -0.303  -0.301  -0.300
 -0.297  -0.293  -0.290  -0.288  -0.286  -0.285  -0.281  -0.281
 -0.277  -0.274  -0.266  -0.264  -0.252  -0.251  -0.248  -0.239
 -0.238  -0.237  -0.226  -0.223  -0.190  -0.188

          Ground-State Mulliken Net Atomic Charges

     Atom                 Charge (a.u.)
  ----------------------------------------
      1 C                     0.280102
      2 C                    -0.112467
      3 N                    -0.489386
      4 C                    -0.069840
      5 C                     0.101360
      6 C                     0.000138
      7 C                     0.039674
      8 C                     0.051665
      9 C                     0.214286
     10 N                    -0.480054
     11 N                    -0.563910
     12 C                     0.228659
     13 C                     0.249691
     14 S                     0.618124
     15 N                    -0.559987
     16 C                    -0.216347
     17 S                     0.317171
     18 C                    -0.094814
     19 C                    -0.239867
     20 S                     0.269051
     21 C                     0.153860
     22 C                     0.073789
     23 C                    -0.306832
     24 C                    -0.043301
     25 N                    -0.438734
     26 S                     0.289947
     27 C                     0.113471
     28 C                    -0.320313
     29 C                    -0.229286
     30 H                     0.093230
     31 H                     0.097483
     32 H                     0.122414
     33 H                     0.104357
     34 H                     0.128018
     35 H                     0.121240
     36 H                     0.115661
     37 H                     0.129157
     38 H                     0.115224
     39 C                    -0.183015
     40 H                     0.120479
     41 H                     0.095262
     42 H                     0.098199
     43 C                    -0.178757
     44 H                     0.098710
     45 C                    -0.179161
     46 H                     0.091817
     47 H                     0.085716
     48 H                     0.084378
     49 C                    -0.180182
     50 H                     0.093813
     51 C                    -0.312222
     52 H                     0.090141
     53 H                     0.105089
     54 H                     0.098697
     55 H                     0.115764
     56 C                     0.271710
     57 C                    -0.107059
     58 N                    -0.481836
     59 C                    -0.096619
     60 C                     0.072574
     61 C                     0.063096
     62 C                     0.008291
     63 C                     0.055077
     64 C                     0.264387
     65 N                    -0.513980
     66 N                    -0.559419
     67 C                     0.184705
     68 C                     0.297453
     69 S                     0.607814
     70 N                    -0.529861
     71 C                    -0.224189
     72 S                     0.298028
     73 C                    -0.109010
     74 C                    -0.239994
     75 S                     0.278909
     76 C                     0.161471
     77 C                     0.078363
     78 C                    -0.311021
     79 C                    -0.063410
     80 N                    -0.434601
     81 S                     0.283908
     82 C                     0.107469
     83 C                    -0.309566
     84 C                    -0.246297
     85 H                     0.095725
     86 H                     0.107065
     87 H                     0.116169
     88 H                     0.105984
     89 H                     0.129914
     90 H                     0.125390
     91 H                     0.113780
     92 H                     0.136157
     93 H                     0.106471
     94 C                    -0.186089
     95 H                     0.117896
     96 H                     0.100300
     97 H                     0.092316
     98 C                    -0.177507
     99 H                     0.098162
    100 C                    -0.159420
    101 H                     0.095999
    102 H                     0.088291
    103 H                     0.086198
    104 C                    -0.179287
    105 H                     0.098084
    106 C                    -0.323354
    107 H                     0.093821
    108 H                     0.106868
    109 H                     0.100481
    110 H                     0.096833
  ----------------------------------------
  Sum of atomic charges =     0.000000

                    Cartesian Multipole Moments
 -----------------------------------------------------------------
    Charge (ESU x 10^10)
                 0.0000
    Dipole Moment (Debye)
         X      -1.8428      Y      -1.8430      Z      -0.9438
       Tot       2.7719
    Quadrupole Moments (Debye-Ang)
        XX    -424.1600     XY      -2.3885     YY    -406.5893
        XZ       0.4605     YZ     -21.8568     ZZ    -431.1164

 Total job time:  104.28s(wall), 1134.77s(cpu)
        *  Thank you very much for using Q-Chem.  Have a nice day.  *
