 Q-Chem 4.4, Q-Chem, Inc., Pleasanton, CA (2016)
 Q-Chem 4.4.2 for Intel X86 Linux

User input:
--------------------------------------------------------------
$comment
SP
$end

$rem
MEM_STATIC 5000
MEM_TOTAL 20000
JOBTYPE SP
EXCHANGE B3LYP
BASIS 6-31g(d,p)
$end

$molecule
0 1
C         -13.065000      0.646000     -0.762000
C         -11.884000      1.346000     -1.157000
N         -13.003000     -0.399000      0.085000
C         -10.633000      0.901000     -0.644000
C         -11.779000     -0.788000      0.626000
C         -10.570000     -0.213000      0.210000
C          -9.372000     -0.888000      0.761000
C          -9.290000     -1.359000      2.108000
C          -8.264000     -1.194000     -0.057000
N          -8.280000     -2.192000      2.533000
N          -8.108000     -0.773000     -1.349000
C          -7.231000     -2.006000      0.395000
C          -7.302000     -2.603000      1.663000
S          -6.653000     -1.291000     -1.795000
N          -6.266000     -2.131000     -0.442000
C          -6.364000     -3.645000      2.117000
S          -4.815000     -4.090000      1.372000
C          -6.524000     -4.390000      3.241000
C          -4.475000     -5.299000      2.488000
S          -7.880000     -4.631000      4.320000
C          -5.459000     -5.280000      3.424000
C          -3.386000     -6.250000      2.342000
C          -6.986000     -6.019000      5.061000
C          -5.779000     -6.200000      4.485000
N          -3.725000     -7.481000      2.573000
S          -1.841000     -5.947000      1.587000
C          -2.635000     -8.262000      2.474000
C          -1.525000     -7.688000      1.954000
C         -14.473000      0.958000     -1.232000
H         -11.912000      2.150000     -1.886000
H          -9.688000      1.345000     -0.942000
H         -11.865000     -1.729000      1.167000
H         -10.016000     -1.034000      2.852000
H          -7.500000     -6.627000      5.794000
H          -5.191000     -7.095000      4.650000
H          -2.731000     -9.324000      2.657000
H          -0.519000     -8.072000      1.853000
H         -14.620000      0.687000     -2.285000
C         -14.930000      2.373000     -0.821000
H         -15.177000      0.269000     -0.748000
H         -14.608000      3.071000     -1.604000
H         -14.503000      2.732000      0.123000
C         -16.475000      2.459000     -0.663000
H         -16.958000      2.138000     -1.594000
C         -16.902000      3.922000     -0.311000
H         -16.955000      1.803000      0.073000
H         -16.203000      4.644000     -0.751000
H         -16.835000      4.059000      0.776000
C         -18.335000      4.259000     -0.801000
H         -18.399000      5.341000     -0.637000
C         -19.454000      3.612000      0.045000
H         -18.442000      4.082000     -1.878000
H         -19.414000      3.905000      1.101000
H         -19.390000      2.518000     -0.012000
H         -20.399000      4.035000     -0.318000
C         -12.540000      7.085000     -2.972000
C         -12.487000      6.662000     -1.632000
N         -11.444000      7.160000     -3.768000
C         -11.300000      6.061000     -1.182000
C         -10.281000      6.611000     -3.272000
C         -10.154000      6.118000     -1.995000
C          -8.944000      5.332000     -1.598000
C          -9.123000      4.258000     -0.655000
C          -7.624000      5.587000     -1.991000
N          -8.162000      3.418000     -0.258000
N          -7.281000      6.569000     -2.822000
C          -6.708000      4.678000     -1.678000
C          -6.977000      3.574000     -0.812000
S          -5.680000      6.249000     -3.117000
N          -5.464000      4.942000     -2.203000
C          -5.962000      2.531000     -0.444000
S          -4.595000      2.027000     -1.483000
C          -6.029000      1.655000      0.637000
C          -4.063000      0.751000     -0.429000
S          -7.082000      1.673000      2.010000
C          -4.954000      0.694000      0.647000
C          -2.768000      0.104000     -0.560000
C          -6.112000      0.302000      2.647000
C          -5.110000     -0.122000      1.805000
N          -2.328000     -0.535000      0.507000
S          -1.611000      0.450000     -1.799000
C          -0.968000     -0.851000      0.337000
C          -0.487000     -0.527000     -0.939000
C         -13.828000      7.684000     -3.535000
H         -13.370000      6.808000     -1.017000
H         -11.181000      5.778000     -0.141000
H          -9.529000      6.411000     -4.034000
H         -10.111000      4.065000     -0.241000
H          -6.365000     -0.272000      3.529000
H          -4.457000     -0.937000      2.096000
H          -0.459000     -1.385000      1.128000
H           0.492000     -0.666000     -1.380000
H         -14.089000      8.638000     -3.060000
C         -15.036000      6.715000     -3.478000
H         -13.646000      8.009000     -4.567000
H         -15.708000      7.078000     -4.266000
H         -15.508000      6.873000     -2.500000
C         -14.678000      5.222000     -3.759000
H         -14.124000      5.137000     -4.702000
C         -15.940000      4.436000     -4.031000
H         -14.014000      4.759000     -3.019000
H         -16.496000      4.945000     -4.828000
H         -16.592000      4.465000     -3.149000
C         -15.669000      3.019000     -4.460000
H         -15.183000      3.024000     -5.443000
C         -17.070000      2.309000     -4.543000
H         -15.010000      2.511000     -3.744000
H         -17.676000      2.636000     -5.397000
H         -17.719000      2.465000     -3.672000
H         -16.858000      1.238000     -4.437000
$end

--------------------------------------------------------------

             Standard Nuclear Orientation (Angstroms)
    I     Atom           X                Y                Z
 ----------------------------------------------------------------
    1      C       3.5675746252    -3.0647935650     0.6441572143
    2      C       3.2638016456    -1.6689418359     0.6338651223
    3      N       2.6241905750    -3.9834563370     0.3624423846
    4      C       1.9306628076    -1.2711742704     0.3326728208
    5      C       1.3375664610    -3.5786142300     0.0119010069
    6      C       0.9413622223    -2.2353821513     0.0760242004
    7      C      -0.5082456430    -2.0333631402    -0.1525701044
    8      C      -1.2514194999    -2.7503804508    -1.1407769627
    9      C      -1.2663443639    -1.1767768490     0.6732447992
   10      N      -2.6272504991    -2.7335398681    -1.1784526365
   11      N      -0.7428081481    -0.3470888828     1.6263285886
   12      C      -2.6535025463    -1.1403046896     0.6011409958
   13      C      -3.3418172864    -2.0146824929    -0.2538211529
   14      S      -1.9924507365     0.4827029425     2.2043458271
   15      N      -3.1892440901    -0.2606134708     1.3670021829
   16      C      -4.8046105329    -2.1901725131    -0.2197158632
   17      S      -5.9903347675    -1.1440269550     0.5878041124
   18      C      -5.4794339393    -3.1689206796    -0.8759676417
   19      C      -7.3154792513    -2.0702192482     0.1307516723
   20      S      -4.9592391860    -4.6350926477    -1.6764644740
   21      C      -6.8608836299    -3.0651076702    -0.6743898363
   22      C      -8.6574565953    -1.8726429157     0.6519986397
   23      C      -6.6895205991    -5.1614652145    -1.7390676081
   24      C      -7.5110537222    -4.2427519632    -1.1891264391
   25      N      -9.2486973125    -2.9681315337     1.0180342968
   26      S      -9.3694061189    -0.3512727892     1.1288841753
   27      C     -10.4986140437    -2.6785998851     1.4202053915
   28      C     -10.7936631941    -1.3674739110     1.5810490387
   29      C       4.9188529622    -3.6701073906     0.9733228694
   30      H       3.9976818611    -0.9213325516     0.9187180446
   31      H       1.6097247151    -0.2342768024     0.3610872827
   32      H       0.6548852511    -4.4253133316    -0.0391381649
   33      H      -0.7368786951    -3.3059832665    -1.9235861804
   34      H      -6.9091634316    -6.1591120839    -2.0962884784
   35      H      -8.5447703640    -4.4639905554    -0.9514767182
   36      H     -11.1463472217    -3.4827690440     1.7431646677
   37      H     -11.7337470940    -0.8832225458     1.8078438279
   38      H       5.1599764187    -3.5720705023     2.0392061872
   39      C       6.0166055161    -3.2318789691    -0.0180853114
   40      H       4.8581390434    -4.7621224384     0.8816170596
   41      H       6.4461335630    -2.2916403908     0.3499283741
   42      H       5.6591187662    -3.0430179941    -1.0373403118
   43      C       7.1443721488    -4.2961229444    -0.1402007614
   44      H       7.5624596129    -4.5039955142     0.8523126477
   45      C       8.2674578989    -3.7860135219    -1.1020057183
   46      H       6.8691931048    -5.3018778246    -0.4795613582
   47      H       8.3397325899    -2.6920130055    -1.0642666247
   48      H       7.9906491517    -4.0360756771    -2.1343200289
   49      C       9.6582708342    -4.3856243654    -0.7654582248
   50      H      10.3342343561    -3.8011494276    -1.4004215025
   51      C       9.8200069226    -5.8641305372    -1.1830069498
   52      H       9.9361514307    -4.1919820403     0.2776103367
   53      H       9.6693197552    -6.0228967726    -2.2575634444
   54      H       9.1056295144    -6.4939242600    -0.6378411168
   55      H      10.8743096261    -6.1181548113    -1.0167526945
   56      C       7.8540419434     2.1594994883    -0.3322679096
   57      C       7.1639363719     1.4554403018    -1.3349607649
   58      N       7.3366580016     3.2417422263     0.3013893423
   59      C       5.7977710083     1.7324208919    -1.5068443073
   60      C       6.0071316276     3.5189812005     0.0658385580
   61      C       5.2378027099     2.8436421520    -0.8517436922
   62      C       3.7545331979     3.0377818054    -0.8932930579
   63      C       2.9399191626     1.9010617249    -1.2383110747
   64      C       3.0710398697     4.2463131062    -0.7084607949
   65      N       1.6033044395     1.8896126864    -1.2460571475
   66      N       3.6768996419     5.3980570494    -0.4274735609
   67      C       1.7481275031     4.1897351625    -0.6084217697
   68      C       1.0022039958     2.9991923953    -0.8679194395
   69      S       2.4017208845     6.4006888407    -0.0792284926
   70      N       1.1634662025     5.3981969130    -0.3073431068
   71      C      -0.4921732288     2.9063584852    -0.7596763068
   72      S      -1.4980035987     3.8934533430     0.3431269434
   73      C      -1.3039300982     1.9236642458    -1.3216272093
   74      C      -2.9862930307     3.0787273953    -0.0354654450
   75      S      -0.9261825112     0.7266620724    -2.5127420473
   76      C      -2.6870780477     2.0502891912    -0.9341818933
   77      C      -4.2916844813     3.6055919236     0.3266974047
   78      C      -2.6708623579     0.3000181069    -2.4933214582
   79      C      -3.4190419952     1.0172767121    -1.5886053017
   80      N      -5.3185199704     3.1270257208    -0.3493153672
   81      S      -4.5557640426     5.0578177884     1.2293534981
   82      C      -6.4526586082     3.9223122309    -0.1051741845
   83      C      -6.2299461478     4.9084673768     0.8656039509
   84      C       9.3247856359     1.8515739365    -0.0551238215
   85      H       7.7175174599     0.7237271480    -1.9157996751
   86      H       5.2337929125     1.2679464447    -2.3094171671
   87      H       5.5571553436     4.1781047932     0.8069360100
   88      H       3.4155505768     0.9529052402    -1.4823664745
   89      H      -3.1014063363    -0.5489769988    -3.0083439754
   90      H      -4.4862033459     0.8471052882    -1.5018681243
   91      H      -7.3840817751     3.6550894332    -0.5857580593
   92      H      -6.8989733562     5.6493598209     1.2847983934
   93      H       9.9735936832     2.1097058127    -0.9014559386
   94      C       9.5774525208     0.3856306662     0.3792075881
   95      H       9.6943192962     2.5466350616     0.7091457031
   96      H      10.5191420326     0.4311715488     0.9408515068
   97      H       9.7358572025    -0.1835847976    -0.5455268130
   98      C       8.4650908951    -0.2160071658     1.2940067643
   99      H       8.2828273398     0.4436018629     2.1513782857
  100      C       8.9664125742    -1.4870907975     1.9401081306
  101      H       7.4804978591    -0.3135669811     0.8208010628
  102      H       9.9179864473    -1.2659516293     2.4391378214
  103      H       9.2022755084    -2.2281574530     1.1661198307
  104      C       8.0073943689    -2.0482310182     2.9553798846
  105      H       7.9422699432    -1.3642299999     3.8100209884
  106      C       8.6024020603    -3.4333583936     3.4039085918
  107      H       7.0052024892    -2.1693169224     2.5241599407
  108      H       9.4928041863    -3.3419789135     4.0381915292
  109      H       8.9187260753    -4.0879287957     2.5819264106
  110      H       7.7480839740    -4.0041664878     3.7880175955
 ----------------------------------------------------------------

   10   -5663.5102712286      4.28E-06 Convergence criterion met
 Total energy in the final basis set = -5663.5102712286

                    Orbital Energies (a.u.)
 --------------------------------------------------------------

 Alpha MOs
 -- Occupied --
-88.994 -88.980 -88.931 -88.929 -88.922 -88.917 -88.911 -88.900
-14.395 -14.385 -14.373 -14.368 -14.354 -14.346 -14.344 -14.342
-14.333 -14.321 -10.271 -10.269 -10.267 -10.255 -10.254 -10.251
-10.245 -10.243 -10.242 -10.242 -10.237 -10.237 -10.237 -10.234
-10.233 -10.233 -10.232 -10.232 -10.229 -10.228 -10.227 -10.227
-10.225 -10.220 -10.220 -10.217 -10.217 -10.216 -10.215 -10.215
-10.211 -10.208 -10.206 -10.206 -10.201 -10.199 -10.190 -10.187
-10.187 -10.184 -10.184 -10.181 -10.179 -10.179 -10.177 -10.177
-10.177 -10.174 -10.174 -10.170  -8.050  -8.035  -7.991  -7.991
 -7.982  -7.977  -7.970  -7.960  -6.015  -6.009  -6.008  -6.001
 -5.995  -5.993  -5.955  -5.955  -5.952  -5.951  -5.948  -5.948
 -5.946  -5.942  -5.941  -5.939  -5.937  -5.935  -5.934  -5.931
 -5.926  -5.924  -5.921  -5.916  -1.050  -1.040  -0.986  -0.974
 -0.967  -0.941  -0.934  -0.921  -0.914  -0.912  -0.905  -0.902
 -0.842  -0.841  -0.840  -0.827  -0.817  -0.813  -0.811  -0.804
 -0.802  -0.799  -0.795  -0.790  -0.787  -0.776  -0.765  -0.765
 -0.749  -0.748  -0.740  -0.734  -0.721  -0.718  -0.712  -0.706
 -0.696  -0.690  -0.677  -0.670  -0.657  -0.652  -0.650  -0.640
 -0.637  -0.633  -0.628  -0.622  -0.614  -0.610  -0.601  -0.596
 -0.594  -0.589  -0.579  -0.579  -0.575  -0.574  -0.572  -0.565
 -0.551  -0.550  -0.545  -0.531  -0.524  -0.520  -0.513  -0.512
 -0.507  -0.503  -0.498  -0.496  -0.490  -0.484  -0.481  -0.479
 -0.474  -0.473  -0.468  -0.468  -0.463  -0.456  -0.448  -0.447
 -0.444  -0.443  -0.440  -0.437  -0.435  -0.433  -0.432  -0.431
 -0.429  -0.427  -0.423  -0.421  -0.420  -0.417  -0.415  -0.414
 -0.413  -0.411  -0.400  -0.399  -0.399  -0.397  -0.397  -0.395
 -0.393  -0.391  -0.389  -0.387  -0.385  -0.384  -0.382  -0.381
 -0.378  -0.377  -0.377  -0.373  -0.366  -0.365  -0.356  -0.355
 -0.354  -0.353  -0.350  -0.345  -0.344  -0.342  -0.341  -0.339
 -0.337  -0.335  -0.334  -0.333  -0.329  -0.327  -0.323  -0.322
 -0.318  -0.316  -0.313  -0.307  -0.305  -0.303  -0.300  -0.297
 -0.296  -0.293  -0.290  -0.289  -0.287  -0.285  -0.284  -0.282
 -0.273  -0.270  -0.266  -0.259  -0.256  -0.253  -0.252  -0.243
 -0.242  -0.240  -0.232  -0.227  -0.197  -0.190

          Ground-State Mulliken Net Atomic Charges

     Atom                 Charge (a.u.)
  ----------------------------------------
      1 C                     0.275441
      2 C                    -0.137667
      3 N                    -0.486861
      4 C                    -0.061645
      5 C                     0.048168
      6 C                     0.041820
      7 C                     0.023637
      8 C                     0.053672
      9 C                     0.227355
     10 N                    -0.539947
     11 N                    -0.554096
     12 C                     0.270536
     13 C                     0.311780
     14 S                     0.601505
     15 N                    -0.589243
     16 C                    -0.239292
     17 S                     0.322209
     18 C                    -0.094094
     19 C                    -0.203339
     20 S                     0.258349
     21 C                     0.128427
     22 C                     0.031927
     23 C                    -0.314205
     24 C                    -0.040905
     25 N                    -0.391663
     26 S                     0.258516
     27 C                     0.133401
     28 C                    -0.305769
     29 C                    -0.245426
     30 H                     0.094988
     31 H                     0.129735
     32 H                     0.113836
     33 H                     0.121387
     34 H                     0.127725
     35 H                     0.113160
     36 H                     0.112809
     37 H                     0.133692
     38 H                     0.112492
     39 C                    -0.187960
     40 H                     0.125563
     41 H                     0.105777
     42 H                     0.102145
     43 C                    -0.186803
     44 H                     0.097381
     45 C                    -0.184586
     46 H                     0.100565
     47 H                     0.088110
     48 H                     0.090266
     49 C                    -0.186196
     50 H                     0.087217
     51 C                    -0.318233
     52 H                     0.102504
     53 H                     0.103726
     54 H                     0.106872
     55 H                     0.102476
     56 C                     0.271724
     57 C                    -0.108283
     58 N                    -0.480693
     59 C                    -0.098620
     60 C                     0.071954
     61 C                     0.063000
     62 C                     0.008969
     63 C                     0.049624
     64 C                     0.264633
     65 N                    -0.518677
     66 N                    -0.557374
     67 C                     0.183850
     68 C                     0.295570
     69 S                     0.610518
     70 N                    -0.528279
     71 C                    -0.220246
     72 S                     0.291994
     73 C                    -0.114878
     74 C                    -0.243315
     75 S                     0.275827
     76 C                     0.161993
     77 C                     0.080650
     78 C                    -0.306097
     79 C                    -0.078618
     80 N                    -0.429014
     81 S                     0.281887
     82 C                     0.108804
     83 C                    -0.308909
     84 C                    -0.246579
     85 H                     0.098244
     86 H                     0.108876
     87 H                     0.116680
     88 H                     0.111084
     89 H                     0.140597
     90 H                     0.136645
     91 H                     0.119542
     92 H                     0.136908
     93 H                     0.107649
     94 C                    -0.189737
     95 H                     0.118734
     96 H                     0.101985
     97 H                     0.095906
     98 C                    -0.183736
     99 H                     0.098253
    100 C                    -0.169522
    101 H                     0.097829
    102 H                     0.087726
    103 H                     0.101759
    104 C                    -0.187051
    105 H                     0.098444
    106 C                    -0.328589
    107 H                     0.097656
    108 H                     0.105451
    109 H                     0.108132
    110 H                     0.097885
  ----------------------------------------
  Sum of atomic charges =     0.000000

                    Cartesian Multipole Moments
 -----------------------------------------------------------------
    Charge (ESU x 10^10)
                 0.0000
    Dipole Moment (Debye)
         X      -2.1887      Y       2.6094      Z       0.5539
       Tot       3.4505
    Quadrupole Moments (Debye-Ang)
        XX    -375.6236     XY     -19.1284     YY    -442.4263
        XZ     -17.0267     YZ      11.0608     ZZ    -445.7178

 Total job time:  112.92s(wall), 1247.42s(cpu)
        *  Thank you very much for using Q-Chem.  Have a nice day.  *
