 Q-Chem 4.4, Q-Chem, Inc., Pleasanton, CA (2016)
 Q-Chem 4.4.2 for Intel X86 Linux

User input:
--------------------------------------------------------------
$comment
SP
$end

$rem
MEM_STATIC 5000
MEM_TOTAL 20000
JOBTYPE SP
EXCHANGE B3LYP
BASIS 6-31g(d,p)
$end

$molecule
0 1
C         -13.965000    -15.780000    -14.772000
C         -13.395000    -16.508000    -13.734000
N         -14.916000    -14.868000    -14.508000
C         -13.715000    -16.174000    -12.395000
C         -15.234000    -14.565000    -13.248000
C         -14.725000    -15.254000    -12.144000
C         -15.193000    -14.940000    -10.731000
C         -15.283000    -15.994000     -9.742000
C         -15.384000    -13.654000    -10.227000
N         -15.516000    -15.814000     -8.459000
N         -15.167000    -12.455000    -10.831000
C         -15.868000    -13.496000     -8.911000
C         -16.005000    -14.621000     -8.058000
S         -15.473000    -11.269000     -9.706000
N         -15.918000    -12.199000     -8.464000
C         -16.423000    -14.535000     -6.695000
S         -15.788000    -15.654000     -5.468000
C         -17.257000    -13.562000     -6.163000
C         -16.555000    -14.753000     -4.234000
S         -18.333000    -12.406000     -6.826000
C         -17.385000    -13.783000     -4.789000
C         -16.468000    -15.141000     -2.800000
C         -18.803000    -11.926000     -5.142000
C         -18.265000    -12.819000     -4.263000
N         -15.386000    -15.842000     -2.415000
S         -17.535000    -14.649000     -1.537000
C         -15.412000    -16.138000     -1.094000
C         -16.530000    -15.642000     -0.409000
C         -13.627000    -16.084000    -16.194000
H         -12.534000    -17.141000    -13.924000
H         -13.229000    -16.726000    -11.595000
H         -15.935000    -13.758000    -13.038000
H         -15.034000    -17.016000    -10.024000
H         -19.554000    -11.167000     -4.970000
H         -18.448000    -12.761000     -3.196000
H         -14.583000    -16.666000     -0.641000
H         -16.896000    -15.647000      0.609000
H         -13.061000    -17.007000    -16.368000
C         -12.703000    -14.949000    -16.761000
H         -14.584000    -16.094000    -16.731000
H         -11.987000    -14.607000    -16.004000
H         -13.335000    -14.052000    -16.749000
C         -12.107000    -15.196000    -18.110000
H         -12.924000    -15.337000    -18.829000
C         -11.115000    -16.377000    -18.254000
H         -11.587000    -14.322000    -18.522000
H         -10.735000    -16.495000    -19.277000
H         -11.595000    -17.361000    -18.177000
C          -9.942000    -16.232000    -17.246000
H         -10.226000    -16.120000    -16.193000
C          -8.964000    -15.092000    -17.579000
H          -9.363000    -17.164000    -17.245000
H          -8.081000    -15.058000    -16.930000
H          -9.460000    -14.144000    -17.336000
H          -8.610000    -15.133000    -18.616000
C          -6.858000    -19.016000     -6.184000
C          -6.642000    -17.786000     -5.521000
N          -7.833000    -19.851000     -5.773000
C          -7.563000    -17.423000     -4.450000
C          -8.687000    -19.511000     -4.723000
C          -8.585000    -18.248000     -3.992000
C          -9.476000    -17.936000     -2.799000
C          -9.106000    -17.140000     -1.685000
C         -10.828000    -18.382000     -2.676000
N          -9.733000    -17.145000     -0.523000
N         -11.466000    -18.870000     -3.716000
C         -11.589000    -18.219000     -1.525000
C         -10.941000    -17.734000     -0.364000
S         -13.023000    -19.099000     -3.260000
N         -12.846000    -18.725000     -1.662000
C         -11.633000    -17.569000      0.918000
S         -13.250000    -18.144000      1.375000
C         -11.160000    -16.893000      2.046000
C         -13.229000    -17.525000      2.981000
S          -9.700000    -15.867000      2.181000
C         -12.072000    -16.814000      3.133000
C         -14.300000    -17.554000      4.018000
C         -10.347000    -15.344000      3.802000
C         -11.577000    -15.964000      4.120000
N         -15.489000    -17.843000      3.554000
S         -14.005000    -17.458000      5.726000
C         -16.461000    -17.935000      4.556000
C         -15.837000    -17.682000      5.777000
C          -5.973000    -19.290000     -7.416000
H          -5.901000    -17.058000     -5.835000
H          -7.583000    -16.453000     -3.961000
H          -9.403000    -20.304000     -4.514000
H          -8.145000    -16.628000     -1.700000
H          -9.881000    -14.514000      4.316000
H         -12.286000    -15.601000      4.856000
H         -17.513000    -18.184000      4.508000
H         -16.310000    -17.640000      6.749000
H          -6.687000    -19.333000     -8.247000
C          -4.912000    -20.541000     -7.319000
H          -5.408000    -18.371000     -7.613000
H          -4.140000    -20.298000     -6.578000
H          -4.224000    -20.509000     -8.173000
C          -5.495000    -21.927000     -7.036000
H          -4.769000    -22.711000     -6.790000
C          -6.184000    -22.410000     -8.358000
H          -6.277000    -21.861000     -6.270000
H          -5.382000    -22.345000     -9.104000
H          -6.925000    -21.684000     -8.714000
C          -6.898000    -23.822000     -8.254000
H          -6.999000    -24.234000     -9.266000
C          -8.285000    -23.597000     -7.673000
H          -6.386000    -24.615000     -7.694000
H          -8.261000    -23.681000     -6.579000
H          -8.931000    -24.450000     -7.915000
H          -8.845000    -22.720000     -8.018000
$end

--------------------------------------------------------------

             Standard Nuclear Orientation (Angstroms)
    I     Atom           X                Y                Z
 ----------------------------------------------------------------
    1      C       9.5004797164    -1.0174653337     0.9074161448
    2      C       8.4110382964    -0.1751038047     1.0968163742
    3      N       9.3028975121    -2.3215607515     0.6502441907
    4      C       7.1035239500    -0.6697904494     0.8675384695
    5      C       8.0709793697    -2.7949186139     0.4531578530
    6      C       6.9181359505    -2.0270731111     0.6375035463
    7      C       5.5312144496    -2.6366011966     0.4992528203
    8      C       4.4414254431    -2.1635313352     1.3273239692
    9      C       5.1512700052    -3.5206949526    -0.5098623614
   10      N       3.1767350566    -2.4990061549     1.1831266337
   11      N       5.8755838949    -3.9803138509    -1.5651470896
   12      C       3.8451019027    -4.0544704350    -0.5006633272
   13      C       2.8824167348    -3.5770410549     0.4252424210
   14      S       4.8650545175    -4.9255758356    -2.4877342984
   15      N       3.5265872321    -4.8251605288    -1.5911234062
   16      C       1.5241216754    -4.0176550232     0.4532221009
   17      S       0.2099125448    -2.9119190130     0.9126970588
   18      C       1.0689451325    -5.2665435872     0.0552262851
   19      C      -0.9489745873    -4.0882594726     0.4699220164
   20      S       1.8143133923    -6.7789253841    -0.2461181319
   21      C      -0.3229693061    -5.2965667700     0.1767738236
   22      C      -2.4114343496    -3.8489555119     0.6056204251
   23      C       0.1740567742    -7.4904235113    -0.5469247836
   24      C      -0.7742501443    -6.5786664813    -0.1878327248
   25      N      -2.8353711314    -2.5730685695     0.5532743153
   26      S      -3.6471188920    -5.0511830389     0.6643969928
   27      C      -4.1792946610    -2.4749790560     0.6858676553
   28      C      -4.8408960129    -3.7030181869     0.8250385728
   29      C      10.8939778606    -0.5215718966     1.1098923677
   30      H       8.5600966537     0.8978417065     1.1652235091
   31      H       6.2659763097     0.0133710634     0.9802518119
   32      H       7.9232593179    -3.8309115582     0.1504246276
   33      H       4.6279626997    -1.3837381856     2.0643012388
   34      H       0.0581306598    -8.5404356849    -0.7786607785
   35      H      -1.8347561406    -6.7981736128    -0.2376890298
   36      H      -4.6604159043    -1.5076076199     0.6230277495
   37      H      -5.8635762019    -4.0388464150     0.9329720354
   38      H      10.9909955387     0.4645402729     1.5797129284
   39      C      11.5934642854    -0.3575060675    -0.2855613740
   40      H      11.4024841068    -1.2966304331     1.6972795165
   41      H      10.8924963371     0.0264950618    -1.0364648752
   42      H      11.6533472602    -1.3790383999    -0.6818727706
   43      C      12.9266093894     0.3197781769    -0.2795460520
   44      H      13.6069173671    -0.2604078965     0.3567684737
   45      C      12.9794361315     1.8022967947     0.1664459694
   46      H      13.4358078132     0.2855794509    -1.2509200337
   47      H      13.9953643195     2.2177100206     0.1532259622
   48      H      12.7937269930     1.9414103611     1.2391735824
   49      C      12.0212171630     2.6677251337    -0.6971906431
   50      H      10.9773354930     2.3346994141    -0.7347928914
   51      C      12.4898017336     2.8664116347    -2.1490601877
   52      H      11.9435921776     3.6639061961    -0.2439096567
   53      H      11.8703215129     3.5628673504    -2.7263293556
   54      H      12.3284070944     1.9226516575    -2.6848193461
   55      H      13.5265527779     3.2181894199    -2.2104251775
   56      C       0.8225769012     6.4109561447    -1.1535171560
   57      C       0.2894699620     5.8919424194    -2.3558260782
   58      N       0.3064477116     6.0442318119     0.0363966742
   59      C      -0.7641130061     4.8888173250    -2.2521247073
   60      C      -0.7267728538     5.1103409600     0.1242553112
   61      C      -1.3272307470     4.4758477015    -1.0491170182
   62      C      -2.5064189841     3.5218376256    -0.9314145270
   63      C      -3.5268632966     3.3555297649    -1.9022631767
   64      C      -2.7075523393     2.6358701563     0.1715614550
   65      N      -4.6995429832     2.7973091383    -1.6643344380
   66      N      -1.7373818449     2.4066014780     1.0277116082
   67      C      -3.8562415407     1.8737221549     0.3451544923
   68      C      -4.9468220959     2.1090212341    -0.5256602962
   69      S      -2.2537633500     1.2192398764     2.0317776261
   70      N      -3.8021622581     1.1085457373     1.4705142042
   71      C      -6.2238535076     1.3990290585    -0.4043553733
   72      S      -6.7767837879     0.3521614938     0.9194646322
   73      C      -7.2673566591     1.3842588418    -1.3338563219
   74      C      -8.3130951642    -0.0238399683     0.2403414802
   75      S      -7.2630968874     2.0324032058    -3.0019066022
   76      C      -8.3645345287     0.5445355404    -1.0012612231
   77      C      -9.3752545901    -0.9350505305     0.7548933874
   78      C      -8.8410278855     1.1516645157    -3.2347415763
   79      C      -9.2500990375     0.4568959867    -2.0735432799
   80      N      -8.9727848587    -1.7523245487     1.6943715907
   81      S     -11.0573553324    -0.7978181134     0.3484338487
   82      C     -10.0037584198    -2.5451231251     2.2099449935
   83      C     -11.1774485811    -2.2040256117     1.5388787586
   84      C       2.0441426822     7.3403097867    -1.2956574058
   85      H       0.6925386096     6.1192643962    -3.3374173293
   86      H      -1.1557711558     4.3218751842    -3.0921256018
   87      H      -1.0311268801     4.9431076877     1.1560438841
   88      H      -3.4367891172     3.8755109806    -2.8548366267
   89      H      -9.2587557667     1.0663420517    -4.2289626254
   90      H      -9.9649374785    -0.3584491837    -2.0544577793
   91      H     -10.0076638636    -3.2837899392     3.0007452750
   92      H     -12.1525130729    -2.6534732772     1.6712533513
   93      H       2.8481637058     6.7957185641    -0.7865635107
   94      C       1.8521207630     8.9110380433    -0.8528579854
   95      H       2.3450393472     7.3118168320    -2.3498131574
   96      H       1.1587878765     9.3967943207    -1.5510301329
   97      H       2.7226246106     9.4951773509    -1.1764137312
   98      C       1.4193093374     9.1789138598     0.5900178986
   99      H       1.1162962202    10.2081579958     0.8160434709
  100      C       2.6691935048     8.9135905344     1.4972593775
  101      H       0.6435517938     8.4652830978     0.8926189050
  102      H       3.4384455461     9.5710953729     1.0731324102
  103      H       3.0755495910     7.9073829147     1.3381557721
  104      C       2.4085149703     9.0923920317     3.0511038762
  105      H       3.3721767870     9.2682124205     3.5456057405
  106      C       1.8167909182     7.7926684899     3.5731540281
  107      H       1.7867124556     9.9378328050     3.3723273680
  108      H       0.7208189310     7.8231276298     3.5243109738
  109      H       1.9570147795     7.7316300926     4.6594783733
  110      H       2.2317210737     6.8538901788     3.1880796864
 ----------------------------------------------------------------

    9   -5663.4866246929      8.49E-06 Convergence criterion met
 Total energy in the final basis set = -5663.4866246929

                    Orbital Energies (a.u.)
 --------------------------------------------------------------

 Alpha MOs
 -- Occupied --
-88.986 -88.985 -88.940 -88.926 -88.926 -88.924 -88.915 -88.910
-14.384 -14.382 -14.375 -14.373 -14.352 -14.350 -14.342 -14.339
-14.333 -14.323 -10.279 -10.270 -10.266 -10.253 -10.252 -10.250
-10.250 -10.249 -10.246 -10.245 -10.243 -10.242 -10.242 -10.240
-10.237 -10.237 -10.235 -10.234 -10.234 -10.232 -10.231 -10.230
-10.230 -10.227 -10.226 -10.225 -10.224 -10.221 -10.220 -10.215
-10.208 -10.207 -10.206 -10.206 -10.206 -10.204 -10.202 -10.197
-10.192 -10.187 -10.182 -10.179 -10.177 -10.175 -10.175 -10.172
-10.170 -10.169 -10.167 -10.158  -8.041  -8.040  -8.000  -7.986
 -7.985  -7.983  -7.973  -7.971  -6.006  -6.006  -6.001  -6.000
 -5.999  -5.998  -5.963  -5.961  -5.956  -5.950  -5.949  -5.947
 -5.947  -5.945  -5.944  -5.944  -5.941  -5.940  -5.937  -5.935
 -5.934  -5.932  -5.929  -5.927  -1.036  -1.025  -0.971  -0.963
 -0.961  -0.959  -0.937  -0.923  -0.917  -0.914  -0.900  -0.891
 -0.849  -0.839  -0.826  -0.825  -0.811  -0.809  -0.806  -0.803
 -0.798  -0.794  -0.790  -0.789  -0.781  -0.773  -0.765  -0.760
 -0.749  -0.745  -0.742  -0.739  -0.729  -0.719  -0.710  -0.707
 -0.692  -0.691  -0.677  -0.669  -0.657  -0.650  -0.642  -0.641
 -0.637  -0.629  -0.627  -0.625  -0.609  -0.608  -0.601  -0.600
 -0.597  -0.594  -0.587  -0.584  -0.575  -0.569  -0.556  -0.550
 -0.547  -0.544  -0.543  -0.539  -0.521  -0.518  -0.518  -0.514
 -0.507  -0.502  -0.500  -0.498  -0.484  -0.481  -0.475  -0.473
 -0.471  -0.468  -0.467  -0.463  -0.459  -0.456  -0.452  -0.449
 -0.447  -0.443  -0.441  -0.438  -0.434  -0.433  -0.431  -0.431
 -0.428  -0.427  -0.422  -0.421  -0.418  -0.413  -0.411  -0.410
 -0.408  -0.407  -0.402  -0.400  -0.399  -0.397  -0.397  -0.396
 -0.393  -0.392  -0.390  -0.389  -0.384  -0.382  -0.379  -0.378
 -0.376  -0.374  -0.369  -0.368  -0.367  -0.357  -0.356  -0.355
 -0.353  -0.351  -0.348  -0.347  -0.347  -0.345  -0.342  -0.338
 -0.337  -0.335  -0.331  -0.329  -0.328  -0.326  -0.321  -0.319
 -0.309  -0.308  -0.307  -0.304  -0.300  -0.297  -0.296  -0.295
 -0.295  -0.291  -0.287  -0.285  -0.283  -0.281  -0.280  -0.279
 -0.274  -0.270  -0.262  -0.261  -0.260  -0.249  -0.248  -0.246
 -0.244  -0.241  -0.231  -0.231  -0.199  -0.191

          Ground-State Mulliken Net Atomic Charges

     Atom                 Charge (a.u.)
  ----------------------------------------
      1 C                     0.281227
      2 C                    -0.126399
      3 N                    -0.489023
      4 C                    -0.085757
      5 C                     0.088692
      6 C                     0.051924
      7 C                    -0.005875
      8 C                     0.060777
      9 C                     0.272527
     10 N                    -0.496277
     11 N                    -0.581314
     12 C                     0.164986
     13 C                     0.279851
     14 S                     0.611636
     15 N                    -0.522057
     16 C                    -0.242364
     17 S                     0.356160
     18 C                    -0.093266
     19 C                    -0.186604
     20 S                     0.264859
     21 C                     0.126639
     22 C                     0.040435
     23 C                    -0.303033
     24 C                    -0.074223
     25 N                    -0.437345
     26 S                     0.260006
     27 C                     0.143477
     28 C                    -0.324064
     29 C                    -0.221715
     30 H                     0.088302
     31 H                     0.097913
     32 H                     0.112449
     33 H                     0.109230
     34 H                     0.133413
     35 H                     0.103832
     36 H                     0.138687
     37 H                     0.144830
     38 H                     0.104083
     39 C                    -0.186480
     40 H                     0.119290
     41 H                     0.095115
     42 H                     0.114104
     43 C                    -0.178080
     44 H                     0.088117
     45 C                    -0.181004
     46 H                     0.099147
     47 H                     0.089790
     48 H                     0.087681
     49 C                    -0.177922
     50 H                     0.096129
     51 C                    -0.317037
     52 H                     0.086059
     53 H                     0.098047
     54 H                     0.106085
     55 H                     0.102668
     56 C                     0.298274
     57 C                    -0.124054
     58 N                    -0.496992
     59 C                    -0.103113
     60 C                     0.078729
     61 C                     0.066136
     62 C                     0.046340
     63 C                     0.060529
     64 C                     0.209918
     65 N                    -0.511366
     66 N                    -0.546496
     67 C                     0.218186
     68 C                     0.309790
     69 S                     0.621089
     70 N                    -0.575843
     71 C                    -0.234388
     72 S                     0.344270
     73 C                    -0.129975
     74 C                    -0.205434
     75 S                     0.285341
     76 C                     0.147860
     77 C                     0.069261
     78 C                    -0.314298
     79 C                    -0.093094
     80 N                    -0.445250
     81 S                     0.270047
     82 C                     0.132827
     83 C                    -0.298653
     84 C                    -0.232432
     85 H                     0.095874
     86 H                     0.095683
     87 H                     0.122011
     88 H                     0.106519
     89 H                     0.131107
     90 H                     0.108506
     91 H                     0.136658
     92 H                     0.121548
     93 H                     0.122958
     94 C                    -0.183620
     95 H                     0.096061
     96 H                     0.087454
     97 H                     0.092407
     98 C                    -0.175001
     99 H                     0.088907
    100 C                    -0.169416
    101 H                     0.128427
    102 H                     0.074766
    103 H                     0.095482
    104 C                    -0.182435
    105 H                     0.088776
    106 C                    -0.311803
    107 H                     0.089286
    108 H                     0.106317
    109 H                     0.086478
    110 H                     0.111513
  ----------------------------------------
  Sum of atomic charges =     0.000000

                    Cartesian Multipole Moments
 -----------------------------------------------------------------
    Charge (ESU x 10^10)
                 0.0000
    Dipole Moment (Debye)
         X      -4.8610      Y      -1.9701      Z      -2.0061
       Tot       5.6156
    Quadrupole Moments (Debye-Ang)
        XX    -396.9146     XY      43.1319     YY    -424.7255
        XZ      -3.2883     YZ      -7.4407     ZZ    -436.2056

 Total job time:  85.73s(wall), 928.09s(cpu)
        *  Thank you very much for using Q-Chem.  Have a nice day.  *
