 Q-Chem 4.4, Q-Chem, Inc., Pleasanton, CA (2016)
 Q-Chem 4.4.2 for Intel X86 Linux

User input:
--------------------------------------------------------------
$comment
SP
$end

$rem
MEM_STATIC 5000
MEM_TOTAL 20000
JOBTYPE SP
EXCHANGE B3LYP
BASIS 6-31g(d,p)
$end

$molecule
0 1
C         -13.224000     -5.692000     -9.788000
C         -12.203000     -6.214000     -8.960000
N         -13.900000     -6.377000    -10.722000
C         -11.886000     -7.560000     -9.023000
C         -13.568000     -7.679000    -10.783000
C         -12.620000     -8.326000     -9.988000
C         -12.356000     -9.732000    -10.015000
C         -12.086000    -10.375000    -11.220000
C         -12.434000    -10.516000     -8.824000
N         -11.845000    -11.703000    -11.263000
N         -12.750000    -10.027000     -7.574000
C         -12.242000    -11.855000     -8.929000
C         -11.862000    -12.450000    -10.166000
S         -12.787000    -11.330000     -6.638000
N         -12.361000    -12.463000     -7.728000
C         -11.580000    -13.888000    -10.324000
S         -11.689000    -15.101000     -9.011000
C         -10.857000    -14.453000    -11.413000
C         -10.672000    -16.211000     -9.888000
S         -10.430000    -13.717000    -12.929000
C         -10.328000    -15.687000    -11.137000
C         -10.320000    -17.561000     -9.472000
C          -9.300000    -15.066000    -13.064000
C          -9.425000    -16.100000    -12.149000
N          -9.570000    -18.377000    -10.183000
S         -10.829000    -18.195000     -7.913000
C          -9.188000    -19.457000     -9.464000
C          -9.926000    -19.711000     -8.247000
C         -13.566000     -4.182000     -9.629000
H         -11.802000     -5.588000     -8.168000
H         -11.245000     -8.021000     -8.278000
H         -14.153000     -8.317000    -11.444000
H         -11.996000     -9.807000    -12.146000
H          -8.613000    -15.099000    -13.899000
H          -8.797000    -16.983000    -12.150000
H          -8.575000    -20.212000     -9.938000
H          -9.825000    -20.473000     -7.486000
H         -12.666000     -3.600000     -9.866000
C         -14.083000     -3.776000     -8.186000
H         -14.337000     -3.805000    -10.312000
H         -14.015000     -2.703000     -7.967000
H         -13.624000     -4.202000     -7.285000
C         -15.581000     -4.090000     -8.023000
H         -16.023000     -3.900000     -9.009000
C         -16.233000     -2.915000     -7.142000
H         -15.767000     -5.097000     -7.631000
H         -17.329000     -2.914000     -7.158000
H         -15.971000     -1.944000     -7.579000
C         -15.701000     -2.801000     -5.713000
H         -16.099000     -3.568000     -5.037000
C         -15.738000     -1.422000     -5.060000
H         -14.656000     -3.130000     -5.655000
H         -15.424000     -1.412000     -4.009000
H         -16.808000     -1.205000     -4.949000
H         -15.150000     -0.677000     -5.609000
C          -6.858000    -19.016000     -6.184000
C          -6.642000    -17.786000     -5.521000
N          -7.833000    -19.851000     -5.773000
C          -7.563000    -17.423000     -4.450000
C          -8.687000    -19.511000     -4.723000
C          -8.585000    -18.248000     -3.992000
C          -9.476000    -17.936000     -2.799000
C          -9.106000    -17.140000     -1.685000
C         -10.828000    -18.382000     -2.676000
N          -9.733000    -17.145000     -0.523000
N         -11.466000    -18.870000     -3.716000
C         -11.589000    -18.219000     -1.525000
C         -10.941000    -17.734000     -0.364000
S         -13.023000    -19.099000     -3.260000
N         -12.846000    -18.725000     -1.662000
C         -11.633000    -17.569000      0.918000
S         -13.250000    -18.144000      1.375000
C         -11.160000    -16.893000      2.046000
C         -13.229000    -17.525000      2.981000
S          -9.700000    -15.867000      2.181000
C         -12.072000    -16.814000      3.133000
C         -14.300000    -17.554000      4.018000
C         -10.347000    -15.344000      3.802000
C         -11.577000    -15.964000      4.120000
N         -15.489000    -17.843000      3.554000
S         -14.005000    -17.458000      5.726000
C         -16.461000    -17.935000      4.556000
C         -15.837000    -17.682000      5.777000
C          -5.973000    -19.290000     -7.416000
H          -5.901000    -17.058000     -5.835000
H          -7.583000    -16.453000     -3.961000
H          -9.403000    -20.304000     -4.514000
H          -8.145000    -16.628000     -1.700000
H          -9.881000    -14.514000      4.316000
H         -12.286000    -15.601000      4.856000
H         -17.513000    -18.184000      4.508000
H         -16.310000    -17.640000      6.749000
H          -6.687000    -19.333000     -8.247000
C          -4.912000    -20.541000     -7.319000
H          -5.408000    -18.371000     -7.613000
H          -4.140000    -20.298000     -6.578000
H          -4.224000    -20.509000     -8.173000
C          -5.495000    -21.927000     -7.036000
H          -4.769000    -22.711000     -6.790000
C          -6.184000    -22.410000     -8.358000
H          -6.277000    -21.861000     -6.270000
H          -5.382000    -22.345000     -9.104000
H          -6.925000    -21.684000     -8.714000
C          -6.898000    -23.822000     -8.254000
H          -6.999000    -24.234000     -9.266000
C          -8.285000    -23.597000     -7.673000
H          -6.386000    -24.615000     -7.694000
H          -8.261000    -23.681000     -6.579000
H          -8.931000    -24.450000     -7.915000
H          -8.845000    -22.720000     -8.018000
$end

--------------------------------------------------------------

             Standard Nuclear Orientation (Angstroms)
    I     Atom           X                Y                Z
 ----------------------------------------------------------------
    1      C     -10.0983912083     2.3719953706    -0.6798122161
    2      C      -9.0299412924     2.2540004058    -1.5990515567
    3      N     -10.2666932344     1.6279777041     0.4232150455
    4      C      -8.0009157292     1.3627142401    -1.3482740432
    5      C      -9.2676898064     0.7546525130     0.6433156167
    6      C      -8.1356328429     0.5790409557    -0.1547731079
    7      C      -7.0458235667    -0.2942039350     0.1567073925
    8      C      -7.2814455024    -1.6290553050     0.4745566077
    9      C      -5.7065648089     0.1974673424     0.2188872509
   10      N      -6.2643831688    -2.4629529016     0.7806824119
   11      N      -5.3319879414     1.5045340491    -0.0107772750
   12      C      -4.7274749035    -0.6659221273     0.5886866299
   13      C      -5.0040123188    -2.0472096029     0.7988436372
   14      S      -3.7538020665     1.5198978783     0.2796832166
   15      N      -3.5215880465    -0.0566203448     0.6172212752
   16      C      -3.9702687269    -3.0407021103     1.1404264585
   17      S      -2.2320532656    -2.6715146896     1.3629723155
   18      C      -4.1264442086    -4.4488292342     0.9966828609
   19      C      -1.7972518723    -4.3399750949     1.1125614041
   20      S      -5.5848157389    -5.3559285410     0.7272309594
   21      C      -2.9372726033    -5.1271125324     0.9290392325
   22      C      -0.4567054384    -4.8993133554     1.2102136901
   23      C      -4.4819972751    -6.6581253356     0.2766746987
   24      C      -3.1342933949    -6.4783221565     0.5475456425
   25      N      -0.1787178601    -6.1752491496     1.0411345512
   26      S       0.9395494042    -3.8713426352     1.5022181642
   27      C       1.1528338320    -6.3850696406     0.9305431736
   28      C       2.0105608814    -5.3066923901     1.3683282969
   29      C     -11.1948815008     3.4303267148    -0.9960222799
   30      H      -8.9463574358     2.9841746690    -2.3989267247
   31      H      -7.0861625087     1.3829569738    -1.9324347893
   32      H      -9.2856723345     0.1944959057     1.5771738521
   33      H      -8.2868935637    -2.0460166630     0.4160978870
   34      H      -4.8868960083    -7.5860482203    -0.1045065387
   35      H      -2.3731741152    -7.2179552054     0.3291093930
   36      H       1.5148460954    -7.3959928114     0.7984391846
   37      H       3.0864846676    -5.1957038920     1.3742914828
   38      H     -11.6578131020     3.1678039652    -1.9560582889
   39      C     -10.6639003020     4.9228467917    -1.0654253548
   40      H     -12.0252278281     3.4682933712    -0.2803809524
   41      H     -11.3310963235     5.6157212215    -1.5933349052
   42      H      -9.7031513057     5.1551251090    -1.5418349993
   43      C     -10.5377369332     5.5344562013     0.3414100067
   44      H     -11.3704689760     5.1088916901     0.9150930129
   45      C     -10.9668363746     7.0797436649     0.2421612062
   46      H      -9.5506579965     5.3736940286     0.7910094914
   47      H     -11.1356249338     7.5496184970     1.2179691096
   48      H     -11.9441050195     7.1554369364    -0.2494387575
   49      C     -10.0716156258     7.9484546943    -0.6421362315
   50      H      -9.1176238926     8.2138215868    -0.1697495409
   51      C     -10.7116369428     9.1645430946    -1.3061548428
   52      H      -9.6342131980     7.3595090506    -1.4578887337
   53      H     -10.0082142259     9.7986332889    -1.8597098148
   54      H     -10.9604369663     9.8289755681    -0.4689344199
   55      H     -11.5410795762     8.8968852044    -1.9714022943
   56      C       3.2310593103    -4.7836968029    -2.1513985676
   57      C       2.7470946435    -3.7495281108    -2.9853040284
   58      N       3.9857497608    -4.4940737430    -1.0728199626
   59      C       3.0169091390    -2.3736142131    -2.5839163301
   60      C       4.2693985813    -3.1749512135    -0.7166246526
   61      C       3.7870000085    -2.0238324716    -1.4796130267
   62      C       4.1771927929    -0.5988501029    -1.1167785739
   63      C       4.3310530552     0.4690069004    -2.0373873074
   64      C       4.3994001459    -0.1497526307     0.2214606994
   65      N       4.9806327523     1.5891900219    -1.7792517008
   66      N       4.0196584895    -0.8844103964     1.2426669673
   67      C       4.8949888273     1.1093617502     0.5369188343
   68      C       5.3551030881     1.9263203614    -0.5232337464
   69      S       4.2583129310     0.0114197238     2.5936512209
   70      N       5.0117905568     1.2956271654     1.8809860019
   71      C       5.9420977450     3.2517590508    -0.3035463468
   72      S       6.4357808454     3.9931167834     1.2329525008
   73      C       6.2108925771     4.2216627481    -1.2731468605
   74      C       6.9855966654     5.4801700537     0.5627188583
   75      S       5.7267499654     4.2176714962    -2.9959617088
   76      C       6.7080441340     5.4562921773    -0.7750660420
   77      C       7.5102728170     6.6914459370     1.2560994683
   78      C       6.2628160877     5.9584757006    -3.0408263329
   79      C       6.7584077192     6.4049797903    -1.7944527803
   80      N       7.2647527612     6.7231890057     2.5411093048
   81      S       8.5617762463     7.8582466293     0.5168960575
   82      C       7.8294136218     7.8324300479     3.1798537159
   83      C       8.5004522128     8.5819661377     2.2143855085
   84      C       2.7864076923    -6.2145570992    -2.5134051298
   85      H       2.1014856835    -3.9218339468    -3.8403834221
   86      H       2.5863791827    -1.4992063042    -3.0639952461
   87      H       4.9015083496    -3.1243134948     0.1682815923
   88      H       4.0707581950     0.3049236296    -3.0819988457
   89      H       6.0245695436     6.5643667614    -3.9047630242
   90      H       6.8465470963     7.4434828746    -1.4946381804
   91      H       7.8367494341     8.1284843274     4.2206740892
   92      H       9.0161252941     9.5206239406     2.3669627098
   93      H       2.1898134479    -6.5299265707    -1.6492156807
   94      C       3.9517512491    -7.2658202093    -3.0001815341
   95      H       2.0443575061    -6.1240611128    -3.3157560489
   96      H       4.3476421394    -6.9366233587    -3.9692087972
   97      H       3.4855455963    -8.1739381562    -3.4022487968
   98      C       5.1007142784    -7.5307032659    -2.0251456764
   99      H       5.9571591056    -8.0812304969    -2.4321715059
  100      C       4.5311824295    -8.4460599512    -0.8878464142
  101      H       5.4231292931    -6.5941041741    -1.5545431908
  102      H       4.1247284170    -9.3081162513    -1.4315366488
  103      H       3.6469869004    -7.9996198976    -0.4169084728
  104      C       5.5676459516    -8.7976619951     0.2595311916
  105      H       5.2252260693    -9.7077032589     0.7681199473
  106      C       5.5648326859    -7.6470620460     1.2535467059
  107      H       6.5990167081    -9.0299411472    -0.0352802025
  108      H       6.3251784058    -6.9036466335     0.9821136374
  109      H       5.9669402478    -7.9876095743     2.2157451728
  110      H       4.5988863409    -7.1928119020     1.5032634761
 ----------------------------------------------------------------

    9   -5663.4743494445      7.50E-06 Convergence criterion met
 Total energy in the final basis set = -5663.4743494445

                    Orbital Energies (a.u.)
 --------------------------------------------------------------

 Alpha MOs
 -- Occupied --
-88.991 -88.989 -88.938 -88.924 -88.924 -88.916 -88.915 -88.911
-14.388 -14.382 -14.382 -14.379 -14.354 -14.348 -14.344 -14.339
-14.339 -14.332 -10.278 -10.268 -10.265 -10.262 -10.255 -10.253
-10.252 -10.249 -10.244 -10.244 -10.243 -10.242 -10.242 -10.241
-10.241 -10.239 -10.238 -10.236 -10.234 -10.234 -10.232 -10.232
-10.232 -10.231 -10.229 -10.227 -10.222 -10.218 -10.217 -10.214
-10.210 -10.209 -10.206 -10.205 -10.204 -10.203 -10.198 -10.196
-10.192 -10.190 -10.190 -10.181 -10.178 -10.178 -10.178 -10.173
-10.173 -10.173 -10.172 -10.166  -8.047  -8.045  -7.998  -7.983
 -7.983  -7.977  -7.973  -7.971  -6.012  -6.010  -6.006  -6.005
 -6.004  -6.002  -5.962  -5.959  -5.955  -5.948  -5.947  -5.944
 -5.943  -5.940  -5.940  -5.939  -5.937  -5.937  -5.935  -5.934
 -5.934  -5.932  -5.929  -5.927  -1.042  -1.040  -0.970  -0.965
 -0.964  -0.960  -0.941  -0.928  -0.913  -0.911  -0.904  -0.899
 -0.844  -0.840  -0.838  -0.830  -0.812  -0.807  -0.803  -0.802
 -0.796  -0.794  -0.793  -0.790  -0.780  -0.777  -0.766  -0.762
 -0.749  -0.744  -0.743  -0.738  -0.720  -0.718  -0.708  -0.708
 -0.694  -0.687  -0.679  -0.670  -0.655  -0.652  -0.647  -0.644
 -0.641  -0.634  -0.629  -0.622  -0.610  -0.609  -0.602  -0.596
 -0.595  -0.589  -0.586  -0.585  -0.578  -0.574  -0.561  -0.560
 -0.548  -0.548  -0.544  -0.539  -0.523  -0.523  -0.518  -0.506
 -0.505  -0.503  -0.498  -0.494  -0.491  -0.485  -0.478  -0.477
 -0.474  -0.472  -0.471  -0.467  -0.458  -0.456  -0.455  -0.447
 -0.443  -0.443  -0.436  -0.435  -0.435  -0.433  -0.432  -0.430
 -0.429  -0.425  -0.423  -0.420  -0.419  -0.417  -0.415  -0.413
 -0.409  -0.408  -0.402  -0.401  -0.400  -0.400  -0.396  -0.396
 -0.395  -0.392  -0.392  -0.389  -0.387  -0.386  -0.381  -0.381
 -0.378  -0.375  -0.373  -0.363  -0.361  -0.360  -0.357  -0.357
 -0.352  -0.351  -0.351  -0.349  -0.345  -0.343  -0.342  -0.340
 -0.335  -0.333  -0.333  -0.331  -0.331  -0.328  -0.324  -0.320
 -0.311  -0.311  -0.310  -0.308  -0.304  -0.301  -0.300  -0.296
 -0.294  -0.293  -0.289  -0.287  -0.285  -0.283  -0.281  -0.276
 -0.274  -0.270  -0.265  -0.262  -0.260  -0.257  -0.254  -0.248
 -0.246  -0.241  -0.232  -0.231  -0.199  -0.189

          Ground-State Mulliken Net Atomic Charges

     Atom                 Charge (a.u.)
  ----------------------------------------
      1 C                     0.275745
      2 C                    -0.106048
      3 N                    -0.478215
      4 C                    -0.050245
      5 C                     0.074391
      6 C                     0.025619
      7 C                    -0.019671
      8 C                     0.069273
      9 C                     0.237277
     10 N                    -0.537927
     11 N                    -0.548893
     12 C                     0.205297
     13 C                     0.340964
     14 S                     0.611077
     15 N                    -0.571067
     16 C                    -0.232496
     17 S                     0.331742
     18 C                    -0.119243
     19 C                    -0.231241
     20 S                     0.293714
     21 C                     0.158969
     22 C                     0.072032
     23 C                    -0.308767
     24 C                    -0.056162
     25 N                    -0.427594
     26 S                     0.249431
     27 C                     0.089684
     28 C                    -0.300492
     29 C                    -0.242887
     30 H                     0.093433
     31 H                     0.113329
     32 H                     0.096718
     33 H                     0.121361
     34 H                     0.116872
     35 H                     0.130027
     36 H                     0.114116
     37 H                     0.164486
     38 H                     0.107083
     39 C                    -0.188418
     40 H                     0.117892
     41 H                     0.096559
     42 H                     0.098835
     43 C                    -0.173549
     44 H                     0.100057
     45 C                    -0.189984
     46 H                     0.103960
     47 H                     0.088458
     48 H                     0.092123
     49 C                    -0.179473
     50 H                     0.088719
     51 C                    -0.319220
     52 H                     0.086980
     53 H                     0.099916
     54 H                     0.103084
     55 H                     0.103818
     56 C                     0.308735
     57 C                    -0.123148
     58 N                    -0.506275
     59 C                    -0.101215
     60 C                     0.073796
     61 C                     0.069712
     62 C                     0.044283
     63 C                     0.059742
     64 C                     0.209997
     65 N                    -0.510653
     66 N                    -0.553181
     67 C                     0.215617
     68 C                     0.308906
     69 S                     0.601755
     70 N                    -0.562898
     71 C                    -0.231778
     72 S                     0.355803
     73 C                    -0.129457
     74 C                    -0.207631
     75 S                     0.282478
     76 C                     0.147917
     77 C                     0.068752
     78 C                    -0.315200
     79 C                    -0.092832
     80 N                    -0.438436
     81 S                     0.267708
     82 C                     0.135774
     83 C                    -0.298571
     84 C                    -0.241212
     85 H                     0.098967
     86 H                     0.096479
     87 H                     0.118583
     88 H                     0.106984
     89 H                     0.130398
     90 H                     0.109290
     91 H                     0.137286
     92 H                     0.121292
     93 H                     0.128059
     94 C                    -0.184855
     95 H                     0.097915
     96 H                     0.088374
     97 H                     0.093592
     98 C                    -0.174768
     99 H                     0.090809
    100 C                    -0.175026
    101 H                     0.126155
    102 H                     0.078335
    103 H                     0.093509
    104 C                    -0.182305
    105 H                     0.091405
    106 C                    -0.315932
    107 H                     0.092472
    108 H                     0.107692
    109 H                     0.091209
    110 H                     0.104147
  ----------------------------------------
  Sum of atomic charges =     0.000000

                    Cartesian Multipole Moments
 -----------------------------------------------------------------
    Charge (ESU x 10^10)
                 0.0000
    Dipole Moment (Debye)
         X       3.1738      Y       3.6698      Z      -2.9029
       Tot       5.6540
    Quadrupole Moments (Debye-Ang)
        XX    -455.9790     XY      21.0633     YY    -402.6930
        XZ      23.0976     YZ      10.7356     ZZ    -434.0012

 Total job time:  88.30s(wall), 960.19s(cpu)
        *  Thank you very much for using Q-Chem.  Have a nice day.  *
