 Q-Chem 4.4, Q-Chem, Inc., Pleasanton, CA (2016)
 Q-Chem 4.4.2 for Intel X86 Linux

User input:
--------------------------------------------------------------
$comment
SP
$end

$rem
MEM_STATIC 5000
MEM_TOTAL 20000
JOBTYPE SP
EXCHANGE B3LYP
BASIS 6-31g(d,p)
$end

$molecule
0 1
C          19.224000     18.869000    -10.254000
C          17.950000     18.232000    -10.217000
N          19.367000     20.032000    -10.884000
C          16.849000     18.819000    -10.782000
C          18.316000     20.643000    -11.492000
C          16.973000     20.085000    -11.447000
C          15.869000     20.904000    -12.017000
C          16.003000     21.784000    -13.157000
C          14.676000     21.047000    -11.250000
N          15.022000     22.599000    -13.623000
N          14.411000     20.520000     -9.999000
C          13.715000     21.926000    -11.761000
C          13.867000     22.653000    -12.962000
S          12.837000     20.962000     -9.735000
N          12.574000     21.955000    -11.027000
C          12.863000     23.542000    -13.613000
S          11.238000     23.743000    -12.921000
C          12.994000     24.253000    -14.808000
C          10.976000     25.030000    -14.085000
S          14.392000     24.372000    -15.945000
C          11.989000     25.168000    -14.983000
C           9.760000     25.815000    -14.100000
C          13.510000     25.746000    -16.697000
C          12.273000     26.064000    -16.082000
N           9.497000     26.632000    -15.133000
S           8.601000     25.834000    -12.818000
C           8.224000     27.219000    -15.008000
C           7.693000     26.926000    -13.815000
C          20.449000     18.418000     -9.497000
H          17.891000     17.305000     -9.654000
H          15.839000     18.442000    -10.659000
H          18.618000     21.576000    -11.965000
H          16.836000     21.604000    -13.835000
H          13.904000     26.213000    -17.591000
H          11.668000     26.908000    -16.396000
H           7.849000     27.873000    -15.784000
H           6.699000     27.059000    -13.410000
H          21.209000     19.209000     -9.485000
C          21.058000     17.094000     -9.861000
H          20.118000     18.343000     -8.454000
H          20.253000     16.351000     -9.808000
H          21.762000     16.775000     -9.084000
C          21.742000     17.049000    -11.253000
H          22.535000     17.801000    -11.350000
C          20.769000     17.234000    -12.456000
H          22.272000     16.109000    -11.451000
H          20.405000     18.268000    -12.415000
H          19.938000     16.541000    -12.278000
C          21.494000     16.914000    -13.790000
H          22.432000     17.468000    -13.914000
C          20.577000     17.097000    -14.970000
H          21.724000     15.842000    -13.747000
H          19.770000     16.365000    -14.842000
H          21.117000     17.084000    -15.925000
H          20.065000     18.062000    -14.874000
C           0.692000     13.408000    -14.675000
C           1.613000     14.301000    -15.261000
N           1.056000     12.814000    -13.513000
C           2.902000     14.440000    -14.739000
C           2.199000     13.101000    -12.877000
C           3.180000     13.900000    -13.507000
C           4.521000     14.079000    -12.861000
C           5.762000     13.991000    -13.596000
C           4.687000     14.241000    -11.522000
N           7.019000     13.988000    -13.119000
N           3.630000     14.332000    -10.654000
C           5.941000     14.296000    -10.961000
C           7.100000     14.150000    -11.770000
S           4.248000     14.477000     -9.191000
N           5.808000     14.414000     -9.673000
C           8.468000     14.173000    -11.146000
S           9.093000     15.326000     -9.895000
C           9.539000     13.481000    -11.708000
C          10.771000     14.913000    -10.231000
S           9.526000     12.251000    -12.945000
C          10.795000     13.903000    -11.209000
C          11.889000     15.696000     -9.699000
C          11.351000     12.618000    -13.051000
C          11.820000     13.253000    -11.903000
N          13.087000     15.522000    -10.148000
S          11.574000     16.977000     -8.583000
C          13.948000     16.366000     -9.608000
C          13.352000     17.217000     -8.637000
C          -0.622000     13.052000    -15.188000
H           1.420000     14.766000    -16.224000
H           3.592000     15.163000    -15.164000
H           2.410000     12.620000    -11.923000
H           5.677000     13.843000    -14.672000
H          11.871000     12.149000    -13.876000
H          12.868000     13.448000    -11.708000
H          15.011000     16.242000     -9.768000
H          13.972000     17.934000     -8.116000
H          -0.495000     12.992000    -16.276000
C          -1.705000     14.106000    -14.771000
H          -0.885000     12.042000    -14.852000
H          -1.506000     14.444000    -13.746000
H          -2.689000     13.645000    -14.918000
C          -1.719000     15.361000    -15.653000
H          -0.852000     16.028000    -15.568000
C          -2.994000     16.173000    -15.450000
H          -1.734000     15.065000    -16.710000
H          -3.089000     16.573000    -14.433000
H          -3.800000     15.441000    -15.579000
C          -3.077000     17.466000    -16.242000
H          -3.917000     18.079000    -15.891000
C          -3.349000     17.164000    -17.717000
H          -2.182000     18.063000    -16.027000
H          -4.302000     16.643000    -17.871000
H          -2.474000     16.628000    -18.105000
H          -3.368000     18.106000    -18.278000
$end

--------------------------------------------------------------

             Standard Nuclear Orientation (Angstroms)
    I     Atom           X                Y                Z
 ----------------------------------------------------------------
    1      C       8.7778198080     2.9404396078    -0.3495883135
    2      C       7.3725200628     3.1418704717    -0.4711293894
    3      N       9.2530096243     1.7318067145    -0.0609377155
    4      C       6.4945749418     2.0986366424    -0.3412427393
    5      C       8.4255852505     0.6675005757     0.1128648985
    6      C       6.9845103997     0.7805630611    -0.0531415739
    7      C       6.1844425385    -0.4723334330     0.0148201261
    8      C       6.4996538232    -1.6036299433     0.8590748577
    9      C       5.2027546948    -0.6959448483    -0.9942754651
   10      N       5.8234289908    -2.7811089052     0.8567791732
   11      N       4.9005406218     0.1187965553    -2.0702950278
   12      C       4.5629094847    -1.9398159203    -0.9684711351
   13      C       4.8350523110    -2.9498266909    -0.0198666204
   14      S       3.6168967052    -0.6554443582    -2.7741027453
   15      N       3.5863436702    -2.0573447942    -1.9033423422
   16      C       4.1442399568    -4.2628124316     0.1249944725
   17      S       2.7728896086    -4.6923103664    -0.9213418723
   18      C       4.3918493986    -5.2627698025     1.0681179113
   19      C       2.8593427862    -6.3130148992    -0.2536955096
   20      S       5.6179575640    -5.3371259768     2.3919245157
   21      C       3.7582659820    -6.4381862743     0.7601517248
   22      C       2.0002996714    -7.3811334310    -0.7187479033
   23      C       5.2000478926    -7.0808300472     2.5190135453
   24      C       4.2229649215    -7.5251892025     1.5930698058
   25      N       1.9348526433    -8.5382979170    -0.0401950028
   26      S       1.0599576275    -7.3096623685    -2.1671313911
   27      C       0.9678796348    -9.3992987178    -0.5918867844
   28      C       0.4939046296    -8.8923150763    -1.7361657197
   29      C       9.8386007273     3.9642073124    -0.6716419243
   30      H       7.0512212715     4.1422165728    -0.7465450114
   31      H       5.4349298435     2.1757736592    -0.5616064072
   32      H       8.9845136608    -0.2353306276     0.3535240981
   33      H       7.1423766409    -1.4241582410     1.7196968930
   34      H       5.6381717772    -7.6827689227     3.3053201344
   35      H       3.9226429759    -8.5650675556     1.5194713013
   36      H       0.7676001720   -10.3573839941    -0.1309337065
   37      H      -0.3433082679    -9.1701954070    -2.3619508953
   38      H      10.8242639130     3.4887271292    -0.7478762983
   39      C       9.9047943844     5.2042830877     0.1734518404
   40      H       9.6116688319     4.2854525403    -1.6955259111
   41      H       8.9007290434     5.6455050255     0.1657711782
   42      H      10.5287334426     5.9617386829    -0.3144693344
   43      C      10.3824349190     4.9772436628     1.6321696402
   44      H      11.3739415865     4.5095233147     1.6759212598
   45      C       9.4172341096     4.1150748637     2.5000494471
   46      H      10.5265591972     5.9072023516     2.1961811911
   47      H       9.4443821140     3.0975557887     2.0910862240
   48      H       8.4193413406     4.5462189645     2.3557622823
   49      C       9.8427939718     4.1653376015     3.9913419941
   50      H      10.8972371048     3.9084206202     4.1471602988
   51      C       8.9314046624     3.3294252021     4.8500607997
   52      H       9.6862408363     5.2052666348     4.3043463415
   53      H       7.9370567766     3.7856121684     4.7686806193
   54      H       9.3312088751     3.1787876955     5.8606343661
   55      H       8.8022751881     2.3480004101     4.3781328851
   56      C     -10.8437380016     0.7961257347     1.4390349383
   57      C      -9.7341125804     0.0752241089     1.9270085752
   58      N     -10.5929188755     1.8279975910     0.5976632974
   59      C      -8.4314997593     0.5119247549     1.6704576366
   60      C      -9.3627034166     2.1276654860     0.1616781171
   61      C      -8.2346422818     1.4936566981     0.7301611273
   62      C      -6.8568347281     1.9521111998     0.3571948892
   63      C      -5.8079099003     2.1517638951     1.3308198205
   64      C      -6.5075729679     2.3100889456    -0.9063672012
   65      N      -4.5894213230     2.6904460129     1.1500045475
   66      N      -7.3704199670     2.2075974041    -1.9665297076
   67      C      -5.2629232479     2.8245327246    -1.1828751989
   68      C      -4.3182710732     3.0264772727    -0.1407961864
   69      S      -6.5934760425     2.7574074742    -3.2461331715
   70      N      -5.2127097928     3.1154222974    -2.4491369670
   71      C      -2.9721822775     3.6247745232    -0.4431442543
   72      S      -1.8578331294     3.2052191826    -1.8096120704
   73      C      -2.2750738752     4.3714215442     0.5046463879
   74      C      -0.4746292333     3.9602038383    -1.0248228303
   75      S      -2.8451013863     5.0468212569     2.0086882307
   76      C      -0.9065247188     4.5379071763     0.1821921417
   77      C       0.8951595463     3.7745132527    -1.5098328363
   78      C      -1.0283692861     5.2272364113     2.3874821696
   79      C      -0.2511540998     5.1886903403     1.2318261852
   80      N       1.9034311542     4.1348927794    -0.7883094746
   81      S       1.1651665611     2.9149015209    -2.9842160573
   82      C       3.0561019637     3.8208752332    -1.3522243490
   83      C       2.8990550787     3.2122634303    -2.6278363392
   84      C     -12.2446370910     0.5487086075     1.7436125254
   85      H      -9.8503472810    -0.7232073453     2.6549094664
   86      H      -7.5798502271    -0.0715977546     2.0075756502
   87      H      -9.2362358486     2.9426966561    -0.5494675404
   88      H      -6.0497470683     1.8944253685     2.3614490783
   89      H      -0.7933598155     5.5216424643     3.4019187742
   90      H       0.8129597627     5.3929339551     1.2144989397
   91      H       3.9859614684     4.1941905479    -0.9436390123
   92      H       3.7809338225     2.9333539686    -3.1885763799
   93      H     -12.2595264683     0.2719400448     2.8050504507
   94      C     -12.8411858009    -0.5736922238     0.8259851442
   95      H     -12.8083191721     1.4855304588     1.6611969307
   96      H     -12.4319731291    -0.4692277822    -0.1869818689
   97      H     -13.9338466373    -0.5051966269     0.8875209033
   98      C     -12.5059557095    -1.9965030175     1.2911466551
   99      H     -11.4565347321    -2.3047152305     1.2044065603
  100      C     -13.3880150869    -3.0325340166     0.6020972929
  101      H     -12.7324495776    -2.0944511367     2.3608179568
  102      H     -13.2316697170    -3.0737295372    -0.4828787688
  103      H     -14.4079210324    -2.6630155479     0.7613108719
  104      C     -13.0944558142    -4.4793696715     0.9577537860
  105      H     -13.6258766895    -5.1580649430     0.2783904209
  106      C     -13.6054216472    -4.7899970214     2.3660284634
  107      H     -12.0300610174    -4.6727668786     0.7752154701
  108      H     -14.6909366911    -4.6610776995     2.4576957856
  109      H     -13.0182811033    -4.1821200969     3.0654686870
  110      H     -13.3512922506    -5.8262992838     2.6188957620
 ----------------------------------------------------------------

   10   -5663.4952085157      5.95E-06 Convergence criterion met
 Total energy in the final basis set = -5663.4952085157

                    Orbital Energies (a.u.)
 --------------------------------------------------------------

 Alpha MOs
 -- Occupied --
-88.994 -88.991 -88.935 -88.926 -88.925 -88.924 -88.912 -88.908
-14.393 -14.390 -14.372 -14.372 -14.358 -14.351 -14.341 -14.340
-14.325 -14.322 -10.271 -10.267 -10.266 -10.264 -10.260 -10.258
-10.248 -10.245 -10.244 -10.244 -10.244 -10.244 -10.240 -10.237
-10.236 -10.234 -10.234 -10.232 -10.231 -10.231 -10.230 -10.230
-10.230 -10.227 -10.227 -10.225 -10.224 -10.223 -10.221 -10.214
-10.211 -10.210 -10.206 -10.206 -10.203 -10.201 -10.201 -10.199
-10.188 -10.184 -10.184 -10.184 -10.178 -10.177 -10.174 -10.173
-10.172 -10.172 -10.170 -10.165  -8.049  -8.046  -7.996  -7.986
 -7.985  -7.984  -7.970  -7.968  -6.014  -6.011  -6.009  -6.007
 -6.005  -6.004  -5.959  -5.956  -5.953  -5.950  -5.949  -5.948
 -5.947  -5.946  -5.945  -5.943  -5.942  -5.940  -5.935  -5.932
 -5.931  -5.929  -5.926  -5.923  -1.047  -1.031  -0.988  -0.962
 -0.960  -0.960  -0.937  -0.936  -0.911  -0.906  -0.900  -0.900
 -0.843  -0.838  -0.836  -0.833  -0.815  -0.810  -0.808  -0.807
 -0.804  -0.802  -0.795  -0.794  -0.790  -0.782  -0.769  -0.764
 -0.750  -0.749  -0.743  -0.738  -0.725  -0.718  -0.713  -0.710
 -0.695  -0.692  -0.675  -0.674  -0.659  -0.655  -0.647  -0.644
 -0.635  -0.630  -0.627  -0.626  -0.616  -0.608  -0.602  -0.594
 -0.593  -0.591  -0.583  -0.581  -0.576  -0.575  -0.565  -0.564
 -0.552  -0.552  -0.539  -0.534  -0.524  -0.524  -0.513  -0.509
 -0.507  -0.505  -0.501  -0.499  -0.489  -0.486  -0.479  -0.477
 -0.477  -0.474  -0.470  -0.468  -0.467  -0.461  -0.449  -0.448
 -0.447  -0.444  -0.442  -0.441  -0.438  -0.437  -0.433  -0.430
 -0.430  -0.424  -0.422  -0.420  -0.416  -0.415  -0.413  -0.411
 -0.409  -0.409  -0.406  -0.405  -0.400  -0.399  -0.399  -0.398
 -0.396  -0.394  -0.393  -0.390  -0.388  -0.388  -0.387  -0.387
 -0.384  -0.382  -0.377  -0.375  -0.369  -0.360  -0.358  -0.357
 -0.356  -0.355  -0.353  -0.350  -0.347  -0.344  -0.344  -0.342
 -0.338  -0.338  -0.334  -0.332  -0.331  -0.328  -0.325  -0.320
 -0.318  -0.313  -0.311  -0.307  -0.304  -0.300  -0.299  -0.299
 -0.298  -0.296  -0.295  -0.287  -0.286  -0.285  -0.284  -0.282
 -0.279  -0.274  -0.268  -0.263  -0.254  -0.251  -0.248  -0.245
 -0.241  -0.240  -0.230  -0.229  -0.193  -0.192

          Ground-State Mulliken Net Atomic Charges

     Atom                 Charge (a.u.)
  ----------------------------------------
      1 C                     0.285329
      2 C                    -0.125109
      3 N                    -0.479782
      4 C                    -0.055969
      5 C                     0.063960
      6 C                     0.015742
      7 C                    -0.015466
      8 C                     0.064829
      9 C                     0.255143
     10 N                    -0.532940
     11 N                    -0.559547
     12 C                     0.199520
     13 C                     0.336505
     14 S                     0.605059
     15 N                    -0.562243
     16 C                    -0.221209
     17 S                     0.325205
     18 C                    -0.127643
     19 C                    -0.240294
     20 S                     0.283948
     21 C                     0.188672
     22 C                     0.067998
     23 C                    -0.312210
     24 C                    -0.049898
     25 N                    -0.460597
     26 S                     0.264766
     27 C                     0.134405
     28 C                    -0.307656
     29 C                    -0.222090
     30 H                     0.084594
     31 H                     0.113086
     32 H                     0.109894
     33 H                     0.120756
     34 H                     0.128895
     35 H                     0.128594
     36 H                     0.122305
     37 H                     0.127078
     38 H                     0.121332
     39 C                    -0.186488
     40 H                     0.105121
     41 H                     0.086297
     42 H                     0.094442
     43 C                    -0.173688
     44 H                     0.092763
     45 C                    -0.180316
     46 H                     0.084415
     47 H                     0.116566
     48 H                     0.084239
     49 C                    -0.179359
     50 H                     0.092109
     51 C                    -0.309582
     52 H                     0.091007
     53 H                     0.099949
     54 H                     0.097519
     55 H                     0.100301
     56 C                     0.277831
     57 C                    -0.126265
     58 N                    -0.488408
     59 C                    -0.083186
     60 C                     0.117796
     61 C                     0.038839
     62 C                     0.026133
     63 C                     0.049288
     64 C                     0.181417
     65 N                    -0.478373
     66 N                    -0.555983
     67 C                     0.292409
     68 C                     0.242460
     69 S                     0.613622
     70 N                    -0.587672
     71 C                    -0.214689
     72 S                     0.294676
     73 C                    -0.098923
     74 C                    -0.234894
     75 S                     0.250439
     76 C                     0.175228
     77 C                     0.093607
     78 C                    -0.283475
     79 C                    -0.076301
     80 N                    -0.422263
     81 S                     0.265402
     82 C                     0.119529
     83 C                    -0.323471
     84 C                    -0.229881
     85 H                     0.084913
     86 H                     0.103034
     87 H                     0.113957
     88 H                     0.103731
     89 H                     0.130273
     90 H                     0.128153
     91 H                     0.116774
     92 H                     0.133960
     93 H                     0.097285
     94 C                    -0.172970
     95 H                     0.120888
     96 H                     0.116237
     97 H                     0.097107
     98 C                    -0.177383
     99 H                     0.090322
    100 C                    -0.165757
    101 H                     0.090316
    102 H                     0.085274
    103 H                     0.085472
    104 C                    -0.183384
    105 H                     0.090982
    106 C                    -0.311989
    107 H                     0.093383
    108 H                     0.106911
    109 H                     0.102736
    110 H                     0.094626
  ----------------------------------------
  Sum of atomic charges =     0.000000

                    Cartesian Multipole Moments
 -----------------------------------------------------------------
    Charge (ESU x 10^10)
                 0.0000
    Dipole Moment (Debye)
         X      -1.6538      Y      -1.5413      Z      -1.1830
       Tot       2.5515
    Quadrupole Moments (Debye-Ang)
        XX    -454.8771     XY      32.4118     YY    -423.5145
        XZ      -4.0430     YZ       0.7571     ZZ    -431.0517

 Total job time:  94.58s(wall), 1016.66s(cpu)
        *  Thank you very much for using Q-Chem.  Have a nice day.  *
