 Q-Chem 4.4, Q-Chem, Inc., Pleasanton, CA (2016)
 Q-Chem 4.4.2 for Intel X86 Linux

User input:
--------------------------------------------------------------
$comment
SP
$end

$rem
MEM_STATIC 5000
MEM_TOTAL 20000
JOBTYPE SP
EXCHANGE B3LYP
BASIS 6-31g(d,p)
$end

$molecule
0 1
C          -8.526000    -14.757000     -6.261000
C          -8.080000    -13.912000     -5.243000
N          -9.721000    -15.322000     -6.107000
C          -8.877000    -13.533000     -4.160000
C         -10.508000    -14.989000     -5.069000
C         -10.162000    -14.099000     -4.026000
C         -10.954000    -13.867000     -2.851000
C         -10.294000    -14.065000     -1.585000
C         -12.353000    -13.531000     -2.845000
N         -10.925000    -13.781000     -0.460000
N         -13.146000    -13.355000     -3.948000
C         -12.959000    -13.242000     -1.648000
C         -12.221000    -13.413000     -0.445000
S         -14.495000    -12.640000     -3.326000
N         -14.179000    -12.715000     -1.735000
C         -12.782000    -13.249000      0.889000
S         -14.428000    -13.713000      1.388000
C         -12.064000    -12.758000      1.957000
C         -14.028000    -13.405000      3.131000
S         -10.442000    -12.005000      2.136000
C         -12.722000    -12.840000      3.152000
C         -14.919000    -13.673000      4.268000
C         -10.796000    -11.771000      3.860000
C         -11.975000    -12.263000      4.232000
N         -14.417000    -13.591000      5.510000
S         -16.447000    -14.470000      4.205000
C         -15.345000    -13.975000      6.443000
C         -16.529000    -14.369000      5.922000
C          -7.710000    -14.988000     -7.478000
H          -7.063000    -13.542000     -5.331000
H          -8.522000    -12.827000     -3.415000
H         -11.431000    -15.554000     -4.953000
H          -9.270000    -14.430000     -1.512000
H         -10.151000    -11.032000      4.317000
H         -12.447000    -12.048000      5.184000
H         -15.144000    -13.740000      7.479000
H         -17.414000    -14.640000      6.483000
H          -6.644000    -14.789000     -7.318000
C          -8.116000    -13.960000     -8.628000
H          -7.872000    -16.008000     -7.848000
H          -9.188000    -13.963000     -8.860000
H          -7.583000    -14.244000     -9.544000
C          -7.656000    -12.566000     -8.239000
H          -7.892000    -12.471000     -7.172000
C          -8.391000    -11.561000     -9.131000
H          -6.560000    -12.579000     -8.271000
H          -9.454000    -11.786000     -8.983000
H          -8.158000    -11.798000    -10.176000
C          -8.103000    -10.129000     -8.828000
H          -7.027000     -9.917000     -8.821000
C          -8.569000     -9.504000     -7.519000
H          -8.526000     -9.542000     -9.653000
H          -9.609000     -9.853000     -7.479000
H          -8.519000     -8.411000     -7.450000
H          -8.060000     -9.968000     -6.664000
C          -6.858000    -19.016000     -6.184000
C          -6.642000    -17.786000     -5.521000
N          -7.833000    -19.851000     -5.773000
C          -7.563000    -17.423000     -4.450000
C          -8.687000    -19.511000     -4.723000
C          -8.585000    -18.248000     -3.992000
C          -9.476000    -17.936000     -2.799000
C          -9.106000    -17.140000     -1.685000
C         -10.828000    -18.382000     -2.676000
N          -9.733000    -17.145000     -0.523000
N         -11.466000    -18.870000     -3.716000
C         -11.589000    -18.219000     -1.525000
C         -10.941000    -17.734000     -0.364000
S         -13.023000    -19.099000     -3.260000
N         -12.846000    -18.725000     -1.662000
C         -11.633000    -17.569000      0.918000
S         -13.250000    -18.144000      1.375000
C         -11.160000    -16.893000      2.046000
C         -13.229000    -17.525000      2.981000
S          -9.700000    -15.867000      2.181000
C         -12.072000    -16.814000      3.133000
C         -14.300000    -17.554000      4.018000
C         -10.347000    -15.344000      3.802000
C         -11.577000    -15.964000      4.120000
N         -15.489000    -17.843000      3.554000
S         -14.005000    -17.458000      5.726000
C         -16.461000    -17.935000      4.556000
C         -15.837000    -17.682000      5.777000
C          -5.973000    -19.290000     -7.416000
H          -5.901000    -17.058000     -5.835000
H          -7.583000    -16.453000     -3.961000
H          -9.403000    -20.304000     -4.514000
H          -8.145000    -16.628000     -1.700000
H          -9.881000    -14.514000      4.316000
H         -12.286000    -15.601000      4.856000
H         -17.513000    -18.184000      4.508000
H         -16.310000    -17.640000      6.749000
H          -6.687000    -19.333000     -8.247000
C          -4.912000    -20.541000     -7.319000
H          -5.408000    -18.371000     -7.613000
H          -4.140000    -20.298000     -6.578000
H          -4.224000    -20.509000     -8.173000
C          -5.495000    -21.927000     -7.036000
H          -4.769000    -22.711000     -6.790000
C          -6.184000    -22.410000     -8.358000
H          -6.277000    -21.861000     -6.270000
H          -5.382000    -22.345000     -9.104000
H          -6.925000    -21.684000     -8.714000
C          -6.898000    -23.822000     -8.254000
H          -6.999000    -24.234000     -9.266000
C          -8.285000    -23.597000     -7.673000
H          -6.386000    -24.615000     -7.694000
H          -8.261000    -23.681000     -6.579000
H          -8.931000    -24.450000     -7.915000
H          -8.845000    -22.720000     -8.018000
$end

--------------------------------------------------------------

             Standard Nuclear Orientation (Angstroms)
    I     Atom           X                Y                Z
 ----------------------------------------------------------------
    1      C      -5.2305594433     2.2037250996    -0.0548405121
    2      C      -4.4239191962     2.7772025958    -1.0395841706
    3      N      -4.6193802351     1.6363189385     0.9822111857
    4      C      -3.0379011480     2.9012227496    -0.9158426191
    5      C      -3.2854766199     1.7261422512     1.1248117387
    6      C      -2.3991695776     2.3389249239     0.2090485473
    7      C      -0.9669881521     2.2982989260     0.3034884379
    8      C      -0.2635375266     1.7966241935    -0.8502184921
    9      C      -0.2011837819     2.6442893782     1.4713785327
   10      N       1.0567950444     1.8159277419    -0.8783481051
   11      N      -0.7052151144     3.0880348680     2.6653116782
   12      C       1.1685970283     2.6510471227     1.3864028605
   13      C       1.7854400687     2.1893334083     0.1916563980
   14      S       0.6315791208     3.6557914986     3.4454037119
   15      N       1.8048120648     3.2019074223     2.4186244247
   16      C       3.2239344697     2.0415756543     0.0182363753
   17      S       4.3705352791     1.4974613833     1.2683800647
   18      C       3.8677421386     2.2552326374    -1.1805510867
   19      C       5.7064568816     1.3784585566     0.0460606306
   20      S       3.3634269596     2.9201231915    -2.7722548127
   21      C       5.1881302031     1.9028114603    -1.1711876952
   22      C       7.0565772288     0.8625473847     0.3096601584
   23      C       5.0427501936     2.7450296212    -3.3213119294
   24      C       5.8447308171     2.1967456798    -2.4120810461
   25      N       7.8736122301     0.6409422995    -0.7317989108
   26      S       7.6035894244     0.1260657656     1.7699116718
   27      C       9.0466660742     0.0611376444    -0.3232646519
   28      C       9.1156827208    -0.1806628183     1.0053821178
   29      C      -6.7099541704     2.2548959487    -0.1501231747
   30      H      -4.9296210937     3.1422235250    -1.9283801608
   31      H      -2.4444165656     3.4055907029    -1.6727276950
   32      H      -2.8413815265     1.1636441620     1.9439487527
   33      H      -0.7822386131     1.4093996844    -1.7266523814
   34      H       5.2554301331     3.3452222386    -4.1962582508
   35      H       6.9262609661     2.1875458194    -2.4863838005
   36      H       9.8692320207     0.0414086041    -1.0246333343
   37      H       9.9753335688    -0.5633509019     1.5401131251
   38      H      -7.0642115856     2.3943995414    -1.1780324272
   39      C      -7.2769376143     3.5316835328     0.6195931622
   40      H      -7.1444223237     1.3538882706     0.3003949578
   41      H      -6.9417331665     3.5997151600     1.6617191986
   42      H      -8.3719744437     3.4644198733     0.6326676574
   43      C      -6.9001736470     4.7870748225    -0.1473479196
   44      H      -5.8623074603     4.6305557580    -0.4660100620
   45      C      -7.0903792642     5.9854329532     0.7873571748
   46      H      -7.4736181042     4.7655766971    -1.0817505550
   47      H      -6.4824064210     5.7477810684     1.6684863388
   48      H      -8.1362936096     5.9988388516     1.1165477943
   49      C      -6.6934393372     7.3006607954     0.2059868818
   50      H      -7.1794152870     7.4888295632    -0.7589944087
   51      C      -5.2318803978     7.6052590437    -0.0978673168
   52      H      -7.0646345795     8.0724010191     0.8921021194
   53      H      -4.7511804859     7.2723371436     0.8311599181
   54      H      -4.9818145269     8.6500553042    -0.3164487300
   55      H      -4.8536286396     6.9446301442    -0.8890038818
   56      C      -6.8369148199    -1.9771798251    -0.9859100125
   57      C      -6.1399592119    -0.9422603334    -1.6509810810
   58      N      -6.1711452249    -2.8709762626    -0.2278534350
   59      C      -4.7057278827    -0.8290867119    -1.4117673152
   60      C      -4.7924666301    -2.7761856311    -0.0337501932
   61      C      -3.9749268249    -1.7235789460    -0.6367276666
   62      C      -2.4625576362    -1.6892562228    -0.4753728164
   63      C      -1.5467656887    -1.1849477583    -1.4337621326
   64      C      -1.7761052577    -2.1313659787     0.6973467135
   65      N      -0.2543990671    -1.4552225386    -1.4455119654
   66      N      -2.4353447178    -2.3499303496     1.8128828851
   67      C      -0.3932635006    -2.2338152121     0.7853457436
   68      C       0.3627021338    -2.0469326121    -0.3964498620
   69      S      -1.3226936959    -2.6569037370     2.9758106742
   70      N       0.0143835297    -2.6741488993     2.0079593958
   71      C       1.8224388465    -2.1794559272    -0.4313683466
   72      S       2.8971556147    -2.8219099241     0.8281552657
   73      C       2.6751832465    -1.7965849409    -1.4702744040
   74      C       4.3669404190    -2.6006866313    -0.0399638990
   75      S       2.2681441394    -0.8536352259    -2.9357661304
   76      C       4.0622068268    -1.9632404300    -1.2096107595
   77      C       5.7691946707    -2.8580558296     0.3967226123
   78      C       4.0630404437    -0.7192069392    -3.2187065707
   79      C       4.8193200356    -1.3783085181    -2.2226893583
   80      N       5.9096778098    -3.0112531722     1.6887493388
   81      S       7.0856277538    -3.1731672727    -0.6901139514
   82      C       7.2207421410    -3.3230347433     2.0644547705
   83      C       7.9933701497    -3.3753738917     0.9049149593
   84      C      -8.3717452641    -1.9652712819    -1.1283132927
   85      H      -6.6288256915    -0.1718477427    -2.2384630001
   86      H      -4.0902684142    -0.0020695488    -1.7548026699
   87      H      -4.4176402482    -3.5852884108     0.5907847340
   88      H      -1.9348401409    -0.6983969396    -2.3273820297
   89      H       4.4307493713    -0.0414029340    -3.9774053746
   90      H       5.8651815706    -1.1890846458    -2.0070183685
   91      H       7.6528214115    -3.5378127065     3.0330552715
   92      H       9.0580273281    -3.5573608402     0.8443935337
   93      H      -8.7284401726    -1.7998018695    -0.1047925964
   94      C      -9.0640550599    -3.2194884251    -1.9331595539
   95      H      -8.6365404340    -1.0343312487    -1.6438995344
   96      H      -8.7725920404    -3.1702392517    -2.9899177227
   97      H     -10.1209844576    -2.9967415057    -2.1254303477
   98      C      -8.8101555750    -4.6241951925    -1.3824255445
   99      H      -9.1177686862    -5.4549306572    -2.0285685329
  100      C      -9.6814761285    -4.7704423800    -0.0881665855
  101      H      -7.7615558801    -4.7295114548    -1.0791382799
  102      H     -10.6971391890    -4.5428878194    -0.4354308501
  103      H      -9.4708953894    -3.9698140960     0.6312381012
  104      C      -9.5190379125    -6.1561092959     0.6654228413
  105      H     -10.4060027905    -6.3155141162     1.2914998403
  106      C      -8.2951267458    -6.0541279914     1.5618581538
  107      H      -9.4568234594    -7.0666420137     0.0557897290
  108      H      -7.3989094398    -6.3948329734     1.0278331958
  109      H      -8.3481551126    -6.8159070811     2.3494936093
  110      H      -8.1351405021    -5.1121170748     2.0992349628
 ----------------------------------------------------------------

   10   -5663.4739352858      5.10E-06 Convergence criterion met
 Total energy in the final basis set = -5663.4739352858

                    Orbital Energies (a.u.)
 --------------------------------------------------------------

 Alpha MOs
 -- Occupied --
-88.990 -88.982 -88.932 -88.928 -88.927 -88.915 -88.906 -88.902
-14.388 -14.386 -14.381 -14.372 -14.346 -14.344 -14.342 -14.341
-14.328 -14.327 -10.273 -10.271 -10.260 -10.260 -10.257 -10.252
-10.250 -10.248 -10.246 -10.241 -10.241 -10.238 -10.236 -10.236
-10.235 -10.233 -10.232 -10.230 -10.228 -10.227 -10.227 -10.226
-10.226 -10.225 -10.225 -10.223 -10.221 -10.220 -10.219 -10.212
-10.210 -10.210 -10.209 -10.201 -10.197 -10.196 -10.194 -10.193
-10.190 -10.190 -10.185 -10.182 -10.178 -10.173 -10.172 -10.171
-10.170 -10.166 -10.165 -10.156  -8.046  -8.038  -7.991  -7.989
 -7.986  -7.974  -7.965  -7.960  -6.011  -6.005  -6.004  -6.003
 -5.997  -5.995  -5.955  -5.953  -5.952  -5.950  -5.949  -5.948
 -5.947  -5.946  -5.942  -5.938  -5.934  -5.931  -5.930  -5.926
 -5.924  -5.921  -5.921  -5.916  -1.043  -1.033  -0.969  -0.963
 -0.961  -0.958  -0.943  -0.918  -0.910  -0.905  -0.904  -0.896
 -0.843  -0.837  -0.827  -0.822  -0.815  -0.811  -0.808  -0.805
 -0.796  -0.794  -0.789  -0.789  -0.785  -0.769  -0.768  -0.759
 -0.752  -0.741  -0.738  -0.734  -0.729  -0.714  -0.708  -0.699
 -0.694  -0.686  -0.676  -0.672  -0.659  -0.647  -0.646  -0.640
 -0.636  -0.633  -0.629  -0.621  -0.616  -0.602  -0.596  -0.595
 -0.591  -0.586  -0.580  -0.577  -0.576  -0.569  -0.567  -0.554
 -0.554  -0.542  -0.540  -0.537  -0.527  -0.514  -0.513  -0.511
 -0.509  -0.501  -0.497  -0.491  -0.490  -0.482  -0.478  -0.477
 -0.471  -0.471  -0.466  -0.465  -0.464  -0.453  -0.450  -0.450
 -0.448  -0.442  -0.437  -0.436  -0.435  -0.431  -0.429  -0.426
 -0.424  -0.423  -0.421  -0.419  -0.419  -0.418  -0.416  -0.414
 -0.410  -0.406  -0.405  -0.401  -0.399  -0.395  -0.393  -0.392
 -0.390  -0.388  -0.388  -0.386  -0.383  -0.382  -0.380  -0.378
 -0.377  -0.372  -0.369  -0.364  -0.364  -0.361  -0.353  -0.353
 -0.349  -0.347  -0.345  -0.345  -0.344  -0.342  -0.341  -0.337
 -0.337  -0.335  -0.334  -0.327  -0.324  -0.321  -0.319  -0.318
 -0.316  -0.309  -0.305  -0.304  -0.302  -0.301  -0.300  -0.296
 -0.293  -0.290  -0.285  -0.281  -0.280  -0.278  -0.277  -0.274
 -0.272  -0.268  -0.266  -0.256  -0.255  -0.250  -0.246  -0.245
 -0.242  -0.236  -0.232  -0.221  -0.194  -0.188

          Ground-State Mulliken Net Atomic Charges

     Atom                 Charge (a.u.)
  ----------------------------------------
      1 C                     0.322909
      2 C                    -0.140349
      3 N                    -0.486350
      4 C                    -0.083631
      5 C                     0.085190
      6 C                     0.039345
      7 C                    -0.034296
      8 C                     0.090668
      9 C                     0.254020
     10 N                    -0.483937
     11 N                    -0.553686
     12 C                     0.200373
     13 C                     0.263709
     14 S                     0.607097
     15 N                    -0.545926
     16 C                    -0.215286
     17 S                     0.319383
     18 C                    -0.073414
     19 C                    -0.227841
     20 S                     0.242768
     21 C                     0.146515
     22 C                     0.051711
     23 C                    -0.318079
     24 C                    -0.029246
     25 N                    -0.445864
     26 S                     0.288717
     27 C                     0.124959
     28 C                    -0.304838
     29 C                    -0.242274
     30 H                     0.083554
     31 H                     0.102302
     32 H                     0.107108
     33 H                     0.119650
     34 H                     0.136362
     35 H                     0.122810
     36 H                     0.113129
     37 H                     0.127819
     38 H                     0.094819
     39 C                    -0.184893
     40 H                     0.121242
     41 H                     0.110249
     42 H                     0.094612
     43 C                    -0.175797
     44 H                     0.098249
     45 C                    -0.171956
     46 H                     0.083716
     47 H                     0.095642
     48 H                     0.095591
     49 C                    -0.175634
     50 H                     0.087314
     51 C                    -0.314823
     52 H                     0.086243
     53 H                     0.098876
     54 H                     0.105406
     55 H                     0.101109
     56 C                     0.299971
     57 C                    -0.126758
     58 N                    -0.499348
     59 C                    -0.097064
     60 C                     0.079668
     61 C                     0.070982
     62 C                     0.046671
     63 C                     0.044906
     64 C                     0.205053
     65 N                    -0.505168
     66 N                    -0.547724
     67 C                     0.212951
     68 C                     0.306152
     69 S                     0.594964
     70 N                    -0.563592
     71 C                    -0.234308
     72 S                     0.346283
     73 C                    -0.127449
     74 C                    -0.209528
     75 S                     0.301896
     76 C                     0.149145
     77 C                     0.073312
     78 C                    -0.315112
     79 C                    -0.106377
     80 N                    -0.440963
     81 S                     0.272336
     82 C                     0.128425
     83 C                    -0.291288
     84 C                    -0.233085
     85 H                     0.090179
     86 H                     0.093704
     87 H                     0.120024
     88 H                     0.104649
     89 H                     0.132067
     90 H                     0.123900
     91 H                     0.130771
     92 H                     0.112870
     93 H                     0.123492
     94 C                    -0.183239
     95 H                     0.093183
     96 H                     0.086399
     97 H                     0.090967
     98 C                    -0.175182
     99 H                     0.088009
    100 C                    -0.168806
    101 H                     0.129316
    102 H                     0.073833
    103 H                     0.096324
    104 C                    -0.182327
    105 H                     0.088235
    106 C                    -0.311634
    107 H                     0.088613
    108 H                     0.106300
    109 H                     0.085639
    110 H                     0.112718
  ----------------------------------------
  Sum of atomic charges =     0.000000

                    Cartesian Multipole Moments
 -----------------------------------------------------------------
    Charge (ESU x 10^10)
                 0.0000
    Dipole Moment (Debye)
         X       4.1748      Y       2.9324      Z      -0.9148
       Tot       5.1831
    Quadrupole Moments (Debye-Ang)
        XX    -386.0660     XY     -24.7065     YY    -448.9339
        XZ      17.2888     YZ      -9.5109     ZZ    -433.3138

 Total job time:  122.96s(wall), 1305.24s(cpu)
        *  Thank you very much for using Q-Chem.  Have a nice day.  *
