 Q-Chem 4.4, Q-Chem, Inc., Pleasanton, CA (2016)
 Q-Chem 4.4.2 for Intel X86 Linux

User input:
--------------------------------------------------------------
$comment
SP
$end

$rem
MEM_STATIC 5000
MEM_TOTAL 20000
JOBTYPE SP
EXCHANGE B3LYP
BASIS 6-31g(d,p)
$end

$molecule
0 1
C         -12.902000    -25.809000      4.909000
C         -12.206000    -26.572000      3.942000
N         -13.824000    -24.943000      4.516000
C         -12.404000    -26.471000      2.503000
C         -14.009000    -24.768000      3.182000
C         -13.370000    -25.522000      2.169000
C         -13.529000    -25.157000      0.757000
C         -13.764000    -26.149000     -0.108000
C         -13.297000    -23.859000      0.214000
N         -13.792000    -25.979000     -1.496000
N         -13.009000    -22.835000      0.948000
C         -13.437000    -23.635000     -1.155000
C         -13.588000    -24.723000     -2.032000
S         -12.875000    -21.603000     -0.122000
N         -13.147000    -22.356000     -1.526000
C         -13.699000    -24.662000     -3.485000
S         -14.836000    -25.605000     -4.478000
C         -13.053000    -23.734000     -4.229000
C         -14.372000    -24.724000     -5.908000
S         -11.587000    -22.829000     -3.804000
C         -13.345000    -23.852000     -5.600000
C         -14.892000    -24.846000     -7.252000
C         -11.513000    -22.472000     -5.577000
C         -12.449000    -23.059000     -6.381000
N         -15.661000    -25.924000     -7.462000
S         -14.817000    -23.643000     -8.515000
C         -16.140000    -25.940000     -8.777000
C         -15.738000    -24.807000     -9.525000
C         -12.646000    -25.854000      6.437000
H         -11.379000    -27.189000      4.282000
H         -11.750000    -27.002000      1.818000
H         -14.695000    -23.971000      2.900000
H         -13.744000    -27.192000      0.206000
H         -10.777000    -21.730000     -5.855000
H         -12.496000    -23.060000     -7.464000
H         -16.688000    -26.820000     -9.086000
H         -15.929000    -24.636000    -10.576000
H         -13.630000    -26.033000      6.886000
C         -12.077000    -24.515000      6.935000
H         -12.132000    -26.764000      6.769000
H         -12.641000    -23.625000      6.631000
H         -11.056000    -24.474000      6.534000
C         -12.146000    -24.495000      8.417000
H         -13.225000    -24.599000      8.582000
C         -11.591000    -23.251000      9.090000
H         -11.667000    -25.365000      8.882000
H         -12.317000    -22.464000      8.852000
H         -10.633000    -22.951000      8.647000
C         -11.368000    -23.396000     10.622000
H         -10.759000    -24.278000     10.858000
C         -12.726000    -23.350000     11.350000
H         -10.770000    -22.516000     10.891000
H         -13.245000    -24.260000     11.025000
H         -13.368000    -22.530000     11.005000
H         -12.692000    -23.404000     12.445000
C          -6.858000    -19.016000     -6.184000
C          -6.642000    -17.786000     -5.521000
N          -7.833000    -19.851000     -5.773000
C          -7.563000    -17.423000     -4.450000
C          -8.687000    -19.511000     -4.723000
C          -8.585000    -18.248000     -3.992000
C          -9.476000    -17.936000     -2.799000
C          -9.106000    -17.140000     -1.685000
C         -10.828000    -18.382000     -2.676000
N          -9.733000    -17.145000     -0.523000
N         -11.466000    -18.870000     -3.716000
C         -11.589000    -18.219000     -1.525000
C         -10.941000    -17.734000     -0.364000
S         -13.023000    -19.099000     -3.260000
N         -12.846000    -18.725000     -1.662000
C         -11.633000    -17.569000      0.918000
S         -13.250000    -18.144000      1.375000
C         -11.160000    -16.893000      2.046000
C         -13.229000    -17.525000      2.981000
S          -9.700000    -15.867000      2.181000
C         -12.072000    -16.814000      3.133000
C         -14.300000    -17.554000      4.018000
C         -10.347000    -15.344000      3.802000
C         -11.577000    -15.964000      4.120000
N         -15.489000    -17.843000      3.554000
S         -14.005000    -17.458000      5.726000
C         -16.461000    -17.935000      4.556000
C         -15.837000    -17.682000      5.777000
C          -5.973000    -19.290000     -7.416000
H          -5.901000    -17.058000     -5.835000
H          -7.583000    -16.453000     -3.961000
H          -9.403000    -20.304000     -4.514000
H          -8.145000    -16.628000     -1.700000
H          -9.881000    -14.514000      4.316000
H         -12.286000    -15.601000      4.856000
H         -17.513000    -18.184000      4.508000
H         -16.310000    -17.640000      6.749000
H          -6.687000    -19.333000     -8.247000
C          -4.912000    -20.541000     -7.319000
H          -5.408000    -18.371000     -7.613000
H          -4.140000    -20.298000     -6.578000
H          -4.224000    -20.509000     -8.173000
C          -5.495000    -21.927000     -7.036000
H          -4.769000    -22.711000     -6.790000
C          -6.184000    -22.410000     -8.358000
H          -6.277000    -21.861000     -6.270000
H          -5.382000    -22.345000     -9.104000
H          -6.925000    -21.684000     -8.714000
C          -6.898000    -23.822000     -8.254000
H          -6.999000    -24.234000     -9.266000
C          -8.285000    -23.597000     -7.673000
H          -6.386000    -24.615000     -7.694000
H          -8.261000    -23.681000     -6.579000
H          -8.931000    -24.450000     -7.915000
H          -8.845000    -22.720000     -8.018000
$end

--------------------------------------------------------------

             Standard Nuclear Orientation (Angstroms)
    I     Atom           X                Y                Z
 ----------------------------------------------------------------
    1      C      -5.4089007463     4.3891451126    -2.4134077680
    2      C      -4.2610717159     4.7104265006    -3.1756024850
    3      N      -5.2745582033     4.0727867580    -1.1342054882
    4      C      -2.8965088152     4.7027393034    -2.6676310319
    5      C      -4.0184790060     3.9951371682    -0.6236747924
    6      C      -2.8363446999     4.3356184683    -1.3234154348
    7      C      -1.5196467455     4.0782778463    -0.7298395753
    8      C      -0.6071827340     5.0511710218    -0.8215036172
    9      C      -1.0862599006     2.8243084702    -0.2071411474
   10      N       0.7292732316     4.9014311580    -0.4371971961
   11      N      -1.8647337969     1.7964158974    -0.1194413663
   12      C       0.2066052439     2.6816482100     0.2949392927
   13      C       1.1554700460     3.6978344585     0.0883113769
   14      S      -0.9250148524     0.6420998122     0.5625869912
   15      N       0.4835225585     1.4180625306     0.7241828501
   16      C       2.5529430866     3.6829521266     0.5055626407
   17      S       3.4306679062     5.0477038210     1.2370808932
   18      C       3.2936792760     2.5505950965     0.5389311005
   19      C       4.8170094793     4.0373219883     1.5429282323
   20      S       3.0327776504     1.0541220984    -0.3782956479
   21      C       4.5988298226     2.7807538828     1.0105644153
   22      C       6.0569937018     4.3814930385     2.2029323354
   23      C       4.7438893096     0.6873722790     0.0843548245
   24      C       5.4331084226     1.6453112250     0.7731298168
   25      N       6.2454361710     5.6946622236     2.3968939990
   26      S       7.1786897572     3.2790722510     2.9608699098
   27      C       7.4527685815     5.9265316389     3.0658536577
   28      C       8.1336912663     4.7326606730     3.4061673574
   29      C      -6.8566333769     4.3207026900    -2.9627081094
   30      H      -4.3863404761     4.8542106489    -4.2451125861
   31      H      -2.0567849600     4.8441968010    -3.3412448853
   32      H      -3.9449748387     3.6262351496     0.3980088367
   33      H      -0.8001826705     5.9577173659    -1.3940154080
   34      H       5.0635018597    -0.3208301751    -0.1412989575
   35      H       6.4858061329     1.6576147625     1.0315387054
   36      H       7.7550275113     6.9585131555     3.1834916135
   37      H       9.1120035700     4.6643644514     3.8628550652
   38      H      -7.4462669373     4.9577916815    -2.2931202651
   39      C      -7.3892757942     2.8787754940    -2.9199996008
   40      H      -6.9966043340     4.8721909474    -3.9001454850
   41      H      -7.2831824761     2.3692584337    -1.9547283575
   42      H      -6.8256007064     2.3450907735    -3.6961271769
   43      C      -8.8546852413     2.9100839970    -3.1503904205
   44      H      -9.1904771371     3.5244924081    -2.3065728412
   45      C      -9.5510035338     1.5599041112    -3.1757894661
   46      H      -9.1351829962     3.4448683742    -4.0657551999
   47      H      -9.5263949999     1.2195524973    -2.1333671913
   48      H      -8.9845982285     0.8295360704    -3.7671950418
   49      C     -10.9976690731     1.5949879593    -3.7447410820
   50      H     -11.0302902395     2.0750376140    -4.7311432254
   51      C     -11.9487309670     2.2188584756    -2.7042936528
   52      H     -11.2521676969     0.5384161566    -3.8972254293
   53      H     -11.6226272701     3.2629118013    -2.6224704775
   54      H     -11.8084208619     1.8078951150    -1.6968160150
   55      H     -13.0095553439     2.2611067580    -2.9799088264
   56      C       5.7695706815    -4.5945232519    -2.1586269686
   57      C       5.0263284583    -5.7686593665    -1.8976281522
   58      N       5.2885687665    -3.3879830235    -1.7985313769
   59      C       3.7806141453    -5.6299559064    -1.1519685781
   60      C       4.0773754025    -3.2617585978    -1.1169933887
   61      C       3.2444463394    -4.4089558063    -0.7562971998
   62      C       1.8898316595    -4.2388434496    -0.0850633694
   63      C       0.7775599714    -5.1028479102    -0.2519764729
   64      C       1.5847235134    -3.1935341743     0.8402401149
   65      N      -0.4675999465    -4.7832219573     0.0493771883
   66      N       2.5456991352    -2.4687832905     1.3675445913
   67      C       0.3094343581    -2.9562898379     1.3380791402
   68      C      -0.7680088498    -3.6819875411     0.7763594792
   69      S       1.8561471073    -1.5108320849     2.5039747424
   70      N       0.2816660651    -1.9071028516     2.2060017114
   71      C      -2.1599611379    -3.4784865426     1.1894807342
   72      S      -2.8239427697    -2.1886623509     2.2140025480
   73      C      -3.2554770825    -4.2871052984     0.8747276200
   74      C      -4.4591399214    -2.7238787306     2.1638856661
   75      S      -3.2462782745    -5.8896135545     0.0782455604
   76      C      -4.4850673688    -3.9040001171     1.4754706165
   77      C      -5.6555600032    -2.1698917295     2.8602536655
   78      C      -5.0006416536    -6.0176914091     0.5532026082
   79      C      -5.4572467098    -4.8770282297     1.2523616272
   80      N      -5.3745095912    -1.3469311806     3.8381517180
   81      S      -7.2879010764    -2.3787296979     2.3076649183
   82      C      -6.5129424888    -0.7860279059     4.4268876978
   83      C      -7.6285589272    -1.2964265008     3.7642269726
   84      C       7.1573033291    -4.7954030704    -2.7989162760
   85      H       5.3835481193    -6.7674003338    -2.1269131147
   86      H       3.1949523785    -6.4642307259    -0.7759275958
   87      H       3.8342057411    -2.2193045426    -0.9186400209
   88      H       0.9027285946    -6.0157669797    -0.8323225664
   89      H      -5.5124266803    -6.9641259220     0.4409983341
   90      H      -6.3384689566    -4.8443125240     1.8836484355
   91      H      -6.6200478951    -0.0599754226     5.2221142212
   92      H      -8.6662008923    -1.0943745162     3.9939031531
   93      H       7.8531435105    -4.4212391755    -2.0386440735
   94      C       7.3777287236    -4.2123413589    -4.3193052677
   95      H       7.3493725284    -5.8750172915    -2.8106447129
   96      H       6.7586893235    -4.7905452649    -5.0168613331
   97      H       8.3288400171    -4.5818796046    -4.7224340217
   98      C       7.1480825091    -2.7143614733    -4.5297640012
   99      H       7.1153194598    -2.3765523369    -5.5723854905
  100      C       8.3759518222    -1.9722714638    -3.8994201524
  101      H       6.2565776779    -2.3860751713    -3.9819654618
  102      H       9.2373506159    -2.4246831187    -4.4066289977
  103      H       8.5200478790    -2.2532082733    -2.8490850461
  104      C       8.3018890325    -0.3900668775    -3.9735777571
  105      H       9.3195543447     0.0088335821    -3.8770130862
  106      C       7.4707503611     0.0896117865    -2.7941406505
  107      H       7.9258159282     0.0623556576    -4.9001174864
  108      H       6.4123835625     0.1629433528    -3.0751214343
  109      H       7.6876881980     1.1460381961    -2.5931674783
  110      H       7.6190694408    -0.4108877719    -1.8301615829
 ----------------------------------------------------------------

    9   -5663.4655500059      9.68E-06 Convergence criterion met
 Total energy in the final basis set = -5663.4655500059

                    Orbital Energies (a.u.)
 --------------------------------------------------------------

 Alpha MOs
 -- Occupied --
-88.988 -88.981 -88.937 -88.930 -88.924 -88.920 -88.914 -88.908
-14.386 -14.386 -14.378 -14.376 -14.353 -14.347 -14.343 -14.337
-14.337 -14.325 -10.276 -10.268 -10.265 -10.256 -10.255 -10.252
-10.251 -10.249 -10.244 -10.243 -10.242 -10.242 -10.242 -10.240
-10.238 -10.233 -10.233 -10.233 -10.232 -10.232 -10.231 -10.230
-10.229 -10.227 -10.226 -10.225 -10.223 -10.221 -10.218 -10.217
-10.210 -10.210 -10.209 -10.206 -10.203 -10.202 -10.200 -10.200
-10.200 -10.189 -10.186 -10.179 -10.175 -10.173 -10.173 -10.171
-10.171 -10.169 -10.168 -10.159  -8.043  -8.037  -7.997  -7.990
 -7.983  -7.979  -7.972  -7.967  -6.008  -6.003  -6.002  -6.001
 -5.996  -5.994  -5.961  -5.958  -5.954  -5.954  -5.951  -5.948
 -5.947  -5.944  -5.943  -5.940  -5.939  -5.937  -5.935  -5.933
 -5.932  -5.929  -5.929  -5.923  -1.047  -1.039  -0.969  -0.965
 -0.952  -0.939  -0.936  -0.927  -0.917  -0.913  -0.906  -0.903
 -0.840  -0.838  -0.832  -0.829  -0.812  -0.810  -0.804  -0.802
 -0.797  -0.795  -0.792  -0.790  -0.776  -0.775  -0.765  -0.765
 -0.748  -0.745  -0.741  -0.739  -0.720  -0.718  -0.708  -0.706
 -0.693  -0.691  -0.679  -0.667  -0.653  -0.653  -0.644  -0.643
 -0.639  -0.634  -0.629  -0.626  -0.609  -0.607  -0.600  -0.597
 -0.594  -0.589  -0.585  -0.583  -0.577  -0.571  -0.563  -0.558
 -0.547  -0.546  -0.544  -0.534  -0.522  -0.519  -0.517  -0.513
 -0.507  -0.505  -0.498  -0.498  -0.485  -0.482  -0.478  -0.475
 -0.474  -0.472  -0.471  -0.468  -0.462  -0.456  -0.454  -0.442
 -0.441  -0.438  -0.437  -0.435  -0.433  -0.432  -0.430  -0.429
 -0.428  -0.424  -0.423  -0.419  -0.418  -0.414  -0.412  -0.412
 -0.408  -0.406  -0.404  -0.401  -0.400  -0.398  -0.396  -0.395
 -0.392  -0.391  -0.389  -0.386  -0.385  -0.381  -0.379  -0.379
 -0.378  -0.375  -0.370  -0.370  -0.362  -0.360  -0.358  -0.357
 -0.352  -0.349  -0.348  -0.346  -0.346  -0.344  -0.341  -0.340
 -0.335  -0.334  -0.332  -0.332  -0.330  -0.327  -0.321  -0.318
 -0.317  -0.311  -0.308  -0.305  -0.303  -0.300  -0.298  -0.297
 -0.293  -0.288  -0.286  -0.285  -0.283  -0.282  -0.280  -0.277
 -0.276  -0.268  -0.265  -0.261  -0.259  -0.252  -0.249  -0.246
 -0.245  -0.241  -0.234  -0.232  -0.199  -0.192

          Ground-State Mulliken Net Atomic Charges

     Atom                 Charge (a.u.)
  ----------------------------------------
      1 C                     0.273356
      2 C                    -0.141181
      3 N                    -0.474446
      4 C                    -0.060917
      5 C                     0.088282
      6 C                     0.015128
      7 C                     0.056384
      8 C                     0.031766
      9 C                     0.240973
     10 N                    -0.520016
     11 N                    -0.546110
     12 C                     0.207645
     13 C                     0.235276
     14 S                     0.626235
     15 N                    -0.547330
     16 C                    -0.199745
     17 S                     0.348984
     18 C                    -0.119419
     19 C                    -0.195833
     20 S                     0.268157
     21 C                     0.112889
     22 C                     0.049143
     23 C                    -0.321225
     24 C                    -0.056607
     25 N                    -0.434675
     26 S                     0.271407
     27 C                     0.122610
     28 C                    -0.315404
     29 C                    -0.226475
     30 H                     0.079413
     31 H                     0.117642
     32 H                     0.109065
     33 H                     0.112866
     34 H                     0.146446
     35 H                     0.117027
     36 H                     0.121437
     37 H                     0.130553
     38 H                     0.115282
     39 C                    -0.159669
     40 H                     0.096607
     41 H                     0.119511
     42 H                     0.091136
     43 C                    -0.170711
     44 H                     0.097006
     45 C                    -0.179610
     46 H                     0.080976
     47 H                     0.089506
     48 H                     0.087146
     49 C                    -0.176806
     50 H                     0.094034
     51 C                    -0.317330
     52 H                     0.089819
     53 H                     0.106056
     54 H                     0.103412
     55 H                     0.098214
     56 C                     0.297261
     57 C                    -0.123317
     58 N                    -0.501685
     59 C                    -0.103985
     60 C                     0.075552
     61 C                     0.068921
     62 C                     0.041397
     63 C                     0.060357
     64 C                     0.211776
     65 N                    -0.511806
     66 N                    -0.554654
     67 C                     0.213869
     68 C                     0.307351
     69 S                     0.630442
     70 N                    -0.578212
     71 C                    -0.233375
     72 S                     0.352651
     73 C                    -0.128860
     74 C                    -0.205550
     75 S                     0.283035
     76 C                     0.146613
     77 C                     0.070666
     78 C                    -0.315429
     79 C                    -0.091907
     80 N                    -0.439349
     81 S                     0.268261
     82 C                     0.136493
     83 C                    -0.298004
     84 C                    -0.232721
     85 H                     0.097301
     86 H                     0.096094
     87 H                     0.117254
     88 H                     0.106830
     89 H                     0.130820
     90 H                     0.109718
     91 H                     0.137935
     92 H                     0.121771
     93 H                     0.123055
     94 C                    -0.183729
     95 H                     0.096741
     96 H                     0.087993
     97 H                     0.093348
     98 C                    -0.174789
     99 H                     0.090186
    100 C                    -0.169376
    101 H                     0.127267
    102 H                     0.075280
    103 H                     0.093985
    104 C                    -0.183634
    105 H                     0.089220
    106 C                    -0.313783
    107 H                     0.090917
    108 H                     0.109581
    109 H                     0.091033
    110 H                     0.105311
  ----------------------------------------
  Sum of atomic charges =     0.000000

                    Cartesian Multipole Moments
 -----------------------------------------------------------------
    Charge (ESU x 10^10)
                 0.0000
    Dipole Moment (Debye)
         X      -1.1351      Y      -3.8513      Z       0.4171
       Tot       4.0367
    Quadrupole Moments (Debye-Ang)
        XX    -393.1612     XY      -6.3526     YY    -434.6467
        XZ       3.0706     YZ       0.4622     ZZ    -431.1972

 Total job time:  89.88s(wall), 968.69s(cpu)
        *  Thank you very much for using Q-Chem.  Have a nice day.  *
