 Q-Chem 4.4, Q-Chem, Inc., Pleasanton, CA (2016)
 Q-Chem 4.4.2 for Intel X86 Linux

User input:
--------------------------------------------------------------
$comment
SP
$end

$rem
MEM_STATIC 5000
MEM_TOTAL 20000
JOBTYPE SP
EXCHANGE B3LYP
BASIS 6-31g(d,p)
$end

$molecule
0 1
C           3.595000    -18.116000     -6.109000
C           3.152000    -18.434000     -4.811000
N           2.898000    -17.358000     -6.946000
C           1.887000    -17.885000     -4.488000
C           1.719000    -16.843000     -6.607000
C           1.077000    -17.123000     -5.336000
C          -0.243000    -16.634000     -4.898000
C          -0.490000    -15.249000     -4.961000
C          -1.274000    -17.414000     -4.444000
N          -1.691000    -14.726000     -4.548000
N          -1.297000    -18.740000     -4.437000
C          -2.527000    -16.819000     -4.046000
C          -2.692000    -15.462000     -4.038000
S          -2.874000    -19.134000     -4.011000
N          -3.519000    -17.692000     -3.603000
C          -3.773000    -14.715000     -3.391000
S          -4.858000    -15.327000     -2.090000
C          -4.178000    -13.445000     -3.779000
C          -5.549000    -13.761000     -1.954000
S          -3.626000    -12.350000     -5.094000
C          -5.155000    -12.911000     -3.011000
C          -6.595000    -13.546000     -1.007000
C          -4.929000    -11.211000     -4.633000
C          -5.628000    -11.676000     -3.523000
N          -6.939000    -12.301000     -0.784000
S          -7.093000    -14.626000      0.230000
C          -7.642000    -12.182000      0.403000
C          -7.682000    -13.296000      1.147000
C           4.933000    -18.573000     -6.630000
H           3.579000    -19.200000     -4.170000
H           1.524000    -18.153000     -3.499000
H           1.262000    -16.167000     -7.329000
H           0.309000    -14.535000     -5.153000
H          -5.041000    -10.339000     -5.264000
H          -6.400000    -11.034000     -3.112000
H          -8.066000    -11.194000      0.523000
H          -7.994000    -13.544000      2.153000
H           5.090000    -19.573000     -6.207000
C           6.001000    -17.641000     -6.016000
H           5.019000    -18.617000     -7.723000
H           6.966000    -17.978000     -6.413000
H           6.079000    -17.652000     -4.921000
C           5.858000    -16.145000     -6.410000
H           6.048000    -16.088000     -7.489000
C           6.813000    -15.207000     -5.627000
H           4.852000    -15.726000     -6.285000
H           7.813000    -15.565000     -5.902000
H           6.595000    -15.187000     -4.552000
C           6.593000    -13.729000     -5.962000
H           5.531000    -13.506000     -5.804000
C           6.912000    -13.321000     -7.383000
H           7.138000    -13.192000     -5.177000
H           7.973000    -13.552000     -7.537000
H           6.809000    -12.231000     -7.448000
H           6.256000    -13.860000     -8.077000
C          -6.858000    -19.016000     -6.184000
C          -6.642000    -17.786000     -5.521000
N          -7.833000    -19.851000     -5.773000
C          -7.563000    -17.423000     -4.450000
C          -8.687000    -19.511000     -4.723000
C          -8.585000    -18.248000     -3.992000
C          -9.476000    -17.936000     -2.799000
C          -9.106000    -17.140000     -1.685000
C         -10.828000    -18.382000     -2.676000
N          -9.733000    -17.145000     -0.523000
N         -11.466000    -18.870000     -3.716000
C         -11.589000    -18.219000     -1.525000
C         -10.941000    -17.734000     -0.364000
S         -13.023000    -19.099000     -3.260000
N         -12.846000    -18.725000     -1.662000
C         -11.633000    -17.569000      0.918000
S         -13.250000    -18.144000      1.375000
C         -11.160000    -16.893000      2.046000
C         -13.229000    -17.525000      2.981000
S          -9.700000    -15.867000      2.181000
C         -12.072000    -16.814000      3.133000
C         -14.300000    -17.554000      4.018000
C         -10.347000    -15.344000      3.802000
C         -11.577000    -15.964000      4.120000
N         -15.489000    -17.843000      3.554000
S         -14.005000    -17.458000      5.726000
C         -16.461000    -17.935000      4.556000
C         -15.837000    -17.682000      5.777000
C          -5.973000    -19.290000     -7.416000
H          -5.901000    -17.058000     -5.835000
H          -7.583000    -16.453000     -3.961000
H          -9.403000    -20.304000     -4.514000
H          -8.145000    -16.628000     -1.700000
H          -9.881000    -14.514000      4.316000
H         -12.286000    -15.601000      4.856000
H         -17.513000    -18.184000      4.508000
H         -16.310000    -17.640000      6.749000
H          -6.687000    -19.333000     -8.247000
C          -4.912000    -20.541000     -7.319000
H          -5.408000    -18.371000     -7.613000
H          -4.140000    -20.298000     -6.578000
H          -4.224000    -20.509000     -8.173000
C          -5.495000    -21.927000     -7.036000
H          -4.769000    -22.711000     -6.790000
C          -6.184000    -22.410000     -8.358000
H          -6.277000    -21.861000     -6.270000
H          -5.382000    -22.345000     -9.104000
H          -6.925000    -21.684000     -8.714000
C          -6.898000    -23.822000     -8.254000
H          -6.999000    -24.234000     -9.266000
C          -8.285000    -23.597000     -7.673000
H          -6.386000    -24.615000     -7.694000
H          -8.261000    -23.681000     -6.579000
H          -8.931000    -24.450000     -7.915000
H          -8.845000    -22.720000     -8.018000
$end

--------------------------------------------------------------

             Standard Nuclear Orientation (Angstroms)
    I     Atom           X                Y                Z
 ----------------------------------------------------------------
    1      C      -9.9857979713    -0.4071480712    -2.1069627228
    2      C      -8.9758628951    -0.0044355184    -3.0014070987
    3      N      -9.7954303858    -0.5054817385    -0.7973701631
    4      C      -7.7344628845     0.2688484664    -2.3767496907
    5      C      -8.6209760039    -0.2259150571    -0.2381864943
    6      C      -7.4494600242     0.1370818350    -1.0139368186
    7      C      -6.1030704907     0.4175481538    -0.4829576587
    8      C      -5.9826555126     1.3729193146     0.5446459508
    9      C      -4.9418141101    -0.1852231949    -0.8899310235
   10      N      -4.7548013580     1.6962708647     1.0683987073
   11      N      -4.8523556898    -1.2001838925    -1.7388750578
   12      C      -3.6785079231     0.1704954609    -0.2899645945
   13      C      -3.5962759248     1.1680147012     0.6411268424
   14      S      -3.2403781835    -1.6695970560    -1.6694430686
   15      N      -2.5522284893    -0.4994291732    -0.7644512871
   16      C      -2.3770893881     1.8319762948     1.1079439274
   17      S      -0.7833651495     1.8413037432     0.2687025734
   18      C      -2.2620427035     2.4663949023     2.3374748504
   19      C      -0.1869152177     2.9340200198     1.4513063183
   20      S      -3.4148648382     2.6762132869     3.7012678594
   21      C      -1.0681036398     3.0664267229     2.5471897199
   22      C       1.1669604140     3.3772950472     1.3636819842
   23      C      -2.1051255436     3.4712741976     4.6286901626
   24      C      -0.9487211823     3.5831208160     3.8624361010
   25      N       1.5128376743     4.3681384909     2.1489769548
   26      S       2.2350828464     3.1474109633     0.0404885829
   27      C       2.6795019712     4.9703380175     1.7089892860
   28      C       3.1154732178     4.5462294476     0.5147560621
   29      C     -11.3882131122    -0.7071975617    -2.5692787142
   30      H      -9.0179966400    -0.0992058635    -4.0827069319
   31      H      -6.9411576407     0.5492931984    -3.0650312773
   32      H      -8.5854276641    -0.2555025649     0.8503767307
   33      H      -6.8138672110     2.0177152491     0.8246215128
   34      H      -2.3422066096     3.7365850565     5.6506939377
   35      H      -0.1071192687     4.1101723941     4.2994622479
   36      H       3.0611008813     5.6830269440     2.4278611563
   37      H       3.8705688869     4.8654988478    -0.1914886409
   38      H     -11.2810957707    -1.1806571819    -3.5531180625
   39      C     -12.0941321086     0.6495909288    -2.7861827544
   40      H     -11.9692994463    -1.3607362358    -1.9065518673
   41      H     -13.1150795685     0.4150429053    -3.1103069725
   42      H     -11.6544291664     1.3058583142    -3.5485504094
   43      C     -12.2248122277     1.5227319033    -1.5078054450
   44      H     -12.8963977958     0.9822118038    -0.8292770028
   45      C     -12.7526653244     2.9534699076    -1.7894397312
   46      H     -11.2979002572     1.6490717003    -0.9350101460
   47      H     -13.7469092853     2.7839234930    -2.2213216126
   48      H     -12.0619973813     3.5430215230    -2.4050334976
   49      C     -12.7869722887     3.8271010369    -0.5321805366
   50      H     -11.7854831781     3.8082407880    -0.0858613098
   51      C     -13.7487897792     3.3878658530     0.5492285295
   52      H     -12.9313687330     4.8437592057    -0.9158142613
   53      H     -14.7471408590     3.4027013500     0.0954961970
   54      H     -13.7420042602     4.1549577133     1.3331022658
   55      H     -13.4638951848     2.3937067694     0.9138869814
   56      C      -0.7311338432    -3.9157506511     1.3746653177
   57      C      -0.6755979356    -2.5288397813     1.6439588417
   58      N       0.3633731738    -4.5709484138     0.9393019273
   59      C       0.6179171932    -1.8663737819     1.5214500205
   60      C       1.5890300353    -3.9206031015     0.7901971570
   61      C       1.7753054434    -2.4987785595     1.0794210220
   62      C       3.1014363711    -1.7955570665     0.8317714825
   63      C       3.2516205714    -0.4340539118     0.4639864016
   64      C       4.3763954145    -2.4231091513     0.9821271225
   65      N       4.3456278062     0.0789069434    -0.0683831423
   66      N       4.4822740104    -3.5770021635     1.6018921096
   67      C       5.5754639429    -1.8238761483     0.6165515866
   68      C       5.5170409534    -0.5984604684    -0.0891347217
   69      S       6.0822886214    -3.8974117190     1.7499358915
   70      N       6.6487298941    -2.6249271036     0.8640825243
   71      C       6.7157769471     0.0976696924    -0.5666782451
   72      S       8.3865077675    -0.5024101883    -0.6188861223
   73      C       6.7873244175     1.4030979191    -1.0604667670
   74      C       9.0824595099     0.9204979300    -1.2925489901
   75      S       5.5077638669     2.6541440263    -1.0500056477
   76      C       8.0944123158     1.8604089396    -1.3797501154
   77      C      10.5123310428     1.2236605663    -1.5871857414
   78      C       6.8062325792     3.8350743323    -1.5390471752
   79      C       8.0724275195     3.2216855467    -1.6766283189
   80      N      11.3629314488     0.4141441762    -1.0095178755
   81      S      11.0392673121     2.3798105322    -2.7700468594
   82      C      12.6921337320     0.6748970888    -1.3594910299
   83      C      12.6943044736     1.7519907247    -2.2449799273
   84      C      -2.0719440942    -4.6144720617     1.6749006607
   85      H      -1.5128239291    -1.9605031641     2.0360138445
   86      H       0.8143441494    -0.8431062117     1.8292826547
   87      H       2.3586487552    -4.5937019531     0.4162841164
   88      H       2.3693061724     0.2035563768     0.4345853639
   89      H       6.5913910205     4.8952057815    -1.5243361249
   90      H       9.0229886908     3.7434646201    -1.6585712411
   91      H      13.6126297278     0.1769752323    -1.0842276168
   92      H      13.5616069882     2.2300326163    -2.6803410394
   93      H      -1.8239677947    -5.3256989240     2.4716880258
   94      C      -2.9031491495    -5.2312335919     0.3986427045
   95      H      -2.7087069038    -3.8781763725     2.1798727217
   96      H      -3.2541212706    -4.4047402836    -0.2321039814
   97      H      -3.9095176788    -5.5262340305     0.7209486529
   98      C      -2.1873601050    -6.2784900595    -0.4568536046
   99      H      -2.6763408535    -6.5398703168    -1.4028061344
  100      C      -2.1674884842    -7.6079510981     0.3725030531
  101      H      -1.1435618146    -5.9853481407    -0.6217443095
  102      H      -3.2262012868    -7.7839437353     0.6007546541
  103      H      -1.7134065193    -7.4595524632     1.3597620942
  104      C      -1.4176158150    -8.8151378972    -0.3308794972
  105      H      -1.7774483108    -9.7518458307     0.1131788573
  106      C       0.0675033629    -8.6700519945    -0.0387731668
  107      H      -1.5711718737    -8.9555876001    -1.4085099616
  108      H       0.5581267581    -8.0844850873    -0.8267249936
  109      H       0.5689047129    -9.6356147784    -0.1793939213
  110      H       0.3591104541    -8.3517467296     0.9688979416
 ----------------------------------------------------------------

   10   -5663.4647872852      5.02E-06 Convergence criterion met
 Total energy in the final basis set = -5663.4647872852

                    Orbital Energies (a.u.)
 --------------------------------------------------------------

 Alpha MOs
 -- Occupied --
-88.987 -88.987 -88.938 -88.932 -88.924 -88.920 -88.917 -88.907
-14.397 -14.385 -14.384 -14.376 -14.353 -14.348 -14.345 -14.335
-14.332 -14.325 -10.277 -10.267 -10.260 -10.257 -10.257 -10.256
-10.253 -10.251 -10.244 -10.244 -10.244 -10.243 -10.242 -10.242
-10.241 -10.240 -10.236 -10.236 -10.235 -10.234 -10.232 -10.230
-10.230 -10.228 -10.228 -10.228 -10.227 -10.224 -10.221 -10.216
-10.213 -10.209 -10.209 -10.207 -10.206 -10.204 -10.201 -10.200
-10.197 -10.188 -10.184 -10.182 -10.172 -10.172 -10.170 -10.170
-10.169 -10.167 -10.167 -10.159  -8.043  -8.042  -7.998  -7.991
 -7.983  -7.983  -7.975  -7.966  -6.008  -6.007  -6.002  -6.001
 -6.000  -5.999  -5.962  -5.959  -5.955  -5.955  -5.952  -5.948
 -5.947  -5.947  -5.943  -5.943  -5.940  -5.939  -5.939  -5.936
 -5.931  -5.931  -5.927  -5.922  -1.038  -1.032  -0.975  -0.969
 -0.964  -0.954  -0.944  -0.922  -0.917  -0.914  -0.910  -0.902
 -0.846  -0.839  -0.832  -0.827  -0.811  -0.811  -0.806  -0.803
 -0.802  -0.794  -0.793  -0.790  -0.786  -0.772  -0.772  -0.764
 -0.749  -0.748  -0.740  -0.739  -0.732  -0.719  -0.707  -0.707
 -0.692  -0.691  -0.678  -0.671  -0.654  -0.651  -0.648  -0.640
 -0.638  -0.638  -0.631  -0.626  -0.611  -0.609  -0.600  -0.599
 -0.595  -0.594  -0.584  -0.583  -0.575  -0.575  -0.556  -0.553
 -0.552  -0.547  -0.543  -0.538  -0.527  -0.521  -0.518  -0.516
 -0.504  -0.502  -0.501  -0.498  -0.494  -0.483  -0.479  -0.477
 -0.476  -0.470  -0.470  -0.469  -0.458  -0.455  -0.452  -0.451
 -0.445  -0.443  -0.442  -0.438  -0.436  -0.433  -0.432  -0.432
 -0.432  -0.428  -0.427  -0.422  -0.421  -0.419  -0.416  -0.413
 -0.410  -0.406  -0.402  -0.401  -0.400  -0.400  -0.396  -0.396
 -0.393  -0.392  -0.390  -0.389  -0.387  -0.383  -0.381  -0.379
 -0.377  -0.376  -0.375  -0.368  -0.365  -0.363  -0.359  -0.357
 -0.356  -0.351  -0.349  -0.348  -0.347  -0.343  -0.342  -0.338
 -0.337  -0.335  -0.334  -0.331  -0.329  -0.325  -0.323  -0.320
 -0.316  -0.309  -0.308  -0.304  -0.300  -0.300  -0.298  -0.297
 -0.294  -0.289  -0.287  -0.285  -0.284  -0.281  -0.280  -0.278
 -0.275  -0.270  -0.262  -0.261  -0.259  -0.256  -0.248  -0.247
 -0.243  -0.243  -0.238  -0.231  -0.199  -0.194

          Ground-State Mulliken Net Atomic Charges

     Atom                 Charge (a.u.)
  ----------------------------------------
      1 C                     0.272806
      2 C                    -0.110775
      3 N                    -0.461516
      4 C                    -0.078210
      5 C                     0.071703
      6 C                     0.033973
      7 C                    -0.000602
      8 C                     0.065475
      9 C                     0.294636
     10 N                    -0.527800
     11 N                    -0.559245
     12 C                     0.120134
     13 C                     0.296489
     14 S                     0.603297
     15 N                    -0.532665
     16 C                    -0.209812
     17 S                     0.325257
     18 C                    -0.114076
     19 C                    -0.216057
     20 S                     0.258156
     21 C                     0.174170
     22 C                     0.035967
     23 C                    -0.305566
     24 C                    -0.061953
     25 N                    -0.429184
     26 S                     0.290774
     27 C                     0.120685
     28 C                    -0.311158
     29 C                    -0.215868
     30 H                     0.102754
     31 H                     0.093757
     32 H                     0.101595
     33 H                     0.128173
     34 H                     0.138304
     35 H                     0.122978
     36 H                     0.113370
     37 H                     0.142179
     38 H                     0.094349
     39 C                    -0.189851
     40 H                     0.115528
     41 H                     0.092452
     42 H                     0.095772
     43 C                    -0.170707
     44 H                     0.092522
     45 C                    -0.167947
     46 H                     0.099951
     47 H                     0.085863
     48 H                     0.086906
     49 C                    -0.182757
     50 H                     0.089057
     51 C                    -0.308526
     52 H                     0.085623
     53 H                     0.098670
     54 H                     0.099548
     55 H                     0.111436
     56 C                     0.291826
     57 C                    -0.120187
     58 N                    -0.497820
     59 C                    -0.099836
     60 C                     0.077410
     61 C                     0.062868
     62 C                     0.043955
     63 C                     0.070759
     64 C                     0.208062
     65 N                    -0.519277
     66 N                    -0.546899
     67 C                     0.214341
     68 C                     0.308570
     69 S                     0.600764
     70 N                    -0.564293
     71 C                    -0.232557
     72 S                     0.358622
     73 C                    -0.144029
     74 C                    -0.206593
     75 S                     0.299221
     76 C                     0.146131
     77 C                     0.069421
     78 C                    -0.334480
     79 C                    -0.087669
     80 N                    -0.438617
     81 S                     0.266165
     82 C                     0.136045
     83 C                    -0.299064
     84 C                    -0.232190
     85 H                     0.101128
     86 H                     0.102856
     87 H                     0.120417
     88 H                     0.103617
     89 H                     0.126504
     90 H                     0.110352
     91 H                     0.137301
     92 H                     0.121255
     93 H                     0.124231
     94 C                    -0.189558
     95 H                     0.097109
     96 H                     0.086642
     97 H                     0.095168
     98 C                    -0.175914
     99 H                     0.088569
    100 C                    -0.168630
    101 H                     0.128125
    102 H                     0.075682
    103 H                     0.096287
    104 C                    -0.182670
    105 H                     0.089313
    106 C                    -0.311201
    107 H                     0.089013
    108 H                     0.105676
    109 H                     0.086214
    110 H                     0.111829
  ----------------------------------------
  Sum of atomic charges =     0.000000

                    Cartesian Multipole Moments
 -----------------------------------------------------------------
    Charge (ESU x 10^10)
                 0.0000
    Dipole Moment (Debye)
         X       3.6267      Y       3.0573      Z      -1.4349
       Tot       4.9557
    Quadrupole Moments (Debye-Ang)
        XX    -392.3901     XY      20.2238     YY    -444.1153
        XZ      -0.4487     YZ      -3.3282     ZZ    -431.9443

 Total job time:  98.03s(wall), 1066.27s(cpu)
        *  Thank you very much for using Q-Chem.  Have a nice day.  *
