 Q-Chem 4.4, Q-Chem, Inc., Pleasanton, CA (2016)
 Q-Chem 4.4.2 for Intel X86 Linux

User input:
--------------------------------------------------------------
$comment
SP
$end

$rem
MEM_STATIC 5000
MEM_TOTAL 20000
JOBTYPE SP
EXCHANGE B3LYP
BASIS 6-31g(d,p)
$end

$molecule
0 1
C          19.893000      7.375000     -2.507000
C          20.678000      8.412000     -1.971000
N          19.043000      6.662000     -1.725000
C          20.454000      8.768000     -0.657000
C          18.739000      7.089000     -0.478000
C          19.404000      8.190000      0.111000
C          19.005000      8.707000      1.441000
C          17.661000      9.157000      1.737000
C          19.869000      8.704000      2.610000
N          17.205000      9.481000      2.922000
N          21.231000      8.453000      2.614000
C          19.434000      9.148000      3.844000
C          18.059000      9.454000      3.971000
S          21.751000      8.707000      4.127000
N          20.381000      9.295000      4.792000
C          17.408000      9.941000      5.235000
S          18.249000     10.156000      6.843000
C          16.136000     10.498000      5.438000
C          16.794000     10.650000      7.695000
S          14.742000     10.616000      4.371000
C          15.822000     10.890000      6.760000
C          16.819000     10.887000      9.115000
C          13.805000     11.317000      5.718000
C          14.454000     11.280000      6.945000
N          18.020000     10.801000      9.695000
S          15.485000     11.344000     10.180000
C          18.017000     11.194000     11.026000
C          16.729000     11.636000     11.357000
C          19.798000      6.879000     -3.966000
H          21.321000      9.045000     -2.576000
H          21.038000      9.586000     -0.246000
H          17.953000      6.527000      0.024000
H          16.963000      9.055000      0.908000
H          12.779000     11.575000      5.494000
H          13.956000     11.572000      7.862000
H          18.908000     11.194000     11.639000
H          16.547000     11.901000     12.390000
H          20.510000      6.064000     -4.149000
C          20.227000      7.946000     -5.045000
H          18.786000      6.541000     -4.219000
H          20.284000      7.593000     -6.082000
H          21.232000      8.328000     -4.826000
C          19.373000      9.279000     -5.117000
H          18.485000      9.317000     -5.760000
C          20.326000     10.419000     -5.701000
H          19.030000      9.461000     -4.091000
H          20.829000     10.127000     -6.632000
H          21.188000     10.706000     -5.085000
C          19.546000     11.744000     -5.774000
H          20.264000     12.365000     -6.323000
C          19.261000     12.516000     -4.462000
H          18.775000     11.679000     -6.551000
H          18.427000     12.003000     -3.967000
H          18.982000     13.571000     -4.578000
H          20.039000     12.534000     -3.688000
C           6.695000     22.215000     12.502000
C           6.590000     20.779000     12.488000
N           7.859000     22.759000     12.195000
C           7.625000     19.987000     11.978000
C           8.959000     22.031000     11.810000
C           8.793000     20.634000     11.497000
C           9.988000     19.945000     10.889000
C          11.304000     20.358000     11.171000
C           9.948000     18.850000      9.930000
N          12.435000     19.867000     10.726000
N           8.836000     18.340000      9.369000
C          11.103000     18.275000      9.486000
C          12.335000     18.809000      9.938000
S           9.334000     17.183000      8.399000
N          10.941000     17.254000      8.643000
C          13.607000     18.287000      9.414000
S          13.719000     16.643000      8.787000
C          14.833000     18.877000      9.442000
C          15.500000     16.736000      8.661000
S          15.343000     20.471000     10.042000
C          15.849000     18.004000      9.128000
C          16.334000     15.734000      8.038000
C          16.996000     19.956000      9.866000
C          17.117000     18.676000      9.292000
N          17.631000     15.942000      8.055000
S          15.810000     14.189000      7.432000
C          18.279000     14.887000      7.456000
C          17.444000     13.862000      7.003000
C           5.716000     23.085000     13.184000
H           5.667000     20.343000     12.859000
H           7.547000     18.908000     11.886000
H           9.768000     22.614000     11.373000
H          11.407000     21.286000     11.731000
H          17.757000     20.628000     10.240000
H          18.102000     18.281000      9.074000
H          19.358000     14.827000      7.490000
H          17.722000     12.884000      6.632000
H           5.073000     22.410000     13.762000
C           4.922000     24.044000     12.310000
H           6.196000     23.744000     13.917000
H           4.599000     23.583000     11.369000
H           5.600000     24.825000     11.945000
C           3.687000     24.714000     12.914000
H           3.837000     25.193000     13.889000
C           2.429000     23.789000     13.012000
H           3.446000     25.632000     12.363000
H           2.719000     22.783000     13.339000
H           2.071000     23.578000     11.996000
C           1.227000     24.352000     13.896000
H           1.677000     24.579000     14.871000
C           0.175000     23.281000     14.245000
H           0.792000     25.225000     13.395000
H           0.682000     22.360000     14.560000
H          -0.348000     23.014000     13.318000
H          -0.489000     23.548000     15.076000
$end

--------------------------------------------------------------

             Standard Nuclear Orientation (Angstroms)
    I     Atom           X                Y                Z
 ----------------------------------------------------------------
    1      C     -12.3844772464     2.7869247373     0.7728343699
    2      C     -11.9242339782     2.2408148428    -0.4391186478
    3      N     -11.8775722100     2.3788242941     1.9640078721
    4      C     -10.8482727163     1.3790435930    -0.3828543100
    5      C     -10.7506644087     1.6319316844     2.0085526465
    6      C     -10.1533267375     1.1208842603     0.8323871662
    7      C      -8.8715994701     0.3791427714     0.8812213305
    8      C      -7.6608537056     0.9408851489     1.4424629852
    9      C      -8.7196953906    -1.0132269903     0.4922514122
   10      N      -6.5416918933     0.2927711764     1.6535603953
   11      N      -9.6550165723    -1.7739068959    -0.1893653191
   12      C      -7.5141193347    -1.6786315692     0.6060060598
   13      C      -6.4653647916    -1.0031553190     1.2725161826
   14      S      -8.9590482643    -3.2022842358    -0.5047243036
   15      N      -7.4449689271    -2.8906080529     0.0199572358
   16      C      -5.0924230919    -1.5720704718     1.4961959498
   17      S      -4.5523193956    -3.2509891276     1.0179803663
   18      C      -3.9119492860    -0.9409367074     1.9176147024
   19      C      -2.9401413356    -3.0753454485     1.6939953076
   20      S      -3.6316770185     0.6676278017     2.5730662078
   21      C      -2.7580463048    -1.7538001213     2.0053927193
   22      C      -2.0196373903    -4.1825330164     1.6954704721
   23      C      -1.9197773126     0.2347624395     2.8295929610
   24      C      -1.6310835671    -1.1059076843     2.6119727866
   25      N      -2.4416284406    -5.2867787995     1.0719628106
   26      S      -0.3803043663    -4.2523303726     2.3514777626
   27      C      -1.4621925958    -6.2637360342     0.9611522168
   28      C      -0.2690384544    -5.7610929230     1.4974376797
   29      C     -13.4398542056     3.8893332788     1.0064941263
   30      H     -12.2596844431     2.5865413970    -1.4128276060
   31      H     -10.4714357488     0.9756923302    -1.3179493098
   32      H     -10.3479257409     1.4623107080     3.0058862366
   33      H      -7.7809345870     1.9424070535     1.8515882183
   34      H      -1.2979593373     1.0075360952     3.2603821005
   35      H      -0.6565126344    -1.5226984956     2.8370370367
   36      H      -1.6352061816    -7.2145332586     0.4756618079
   37      H       0.5714281457    -6.4397266083     1.5566847495
   38      H     -14.4378482388     3.4528728068     1.1412834659
   39      C     -13.6591991865     4.8510972990    -0.2238183336
   40      H     -13.1958024702     4.5130734236     1.8747014645
   41      H     -14.4817030407     5.5716489928    -0.1371023248
   42      H     -13.8921265813     4.2709067905    -1.1255022042
   43      C     -12.4144584354     5.7116231249    -0.6944612615
   44      H     -12.2374315701     6.6959845981    -0.2437607188
   45      C     -12.6170197685     6.0246021454    -2.2468394496
   46      H     -11.5338953768     5.0969244745    -0.4704004018
   47      H     -13.6023186060     6.4503095497    -2.4770424184
   48      H     -12.6013673194     5.1657693622    -2.9302355656
   49      C     -11.4204348307     6.8463605748    -2.7589444881
   50      H     -11.7751028485     7.1051218809    -3.7638420868
   51      C     -10.0635757064     6.1326527986    -2.9782787691
   52      H     -11.4472090493     7.8525279949    -2.3238522405
   53      H      -9.6078996731     6.0066064862    -1.9882173166
   54      H      -9.3412820704     6.6615585038    -3.6130012741
   55      H     -10.0704049918     5.1123387364    -3.3827495040
   56      C      12.4555463165     1.3096811074     0.0844553661
   57      C      11.6569537471     0.9749830736     1.2349092480
   58      N      11.9323347453     1.1240986405    -1.1142480166
   59      C      10.3026102471     0.6490688992     1.1002889113
   60      C      10.6482363293     0.6810052957    -1.3215365733
   61      C       9.7408159254     0.6322918804    -0.2028993605
   62      C       8.3000716616     0.3343141059    -0.5313429815
   63      C       7.9406784646    -0.4457609052    -1.6468108236
   64      C       7.1373628738     0.8338496843     0.1889892202
   65      N       6.7456042831    -0.7895960622    -2.0613492243
   66      N       7.1650105610     1.7119699361     1.2085506105
   67      C       5.8791371903     0.4537315835    -0.1772953125
   68      C       5.7352501523    -0.3892267036    -1.3068978295
   69      S       5.6478334696     1.9316372799     1.6298259732
   70      N       4.8958572534     0.9406345814     0.5812691451
   71      C       4.3959441207    -0.7483065286    -1.7992036623
   72      S       3.0053930733    -0.7494272400    -0.7153330388
   73      C       4.0515279118    -1.2261715198    -3.0259809547
   74      C       1.9587010785    -1.5197947190    -1.9431179612
   75      S       5.0371322740    -1.5309178126    -4.4739622178
   76      C       2.7698078616    -1.7251815355    -3.0600942555
   77      C       0.5330019337    -1.7102551722    -1.8060203165
   78      C       3.6760391983    -2.3648002692    -5.1672700051
   79      C       2.5257839757    -2.3125995715    -4.3568966282
   80      N      -0.0852136242    -2.3211579901    -2.7910935478
   81      S      -0.4187944768    -1.3799172593    -0.3869370010
   82      C      -1.4212055093    -2.4520562602    -2.4915583647
   83      C      -1.7989429865    -1.9451956385    -1.2451773201
   84      C      13.9199435774     1.4884424495     0.1480953278
   85      H      12.1404567584     1.0166081927     2.2065872746
   86      H       9.6564492519     0.4637136424     1.9528781424
   87      H      10.2809970424     0.7917324254    -2.3404643474
   88      H       8.7446463373    -0.6974552182    -2.3365054172
   89      H       3.8430984355    -2.8678601718    -6.1104576565
   90      H       1.5991833107    -2.7415457494    -4.7190987598
   91      H      -2.0625967321    -3.0412818155    -3.1322045575
   92      H      -2.7474541503    -2.0542108567    -0.7354212467
   93      H      14.2153820749     1.1531063054     1.1498057474
   94      C      14.4594637859     2.8701231486    -0.1893500607
   95      H      14.4428636541     0.8302601921    -0.5556949176
   96      H      13.8466753286     3.6740560901     0.2355183099
   97      H      14.3257821197     3.0431860498    -1.2640818618
   98      C      15.9098663710     3.1862836221     0.1785030298
   99      H      16.6525324075     2.4469125179    -0.1445194593
  100      C      16.1446468963     3.4842191352     1.6963651892
  101      H      16.2855458739     4.0134110020    -0.4372332843
  102      H      15.5630875623     2.7909479269     2.3162270873
  103      H      15.6584194580     4.4366038496     1.9443313846
  104      C      17.6691371321     3.5251572935     2.1627154741
  105      H      18.0886389821     2.5642769535     1.8380908141
  106      C      17.8384718101     3.4733854217     3.6937907303
  107      H      18.1584466979     4.3968620247     1.7120914507
  108      H      17.1749435049     2.7039890101     4.1088501840
  109      H      17.4643769147     4.4207771776     4.1020172239
  110      H      18.8462316945     3.2037355508     4.0321026610
 ----------------------------------------------------------------

    9   -5663.5019434494      9.79E-06 Convergence criterion met
 Total energy in the final basis set = -5663.5019434494

                    Orbital Energies (a.u.)
 --------------------------------------------------------------

 Alpha MOs
 -- Occupied --
-88.995 -88.990 -88.940 -88.920 -88.919 -88.915 -88.914 -88.903
-14.388 -14.386 -14.384 -14.381 -14.355 -14.347 -14.346 -14.333
-14.330 -14.325 -10.275 -10.271 -10.261 -10.259 -10.257 -10.256
-10.254 -10.250 -10.249 -10.244 -10.243 -10.239 -10.239 -10.238
-10.236 -10.235 -10.233 -10.232 -10.232 -10.232 -10.231 -10.230
-10.229 -10.225 -10.223 -10.222 -10.221 -10.220 -10.219 -10.218
-10.217 -10.215 -10.214 -10.212 -10.205 -10.204 -10.203 -10.192
-10.191 -10.185 -10.184 -10.183 -10.183 -10.182 -10.181 -10.180
-10.180 -10.180 -10.178 -10.174  -8.050  -8.047  -8.000  -7.980
 -7.978  -7.975  -7.974  -7.963  -6.015  -6.012  -6.010  -6.008
 -6.006  -6.005  -5.964  -5.961  -5.957  -5.944  -5.942  -5.940
 -5.939  -5.938  -5.938  -5.937  -5.935  -5.935  -5.934  -5.932
 -5.930  -5.928  -5.924  -5.919  -1.054  -1.040  -0.973  -0.968
 -0.966  -0.964  -0.937  -0.934  -0.914  -0.912  -0.905  -0.900
 -0.843  -0.837  -0.833  -0.833  -0.812  -0.811  -0.809  -0.803
 -0.801  -0.801  -0.798  -0.791  -0.785  -0.779  -0.767  -0.764
 -0.751  -0.747  -0.742  -0.734  -0.720  -0.719  -0.712  -0.710
 -0.694  -0.690  -0.679  -0.672  -0.659  -0.655  -0.648  -0.644
 -0.638  -0.633  -0.629  -0.628  -0.617  -0.607  -0.604  -0.596
 -0.594  -0.585  -0.584  -0.581  -0.578  -0.575  -0.571  -0.570
 -0.549  -0.548  -0.542  -0.540  -0.529  -0.522  -0.519  -0.509
 -0.508  -0.506  -0.500  -0.495  -0.490  -0.484  -0.480  -0.478
 -0.476  -0.474  -0.470  -0.466  -0.462  -0.460  -0.454  -0.445
 -0.445  -0.440  -0.440  -0.439  -0.436  -0.431  -0.429  -0.428
 -0.425  -0.424  -0.424  -0.422  -0.421  -0.416  -0.415  -0.415
 -0.412  -0.410  -0.407  -0.405  -0.403  -0.403  -0.398  -0.397
 -0.396  -0.393  -0.392  -0.391  -0.388  -0.386  -0.386  -0.385
 -0.384  -0.376  -0.376  -0.371  -0.369  -0.362  -0.360  -0.358
 -0.358  -0.351  -0.351  -0.349  -0.346  -0.345  -0.344  -0.343
 -0.339  -0.337  -0.330  -0.330  -0.329  -0.326  -0.321  -0.321
 -0.317  -0.312  -0.311  -0.310  -0.306  -0.305  -0.304  -0.304
 -0.299  -0.294  -0.288  -0.287  -0.283  -0.281  -0.280  -0.280
 -0.278  -0.275  -0.265  -0.264  -0.257  -0.256  -0.247  -0.247
 -0.244  -0.238  -0.237  -0.225  -0.198  -0.185

          Ground-State Mulliken Net Atomic Charges

     Atom                 Charge (a.u.)
  ----------------------------------------
      1 C                     0.263042
      2 C                    -0.113181
      3 N                    -0.475566
      4 C                    -0.060368
      5 C                     0.078983
      6 C                     0.020049
      7 C                    -0.026708
      8 C                     0.082542
      9 C                     0.237156
     10 N                    -0.507220
     11 N                    -0.540447
     12 C                     0.221594
     13 C                     0.296421
     14 S                     0.619513
     15 N                    -0.560740
     16 C                    -0.238950
     17 S                     0.331991
     18 C                    -0.105105
     19 C                    -0.239613
     20 S                     0.283692
     21 C                     0.111357
     22 C                     0.081392
     23 C                    -0.301104
     24 C                    -0.077196
     25 N                    -0.433260
     26 S                     0.295121
     27 C                     0.122840
     28 C                    -0.304613
     29 C                    -0.216602
     30 H                     0.103819
     31 H                     0.105987
     32 H                     0.110620
     33 H                     0.111557
     34 H                     0.132370
     35 H                     0.122013
     36 H                     0.131083
     37 H                     0.125912
     38 H                     0.122010
     39 C                    -0.205188
     40 H                     0.126454
     41 H                     0.095531
     42 H                     0.095953
     43 C                    -0.173248
     44 H                     0.094655
     45 C                    -0.187600
     46 H                     0.099008
     47 H                     0.094621
     48 H                     0.087770
     49 C                    -0.188375
     50 H                     0.086204
     51 C                    -0.319330
     52 H                     0.095025
     53 H                     0.106922
     54 H                     0.108053
     55 H                     0.101862
     56 C                     0.292137
     57 C                    -0.134077
     58 N                    -0.481378
     59 C                    -0.055150
     60 C                     0.054568
     61 C                     0.032338
     62 C                     0.038578
     63 C                     0.052410
     64 C                     0.202355
     65 N                    -0.510881
     66 N                    -0.537467
     67 C                     0.241356
     68 C                     0.301121
     69 S                     0.601029
     70 N                    -0.572611
     71 C                    -0.247645
     72 S                     0.305098
     73 C                    -0.098436
     74 C                    -0.230118
     75 S                     0.279903
     76 C                     0.150781
     77 C                     0.056330
     78 C                    -0.304950
     79 C                    -0.070606
     80 N                    -0.438037
     81 S                     0.288910
     82 C                     0.114636
     83 C                    -0.309776
     84 C                    -0.211165
     85 H                     0.089410
     86 H                     0.110978
     87 H                     0.116532
     88 H                     0.100646
     89 H                     0.131789
     90 H                     0.120958
     91 H                     0.113043
     92 H                     0.144061
     93 H                     0.093713
     94 C                    -0.185293
     95 H                     0.124684
     96 H                     0.092403
     97 H                     0.111292
     98 C                    -0.183632
     99 H                     0.087352
    100 C                    -0.177608
    101 H                     0.091636
    102 H                     0.086562
    103 H                     0.089748
    104 C                    -0.178849
    105 H                     0.096373
    106 C                    -0.319756
    107 H                     0.099339
    108 H                     0.100622
    109 H                     0.102489
    110 H                     0.103551
  ----------------------------------------
  Sum of atomic charges =     0.000000

                    Cartesian Multipole Moments
 -----------------------------------------------------------------
    Charge (ESU x 10^10)
                 0.0000
    Dipole Moment (Debye)
         X      -0.5754      Y      -0.6614      Z       1.6477
       Tot       1.8664
    Quadrupole Moments (Debye-Ang)
        XX    -432.5218     XY      -6.0942     YY    -426.5404
        XZ      46.9179     YZ       0.6129     ZZ    -440.7735

 Total job time:  87.28s(wall), 938.85s(cpu)
        *  Thank you very much for using Q-Chem.  Have a nice day.  *
