 Q-Chem 4.4, Q-Chem, Inc., Pleasanton, CA (2016)
 Q-Chem 4.4.2 for Intel X86 Linux

User input:
--------------------------------------------------------------
$comment
SP
$end

$rem
MEM_STATIC 5000
MEM_TOTAL 20000
JOBTYPE SP
EXCHANGE B3LYP
BASIS 6-31g(d,p)
$end

$molecule
0 1
C          20.784000     12.354000      3.111000
C          20.010000     12.785000      4.185000
N          22.096000     11.977000      3.185000
C          20.649000     12.759000      5.442000
C          22.682000     12.030000      4.420000
C          22.020000     12.378000      5.603000
C          22.572000     12.172000      7.013000
C          21.874000     12.867000      8.120000
C          23.826000     11.579000      7.414000
N          22.349000     12.921000      9.381000
N          24.652000     10.936000      6.540000
C          24.265000     11.757000      8.769000
C          23.487000     12.338000      9.777000
S          25.982000     10.621000      7.515000
N          25.500000     11.267000      8.992000
C          23.910000     12.453000     11.151000
S          25.546000     12.310000     11.841000
C          23.052000     12.677000     12.196000
C          25.037000     12.643000     13.456000
S          21.329000     12.881000     12.169000
C          23.684000     12.871000     13.434000
C          25.816000     12.826000     14.612000
C          21.436000     13.254000     13.892000
C          22.728000     13.215000     14.448000
N          27.106000     12.485000     14.396000
S          25.513000     13.551000     16.208000
C          27.827000     12.812000     15.510000
C          27.081000     13.116000     16.621000
C          20.015000     12.156000      1.783000
H          18.966000     13.050000      4.049000
H          19.984000     13.080000      6.239000
H          23.696000     11.634000      4.456000
H          20.985000     13.483000      7.993000
H          20.449000     13.353000     14.322000
H          22.930000     13.409000     15.495000
H          28.894000     12.634000     15.550000
H          27.399000     13.491000     17.585000
H          20.475000     11.308000      1.260000
C          20.168000     13.362000      0.884000
H          18.938000     11.983000      1.901000
H          21.230000     13.630000      0.836000
H          19.632000     14.160000      1.413000
C          19.682000     13.100000     -0.582000
H          19.710000     14.089000     -1.057000
C          18.244000     12.564000     -0.674000
H          20.430000     12.468000     -1.077000
H          18.196000     11.522000     -0.334000
H          17.947000     12.452000     -1.724000
C          17.064000     13.353000      0.034000
H          17.519000     13.738000      0.955000
C          15.840000     12.491000      0.396000
H          16.766000     14.211000     -0.581000
H          14.998000     13.040000      0.837000
H          16.080000     11.673000      1.086000
H          15.487000     11.952000     -0.492000
C           6.695000     22.215000     12.502000
C           6.590000     20.779000     12.488000
N           7.859000     22.759000     12.195000
C           7.625000     19.987000     11.978000
C           8.959000     22.031000     11.810000
C           8.793000     20.634000     11.497000
C           9.988000     19.945000     10.889000
C          11.304000     20.358000     11.171000
C           9.948000     18.850000      9.930000
N          12.435000     19.867000     10.726000
N           8.836000     18.340000      9.369000
C          11.103000     18.275000      9.486000
C          12.335000     18.809000      9.938000
S           9.334000     17.183000      8.399000
N          10.941000     17.254000      8.643000
C          13.607000     18.287000      9.414000
S          13.719000     16.643000      8.787000
C          14.833000     18.877000      9.442000
C          15.500000     16.736000      8.661000
S          15.343000     20.471000     10.042000
C          15.849000     18.004000      9.128000
C          16.334000     15.734000      8.038000
C          16.996000     19.956000      9.866000
C          17.117000     18.676000      9.292000
N          17.631000     15.942000      8.055000
S          15.810000     14.189000      7.432000
C          18.279000     14.887000      7.456000
C          17.444000     13.862000      7.003000
C           5.716000     23.085000     13.184000
H           5.667000     20.343000     12.859000
H           7.547000     18.908000     11.886000
H           9.768000     22.614000     11.373000
H          11.407000     21.286000     11.731000
H          17.757000     20.628000     10.240000
H          18.102000     18.281000      9.074000
H          19.358000     14.827000      7.490000
H          17.722000     12.884000      6.632000
H           5.073000     22.410000     13.762000
C           4.922000     24.044000     12.310000
H           6.196000     23.744000     13.917000
H           4.599000     23.583000     11.369000
H           5.600000     24.825000     11.945000
C           3.687000     24.714000     12.914000
H           3.837000     25.193000     13.889000
C           2.429000     23.789000     13.012000
H           3.446000     25.632000     12.363000
H           2.719000     22.783000     13.339000
H           2.071000     23.578000     11.996000
C           1.227000     24.352000     13.896000
H           1.677000     24.579000     14.871000
C           0.175000     23.281000     14.245000
H           0.792000     25.225000     13.395000
H           0.682000     22.360000     14.560000
H          -0.348000     23.014000     13.318000
H          -0.489000     23.548000     15.076000
$end

--------------------------------------------------------------

             Standard Nuclear Orientation (Angstroms)
    I     Atom           X                Y                Z
 ----------------------------------------------------------------
    1      C      -5.8429978812    -5.7279918141     0.1762411328
    2      C      -4.8310143770    -4.8002439081    -0.0550297258
    3      N      -7.1560447897    -5.4230142649     0.4039372256
    4      C      -5.2445780599    -3.4530617731    -0.1108094314
    5      C      -7.4886401252    -4.0960687686     0.3988389286
    6      C      -6.6001661024    -3.0518772002     0.1175652553
    7      C      -7.0044529289    -1.6064712771    -0.1698262534
    8      C      -5.9292576706    -0.5870855436    -0.1477835066
    9      C      -8.3290503698    -1.0354149176    -0.2354178211
   10      N      -6.1614412778     0.7400394554    -0.2068767348
   11      N      -9.4622507715    -1.7937154267    -0.2144848895
   12      C      -8.4593555767     0.3940489836    -0.2262795270
   13      C      -7.3808336323     1.2818272698    -0.3131652566
   14      S     -10.6500335399    -0.6089694959    -0.1489168007
   15      N      -9.7405218849     0.8065285212    -0.1668865826
   16      C      -7.5247588472     2.7157243622    -0.3702148933
   17      S      -8.9327777663     3.7233770856     0.0483107479
   18      C      -6.5414571686     3.5631280591    -0.8099759458
   19      C      -8.1312759267     5.2145982298    -0.2864269109
   20      S      -4.9466133955     3.1828031144    -1.3782190942
   21      C      -6.8468148839     4.9261815931    -0.6737932403
   22      C      -8.5800925250     6.5301421440    -0.0753016616
   23      C      -4.6495002013     4.9228122013    -1.4365211296
   24      C      -5.7249810965     5.7412348042    -1.0447989229
   25      N      -9.8927679129     6.5573888768     0.2459115724
   26      S      -7.7743136027     8.1130477790     0.0235926212
   27      C     -10.2278720934     7.8429040134     0.5667261947
   28      C      -9.2960077666     8.7918887387     0.2286287715
   29      C      -5.4313040285    -7.2089744299    -0.0008115800
   30      H      -3.8123393645    -5.1226934101    -0.2473433697
   31      H      -4.4140822384    -2.7847858868    -0.3209499328
   32      H      -8.5557511309    -3.8977015833     0.4895723912
   33      H      -4.8778689038    -0.8090715406     0.0288796705
   34      H      -3.6892604464     5.1300432531    -1.8880351430
   35      H      -5.6792999185     6.8240767650    -1.0487381991
   36      H     -11.2371607988     8.0924093879     0.8681501108
   37      H      -9.2757342025     9.8504453691     0.4524408419
   38      H      -6.2994880643    -7.7456190508    -0.4039269864
   39      C      -5.1032620744    -7.8426007755     1.3322120997
   40      H      -4.5604054744    -7.3658844298    -0.6494231436
   41      H      -5.9073202087    -7.6063937406     2.0390846153
   42      H      -4.1918538501    -7.3253969727     1.6574447473
   43      C      -4.9856253770    -9.4029117852     1.2574647890
   44      H      -4.5992237973    -9.6924940353     2.2430437761
   45      C      -3.9985178897    -9.9016762319     0.1895430526
   46      H      -5.9987320696    -9.8128346452     1.1598375475
   47      H      -4.4093654577    -9.7548971398    -0.8170989761
   48      H      -3.9228583895   -10.9954587021     0.2237270817
   49      C      -2.5080844445    -9.3587840666     0.1817172944
   50      H      -2.6077585928    -8.3091079364     0.4845969499
   51      C      -1.8060440008    -9.4261308473    -1.1875407625
   52      H      -1.9171517894    -9.8774475515     0.9465570075
   53      H      -0.7571234096    -9.1026984790    -1.1893004393
   54      H      -2.3181641812    -8.8419618760    -1.9616877342
   55      H      -1.8642833264   -10.4461527061    -1.5873376969
   56      C      12.2777057304     1.7263499951     0.2311211314
   57      C      11.6856378665     1.4562593681    -1.0533334991
   58      N      11.4837634497     1.7814426913     1.2854936698
   59      C      10.3446297534     1.0705047970    -1.1604766351
   60      C      10.1319761594     1.5407886516     1.2310349256
   61      C       9.5745727635     0.9760362795     0.0279180516
   62      C       8.1309263693     0.5488225501     0.1039674959
   63      C       7.2152360990     1.1827379473     0.9651362355
   64      C       7.5271754931    -0.5592480017    -0.6226483115
   65      N       5.9415412271     0.9298680259     1.1440920290
   66      N       8.1845254769    -1.4310827141    -1.4095156657
   67      C       6.1928081631    -0.8193908086    -0.5061341545
   68      C       5.4288022972    -0.0213991348     0.3808767391
   69      S       7.0811924143    -2.4387912170    -1.9524085890
   70      N       5.7448535095    -1.8314397725    -1.2507330553
   71      C       4.0077517021    -0.3234911860     0.6141139548
   72      S       3.0519755322    -1.1674892432    -0.6034936144
   73      C       3.2230878595     0.0748694195     1.6521753606
   74      C       1.5286765475    -0.8729238245     0.2849192499
   75      S       3.6098065278     1.0246952835     3.1044892040
   76      C       1.8844331868    -0.1399901956     1.4180386211
   77      C       0.2491132684    -1.4465269259    -0.0634861128
   78      C       1.9031672539     1.1437729021     3.4235705564
   79      C       1.1189390168     0.4117879161     2.5115941025
   80      N      -0.7801544968    -1.1047564171     0.6778389083
   81      S      -0.1028835137    -2.3973144776    -1.4780313743
   82      C      -1.9198425408    -1.7057312496     0.1965173806
   83      C      -1.7350150585    -2.4950785617    -0.9418273048
   84      C      13.6282409294     2.3026093965     0.3874693915
   85      H      12.3287866646     1.5343808316    -1.9250689294
   86      H       9.8888890744     0.7894776896    -2.1049940772
   87      H       9.6497891205     1.3974726845     2.1965892707
   88      H       7.6354179030     1.8945271358     1.6737944061
   89      H       1.6054342182     1.7832940373     4.2439050961
   90      H       0.0461360617     0.3597583797     2.6535826475
   91      H      -2.8843024372    -1.4401434455     0.6067334534
   92      H      -2.4875279335    -2.9477111349    -1.5744860805
   93      H      13.9395530766     2.6037975315    -0.6202649259
   94      C      14.6672610103     1.4399484464     1.0876453383
   95      H      13.6136135864     3.2217451041     0.9849186294
   96      H      14.6133570990     0.3884096048     0.7815547750
   97      H      14.4021430851     1.3684779291     2.1494713367
   98      C      16.1362447026     1.8512401976     0.9787095453
   99      H      16.3536454778     2.8994601469     1.2164864172
  100      C      16.8053244883     1.5123789094    -0.3943520949
  101      H      16.7139201674     1.4166216689     1.8044236556
  102      H      16.1154471556     1.7285231058    -1.2192253895
  103      H      16.8913377257     0.4214792757    -0.4808432056
  104      C      18.2294027955     2.1827460330    -0.6509410550
  105      H      18.0657486691     3.2575402502    -0.5003133096
  106      C      18.6807281491     2.1076751262    -2.1227480343
  107      H      18.9609405440     1.7452350175     0.0388354550
  108      H      17.8406429941     2.3748847863    -2.7764841659
  109      H      18.8949385588     1.0560901088    -2.3517236914
  110      H      19.4889208525     2.8000794712    -2.3876004028
 ----------------------------------------------------------------

   10   -5663.5088679390      3.95E-06 Convergence criterion met
 Total energy in the final basis set = -5663.5088679390

                    Orbital Energies (a.u.)
 --------------------------------------------------------------

 Alpha MOs
 -- Occupied --
-88.995 -88.984 -88.933 -88.931 -88.922 -88.921 -88.911 -88.908
-14.394 -14.393 -14.389 -14.385 -14.351 -14.349 -14.344 -14.344
-14.336 -14.328 -10.271 -10.268 -10.266 -10.261 -10.261 -10.258
-10.258 -10.253 -10.249 -10.242 -10.240 -10.238 -10.238 -10.237
-10.235 -10.235 -10.234 -10.233 -10.232 -10.232 -10.231 -10.230
-10.229 -10.227 -10.227 -10.226 -10.226 -10.225 -10.225 -10.223
-10.218 -10.217 -10.210 -10.210 -10.208 -10.207 -10.202 -10.196
-10.186 -10.185 -10.185 -10.183 -10.182 -10.182 -10.182 -10.181
-10.180 -10.178 -10.178 -10.175  -8.051  -8.039  -7.995  -7.993
 -7.981  -7.980  -7.971  -7.968  -6.016  -6.010  -6.009  -6.004
 -5.999  -5.997  -5.959  -5.957  -5.955  -5.953  -5.952  -5.950
 -5.946  -5.944  -5.942  -5.941  -5.938  -5.937  -5.935  -5.932
 -5.932  -5.928  -5.928  -5.924  -1.058  -1.025  -0.977  -0.975
 -0.971  -0.957  -0.937  -0.931  -0.918  -0.916  -0.910  -0.905
 -0.847  -0.842  -0.837  -0.825  -0.820  -0.816  -0.814  -0.809
 -0.807  -0.804  -0.796  -0.796  -0.782  -0.782  -0.769  -0.765
 -0.751  -0.750  -0.742  -0.739  -0.726  -0.722  -0.713  -0.711
 -0.696  -0.694  -0.679  -0.674  -0.658  -0.654  -0.652  -0.646
 -0.638  -0.638  -0.631  -0.624  -0.616  -0.612  -0.602  -0.597
 -0.596  -0.596  -0.590  -0.584  -0.582  -0.581  -0.572  -0.554
 -0.552  -0.547  -0.544  -0.542  -0.528  -0.526  -0.518  -0.516
 -0.511  -0.508  -0.502  -0.501  -0.488  -0.487  -0.484  -0.479
 -0.477  -0.472  -0.470  -0.467  -0.461  -0.461  -0.452  -0.450
 -0.448  -0.442  -0.439  -0.438  -0.437  -0.435  -0.435  -0.432
 -0.430  -0.427  -0.424  -0.423  -0.423  -0.420  -0.418  -0.416
 -0.414  -0.411  -0.408  -0.403  -0.403  -0.401  -0.400  -0.399
 -0.396  -0.392  -0.392  -0.391  -0.389  -0.389  -0.389  -0.386
 -0.381  -0.380  -0.378  -0.377  -0.367  -0.364  -0.360  -0.358
 -0.356  -0.355  -0.351  -0.350  -0.349  -0.346  -0.346  -0.341
 -0.341  -0.338  -0.337  -0.334  -0.331  -0.328  -0.323  -0.322
 -0.321  -0.315  -0.314  -0.312  -0.308  -0.307  -0.306  -0.305
 -0.303  -0.296  -0.295  -0.293  -0.290  -0.289  -0.287  -0.285
 -0.280  -0.272  -0.270  -0.269  -0.256  -0.253  -0.251  -0.249
 -0.245  -0.243  -0.231  -0.229  -0.193  -0.192

          Ground-State Mulliken Net Atomic Charges

     Atom                 Charge (a.u.)
  ----------------------------------------
      1 C                     0.268144
      2 C                    -0.104593
      3 N                    -0.486354
      4 C                    -0.090015
      5 C                     0.051225
      6 C                     0.061081
      7 C                     0.024071
      8 C                     0.066002
      9 C                     0.225288
     10 N                    -0.524926
     11 N                    -0.554170
     12 C                     0.207653
     13 C                     0.301258
     14 S                     0.590078
     15 N                    -0.558726
     16 C                    -0.202553
     17 S                     0.364518
     18 C                    -0.113470
     19 C                    -0.212408
     20 S                     0.290763
     21 C                     0.124464
     22 C                     0.053767
     23 C                    -0.307997
     24 C                    -0.084584
     25 N                    -0.423020
     26 S                     0.292249
     27 C                     0.105657
     28 C                    -0.297224
     29 C                    -0.226020
     30 H                     0.098981
     31 H                     0.075663
     32 H                     0.132370
     33 H                     0.103664
     34 H                     0.131797
     35 H                     0.115041
     36 H                     0.113130
     37 H                     0.134562
     38 H                     0.111904
     39 C                    -0.182811
     40 H                     0.103617
     41 H                     0.107855
     42 H                     0.091883
     43 C                    -0.181903
     44 H                     0.094432
     45 C                    -0.188356
     46 H                     0.102703
     47 H                     0.093907
     48 H                     0.089344
     49 C                    -0.174427
     50 H                     0.091860
     51 C                    -0.325205
     52 H                     0.099212
     53 H                     0.104853
     54 H                     0.101760
     55 H                     0.104362
     56 C                     0.293084
     57 C                    -0.134034
     58 N                    -0.480879
     59 C                    -0.054598
     60 C                     0.055482
     61 C                     0.031201
     62 C                     0.040922
     63 C                     0.052639
     64 C                     0.201953
     65 N                    -0.509017
     66 N                    -0.535918
     67 C                     0.242214
     68 C                     0.301489
     69 S                     0.607015
     70 N                    -0.572422
     71 C                    -0.244674
     72 S                     0.312955
     73 C                    -0.098304
     74 C                    -0.233212
     75 S                     0.284029
     76 C                     0.151666
     77 C                     0.070757
     78 C                    -0.302925
     79 C                    -0.071516
     80 N                    -0.443050
     81 S                     0.281714
     82 C                     0.135467
     83 C                    -0.327425
     84 C                    -0.211529
     85 H                     0.090741
     86 H                     0.112080
     87 H                     0.116964
     88 H                     0.102158
     89 H                     0.134962
     90 H                     0.123034
     91 H                     0.109320
     92 H                     0.140255
     93 H                     0.094256
     94 C                    -0.185298
     95 H                     0.125307
     96 H                     0.092534
     97 H                     0.111335
     98 C                    -0.183510
     99 H                     0.087545
    100 C                    -0.177638
    101 H                     0.091921
    102 H                     0.086434
    103 H                     0.089854
    104 C                    -0.179005
    105 H                     0.096404
    106 C                    -0.319470
    107 H                     0.099543
    108 H                     0.100554
    109 H                     0.102523
    110 H                     0.103747
  ----------------------------------------
  Sum of atomic charges =     0.000000

                    Cartesian Multipole Moments
 -----------------------------------------------------------------
    Charge (ESU x 10^10)
                 0.0000
    Dipole Moment (Debye)
         X       2.7137      Y       1.7800      Z      -2.4919
       Tot       4.0917
    Quadrupole Moments (Debye-Ang)
        XX    -445.2481     XY     -25.7623     YY    -407.9833
        XZ     -21.4123     YZ       7.4043     ZZ    -443.4787

 Total job time:  93.55s(wall), 1007.30s(cpu)
        *  Thank you very much for using Q-Chem.  Have a nice day.  *
