 Q-Chem 4.4, Q-Chem, Inc., Pleasanton, CA (2016)
 Q-Chem 4.4.2 for Intel X86 Linux

User input:
--------------------------------------------------------------
$comment
SP
$end

$rem
MEM_STATIC 5000
MEM_TOTAL 20000
JOBTYPE SP
EXCHANGE B3LYP
BASIS 6-31g(d,p)
$end

$molecule
0 1
C           1.881000     19.603000     10.990000
C           3.262000     19.890000     11.033000
N           1.274000     18.867000     10.017000
C           4.061000     19.367000      9.974000
C           2.009000     18.528000      8.971000
C           3.456000     18.636000      8.947000
C           4.249000     18.107000      7.830000
C           5.451000     17.358000      8.074000
C           3.897000     18.088000      6.446000
N           6.313000     16.885000      7.147000
N           2.753000     18.551000      5.970000
C           4.766000     17.536000      5.425000
C           6.051000     17.064000      5.799000
S           2.736000     18.317000      4.322000
N           4.190000     17.589000      4.180000
C           7.107000     16.580000      4.924000
S           8.389000     15.450000      5.392000
C           7.349000     16.994000      3.582000
C           9.360000     15.859000      3.980000
S           6.436000     17.826000      2.390000
C           8.615000     16.623000      3.112000
C          10.737000     15.368000      3.807000
C           7.801000     17.938000      1.359000
C           8.844000     17.174000      1.825000
N          11.237000     15.402000      2.615000
S          11.740000     14.868000      5.081000
C          12.489000     14.919000      2.555000
C          12.998000     14.692000      3.867000
C           0.876000     20.133000     12.021000
H           3.644000     20.434000     11.892000
H           5.141000     19.483000      9.939000
H           1.435000     18.002000      8.210000
H           5.661000     17.181000      9.128000
H           7.725000     18.398000      0.382000
H           9.732000     16.906000      1.265000
H          12.992000     14.975000      1.599000
H          14.041000     14.491000      4.073000
H           1.237000     21.141000     12.259000
C           0.958000     19.260000     13.317000
H          -0.181000     20.220000     11.742000
H           0.539000     19.807000     14.171000
H           1.999000     19.108000     13.630000
C           0.389000     17.885000     13.086000
H          -0.699000     17.972000     12.979000
C           0.751000     16.796000     14.160000
H           0.578000     17.379000     12.130000
H           1.835000     16.629000     14.206000
H           0.321000     15.852000     13.804000
C           0.335000     17.093000     15.673000
H           0.879000     17.957000     16.073000
C           0.542000     15.839000     16.597000
H          -0.678000     17.513000     15.683000
H           1.575000     15.708000     16.941000
H           0.223000     14.963000     16.019000
H          -0.140000     15.914000     17.454000
C           6.695000     22.215000     12.502000
C           6.590000     20.779000     12.488000
N           7.859000     22.759000     12.195000
C           7.625000     19.987000     11.978000
C           8.959000     22.031000     11.810000
C           8.793000     20.634000     11.497000
C           9.988000     19.945000     10.889000
C          11.304000     20.358000     11.171000
C           9.948000     18.850000      9.930000
N          12.435000     19.867000     10.726000
N           8.836000     18.340000      9.369000
C          11.103000     18.275000      9.486000
C          12.335000     18.809000      9.938000
S           9.334000     17.183000      8.399000
N          10.941000     17.254000      8.643000
C          13.607000     18.287000      9.414000
S          13.719000     16.643000      8.787000
C          14.833000     18.877000      9.442000
C          15.500000     16.736000      8.661000
S          15.343000     20.471000     10.042000
C          15.849000     18.004000      9.128000
C          16.334000     15.734000      8.038000
C          16.996000     19.956000      9.866000
C          17.117000     18.676000      9.292000
N          17.631000     15.942000      8.055000
S          15.810000     14.189000      7.432000
C          18.279000     14.887000      7.456000
C          17.444000     13.862000      7.003000
C           5.716000     23.085000     13.184000
H           5.667000     20.343000     12.859000
H           7.547000     18.908000     11.886000
H           9.768000     22.614000     11.373000
H          11.407000     21.286000     11.731000
H          17.757000     20.628000     10.240000
H          18.102000     18.281000      9.074000
H          19.358000     14.827000      7.490000
H          17.722000     12.884000      6.632000
H           5.073000     22.410000     13.762000
C           4.922000     24.044000     12.310000
H           6.196000     23.744000     13.917000
H           4.599000     23.583000     11.369000
H           5.600000     24.825000     11.945000
C           3.687000     24.714000     12.914000
H           3.837000     25.193000     13.889000
C           2.429000     23.789000     13.012000
H           3.446000     25.632000     12.363000
H           2.719000     22.783000     13.339000
H           2.071000     23.578000     11.996000
C           1.227000     24.352000     13.896000
H           1.677000     24.579000     14.871000
C           0.175000     23.281000     14.245000
H           0.792000     25.225000     13.395000
H           0.682000     22.360000     14.560000
H          -0.348000     23.014000     13.318000
H          -0.489000     23.548000     15.076000
$end

--------------------------------------------------------------

             Standard Nuclear Orientation (Angstroms)
    I     Atom           X                Y                Z
 ----------------------------------------------------------------
    1      C       6.8500209190    -0.5992597577    -0.4605604226
    2      C       5.7310927273     0.1818114098    -0.1009682463
    3      N       6.8061577932    -1.9335358972    -0.7337951381
    4      C       4.4762377658    -0.4906935063    -0.0204253175
    5      C       5.6642933266    -2.5590494054    -0.5011142599
    6      C       4.4113934332    -1.8658911317    -0.2648464780
    7      C       3.1379842024    -2.5902378276    -0.1641995954
    8      C       1.9624834748    -2.1031848028    -0.8322702433
    9      C       2.9139831742    -3.8797831149     0.4073049902
   10      N       0.7166150291    -2.6216406725    -0.7607347478
   11      N       3.8694873363    -4.6304014613     0.9300524381
   12      C       1.6038633337    -4.4994259262     0.4512912366
   13      C       0.4827257820    -3.7688630399    -0.0211634802
   14      S       3.1893126021    -6.0548476608     1.4585071245
   15      N       1.6504004296    -5.7549530744     1.0045505599
   16      C      -0.9171857122    -4.1589267196     0.0346499058
   17      S      -2.1845715257    -3.5907857107    -1.0655305311
   18      C      -1.5265516019    -4.9820109216     1.0256744307
   19      C      -3.4639516479    -4.1328695374     0.0176119469
   20      S      -0.9442751438    -6.0709851616     2.2180444366
   21      C      -2.9249473729    -4.9062027914     1.0193978869
   22      C      -4.8803476657    -3.8085145098    -0.2185133099
   23      C      -2.5084591124    -6.2286207340     2.9015717137
   24      C      -3.4633857540    -5.6415291087     2.1064996839
   25      N      -5.7663075048    -4.5271034016     0.3903587359
   26      S      -5.4173110775    -2.4917634713    -1.1442141239
   27      C      -7.0272374839    -4.1667118384     0.0995555225
   28      C      -7.0380582557    -2.9508896937    -0.6444965074
   29      C       8.2775278256    -0.0427728997    -0.5407627187
   30      H       5.8756039463     1.2500207362     0.0323972005
   31      H       3.5445218606     0.0255954028     0.1950560838
   32      H       5.7313201180    -3.6309383220    -0.6795366791
   33      H       2.1304311642    -1.2171205829    -1.4430310572
   34      H      -2.6855059005    -6.8881157893     3.7415870152
   35      H      -4.5344053307    -5.7773556059     2.1983486305
   36      H      -7.8195239699    -4.6851970695     0.6225623957
   37      H      -7.9341758079    -2.3711867860    -0.8222712848
   38      H       8.3336572782     0.6807782359     0.2816436521
   39      C       8.4551424199     0.7286305643    -1.8905251984
   40      H       9.1260754746    -0.7290701640    -0.4329575592
   41      H       9.3038561910     1.4209691344    -1.8239050895
   42      H       7.6154138248     1.4115512441    -2.0728140673
   43      C       8.4817601030    -0.2182923721    -3.0611555634
   44      H       9.4232954455    -0.7799769702    -3.0331625100
   45      C       8.2673881309     0.4261972781    -4.4785894237
   46      H       7.8081153502    -1.0853969745    -3.0661909926
   47      H       7.2836097222     0.9078908395    -4.5507860676
   48      H       8.2449177029    -0.4018152645    -5.1973816810
   49      C       9.2949452723     1.5626171238    -4.9292669755
   50      H       9.2113782717     2.4504561314    -4.2911522108
   51      C       9.1134203503     1.9542519146    -6.4401646865
   52      H      10.3086494797     1.2503802206    -4.6507335013
   53      H       8.2984731958     2.6660728715    -6.6183726008
   54      H       8.9275236111     1.0229450043    -6.9891007858
   55      H      10.0622922760     2.3565580519    -6.8183046613
   56      C       3.9223918985     3.8050775523     1.6164771742
   57      C       3.6062123389     3.2276224080     0.3358940873
   58      N       2.9330278600     4.2947558734     2.3420493216
   59      C       2.2776987461     3.0119050936    -0.0476507912
   60      C       1.6129980074     4.2334027815     1.9652655823
   61      C       1.2472826113     3.3998850775     0.8478424367
   62      C      -0.2306120081     3.2165343980     0.6141331677
   63      C      -1.1656407948     4.2059380165     0.9729515727
   64      C      -0.8691848135     2.0282318452     0.0659837219
   65      N      -2.4693231173     4.1958816699     0.8366494380
   66      N      -0.2475761041     0.8733178167    -0.2359122854
   67      C      -2.2172072828     1.9998999987    -0.1433455139
   68      C      -2.9793650425     3.1312098773     0.2394566648
   69      S      -1.3814638965    -0.0957413810    -0.7861629060
   70      N      -2.6832743904     0.8752293726    -0.6885348699
   71      C      -4.4460747166     3.1117667706     0.1235744071
   72      S      -5.2458595966     2.0648649560    -1.0480696243
   73      C      -5.3491625467     3.9176930391     0.7455673498
   74      C      -6.8360118078     2.8256586102    -0.7495818337
   75      S      -5.1213944046     5.2143328626     1.9404660241
   76      C      -6.6088357629     3.8224000573     0.2004768658
   77      C      -8.0896821368     2.3493725088    -1.2873096978
   78      C      -6.7886906200     5.6561108866     1.7090237908
   79      C      -7.4739323045     4.7873588815     0.8382593063
   80      N      -9.1667659520     3.0418624761    -0.9938644726
   81      S      -8.2936540013     1.0590145582    -2.4371830986
   82      C     -10.2623837979     2.4792939352    -1.6061292620
   83      C      -9.9880526501     1.3551402755    -2.3897618103
   84      C       5.2891962323     4.2140067827     1.9973810960
   85      H       4.4381534065     2.9407825429    -0.3007085767
   86      H       2.0082144316     2.5125578612    -0.9732962664
   87      H       0.8975079806     4.4667651041     2.7520025447
   88      H      -0.7818301909     5.0408645469     1.5568865941
   89      H      -7.1271743982     6.5547975215     2.2073931960
   90      H      -8.5354041632     4.9274180971     0.6726244388
   91      H     -11.2162932983     2.9875008464    -1.5782115183
   92      H     -10.6491850415     0.8323675353    -3.0687475414
   93      H       5.8865410507     4.1387721499     1.0804967423
   94      C       5.9238161820     3.4832509054     3.1709424992
   95      H       5.3315925011     5.2674055972     2.2982523208
   96      H       5.7193472533     2.4061174894     3.1534193317
   97      H       5.4067750747     3.7851509575     4.0898520986
   98      C       7.4300666025     3.6379018988     3.3859628259
   99      H       7.8049005354     4.6684636414     3.3887943426
  100      C       8.3153728810     2.7982676710     2.4066568692
  101      H       7.6896277530     3.4109427261     4.4278474371
  102      H       7.9024009661     2.8352593096     1.3912009046
  103      H       8.1832854821     1.7342610443     2.6419945360
  104      C       9.8694590252     3.1560921478     2.4040300522
  105      H       9.9093757888     4.2355486769     2.2095197599
  106      C      10.6282480911     2.5626807749     1.2008475656
  107      H      10.3062935345     2.8630261466     3.3661334408
  108      H      10.0434986370     2.7216144133     0.2857939200
  109      H      10.6597061399     1.4736337682     1.3317445033
  110      H      11.6052619042     3.0215078362     1.0067657864
 ----------------------------------------------------------------

    9   -5663.5231663099      9.35E-06 Convergence criterion met
 Total energy in the final basis set = -5663.5231663099

                    Orbital Energies (a.u.)
 --------------------------------------------------------------

 Alpha MOs
 -- Occupied --
-88.987 -88.985 -88.937 -88.930 -88.929 -88.918 -88.911 -88.906
-14.388 -14.380 -14.377 -14.374 -14.353 -14.347 -14.342 -14.341
-14.329 -14.327 -10.269 -10.268 -10.268 -10.263 -10.256 -10.256
-10.251 -10.247 -10.247 -10.246 -10.240 -10.239 -10.239 -10.237
-10.235 -10.234 -10.234 -10.233 -10.233 -10.232 -10.231 -10.231
-10.227 -10.227 -10.226 -10.223 -10.223 -10.221 -10.221 -10.218
-10.216 -10.215 -10.209 -10.207 -10.207 -10.206 -10.194 -10.194
-10.187 -10.186 -10.186 -10.184 -10.183 -10.182 -10.182 -10.179
-10.178 -10.176 -10.174 -10.172  -8.042  -8.040  -7.998  -7.991
 -7.989  -7.978  -7.972  -7.966  -6.008  -6.005  -6.002  -6.000
 -5.999  -5.998  -5.962  -5.959  -5.955  -5.955  -5.953  -5.952
 -5.950  -5.948  -5.946  -5.942  -5.938  -5.937  -5.934  -5.933
 -5.930  -5.929  -5.926  -5.922  -1.050  -1.027  -0.987  -0.974
 -0.972  -0.948  -0.938  -0.938  -0.918  -0.912  -0.905  -0.899
 -0.856  -0.839  -0.833  -0.828  -0.816  -0.813  -0.811  -0.806
 -0.804  -0.802  -0.795  -0.794  -0.783  -0.776  -0.768  -0.762
 -0.751  -0.749  -0.738  -0.737  -0.730  -0.723  -0.712  -0.709
 -0.692  -0.691  -0.674  -0.672  -0.657  -0.649  -0.648  -0.642
 -0.635  -0.632  -0.630  -0.627  -0.612  -0.611  -0.604  -0.596
 -0.596  -0.592  -0.589  -0.584  -0.580  -0.579  -0.573  -0.560
 -0.550  -0.550  -0.540  -0.540  -0.525  -0.523  -0.514  -0.512
 -0.510  -0.507  -0.500  -0.498  -0.487  -0.484  -0.480  -0.477
 -0.476  -0.474  -0.468  -0.463  -0.462  -0.450  -0.447  -0.446
 -0.444  -0.443  -0.440  -0.438  -0.435  -0.434  -0.434  -0.433
 -0.433  -0.427  -0.424  -0.424  -0.421  -0.419  -0.417  -0.415
 -0.412  -0.412  -0.408  -0.405  -0.401  -0.399  -0.399  -0.397
 -0.395  -0.393  -0.391  -0.390  -0.389  -0.388  -0.388  -0.383
 -0.383  -0.379  -0.379  -0.376  -0.365  -0.364  -0.364  -0.361
 -0.353  -0.352  -0.350  -0.349  -0.346  -0.345  -0.344  -0.341
 -0.339  -0.336  -0.332  -0.331  -0.329  -0.326  -0.322  -0.316
 -0.314  -0.312  -0.310  -0.308  -0.303  -0.302  -0.301  -0.300
 -0.295  -0.294  -0.291  -0.291  -0.288  -0.287  -0.286  -0.282
 -0.281  -0.277  -0.269  -0.265  -0.254  -0.251  -0.251  -0.248
 -0.248  -0.242  -0.232  -0.227  -0.192  -0.189

          Ground-State Mulliken Net Atomic Charges

     Atom                 Charge (a.u.)
  ----------------------------------------
      1 C                     0.261981
      2 C                    -0.115516
      3 N                    -0.462322
      4 C                    -0.094885
      5 C                     0.098087
      6 C                     0.021976
      7 C                     0.042430
      8 C                     0.073006
      9 C                     0.226870
     10 N                    -0.535237
     11 N                    -0.576825
     12 C                     0.233664
     13 C                     0.290515
     14 S                     0.602527
     15 N                    -0.568726
     16 C                    -0.234658
     17 S                     0.299894
     18 C                    -0.130145
     19 C                    -0.231910
     20 S                     0.308834
     21 C                     0.170493
     22 C                     0.068703
     23 C                    -0.323239
     24 C                    -0.055053
     25 N                    -0.412589
     26 S                     0.303802
     27 C                     0.118124
     28 C                    -0.323228
     29 C                    -0.228591
     30 H                     0.093012
     31 H                     0.118318
     32 H                     0.113442
     33 H                     0.110975
     34 H                     0.134219
     35 H                     0.121146
     36 H                     0.120911
     37 H                     0.138081
     38 H                     0.100379
     39 C                    -0.185095
     40 H                     0.118398
     41 H                     0.097838
     42 H                     0.085559
     43 C                    -0.177580
     44 H                     0.088596
     45 C                    -0.182795
     46 H                     0.115485
     47 H                     0.088483
     48 H                     0.087894
     49 C                    -0.183331
     50 H                     0.089810
     51 C                    -0.321448
     52 H                     0.092130
     53 H                     0.107335
     54 H                     0.105980
     55 H                     0.102812
     56 C                     0.293615
     57 C                    -0.137081
     58 N                    -0.480537
     59 C                    -0.061266
     60 C                     0.056436
     61 C                     0.032290
     62 C                     0.039706
     63 C                     0.051922
     64 C                     0.200573
     65 N                    -0.511576
     66 N                    -0.551735
     67 C                     0.237335
     68 C                     0.300331
     69 S                     0.650369
     70 N                    -0.584179
     71 C                    -0.246143
     72 S                     0.312778
     73 C                    -0.098087
     74 C                    -0.233067
     75 S                     0.282466
     76 C                     0.152602
     77 C                     0.070177
     78 C                    -0.303352
     79 C                    -0.071650
     80 N                    -0.431745
     81 S                     0.263617
     82 C                     0.119360
     83 C                    -0.316292
     84 C                    -0.212380
     85 H                     0.088011
     86 H                     0.113986
     87 H                     0.118741
     88 H                     0.099640
     89 H                     0.133225
     90 H                     0.119816
     91 H                     0.114393
     92 H                     0.135387
     93 H                     0.091296
     94 C                    -0.188329
     95 H                     0.126663
     96 H                     0.095600
     97 H                     0.112828
     98 C                    -0.185524
     99 H                     0.088200
    100 C                    -0.183971
    101 H                     0.093853
    102 H                     0.087650
    103 H                     0.097546
    104 C                    -0.180924
    105 H                     0.096929
    106 C                    -0.326077
    107 H                     0.101552
    108 H                     0.104948
    109 H                     0.107183
    110 H                     0.104351
  ----------------------------------------
  Sum of atomic charges =     0.000000

                    Cartesian Multipole Moments
 -----------------------------------------------------------------
    Charge (ESU x 10^10)
                 0.0000
    Dipole Moment (Debye)
         X      -2.6538      Y      -1.0068      Z      -0.6149
       Tot       2.9043
    Quadrupole Moments (Debye-Ang)
        XX    -399.0896     XY      17.8968     YY    -444.7587
        XZ      11.3600     YZ      -9.4086     ZZ    -442.6213

 Total job time:  91.58s(wall), 1001.69s(cpu)
        *  Thank you very much for using Q-Chem.  Have a nice day.  *
