 Q-Chem 4.4, Q-Chem, Inc., Pleasanton, CA (2016)
 Q-Chem 4.4.2 for Intel X86 Linux

User input:
--------------------------------------------------------------
$comment
SP
$end

$rem
MEM_STATIC 5000
MEM_TOTAL 20000
JOBTYPE SP
EXCHANGE B3LYP
BASIS 6-31g(d,p)
$end

$molecule
0 1
C          14.308000      7.777000     -3.066000
C          13.109000      8.488000     -2.997000
N          15.553000      8.360000     -3.050000
C          13.190000      9.879000     -2.859000
C          15.577000      9.693000     -2.938000
C          14.486000     10.515000     -2.972000
C          14.599000     12.091000     -3.141000
C          15.553000     12.579000     -4.037000
C          13.792000     13.049000     -2.559000
N          15.742000     13.892000     -4.274000
N          12.769000     12.744000     -1.738000
C          13.883000     14.441000     -2.782000
C          14.895000     14.827000     -3.762000
S          12.128000     14.145000     -1.266000
N          13.044000     15.243000     -2.143000
C          14.916000     16.260000     -4.295000
S          13.642000     17.538000     -4.280000
C          15.970000     16.751000     -4.989000
C          14.623000     18.668000     -5.213000
S          17.615000     16.280000     -5.035000
C          15.752000     18.033000     -5.584000
C          14.343000     20.063000     -5.277000
C          17.904000     17.654000     -6.136000
C          16.837000     18.512000     -6.333000
N          15.349000     20.934000     -5.476000
S          12.810000     20.699000     -4.963000
C          14.883000     22.249000     -5.307000
C          13.534000     22.291000     -5.018000
C          14.205000      6.301000     -3.462000
H          12.211000      7.887000     -3.107000
H          12.289000     10.480000     -2.941000
H          16.523000     10.232000     -2.933000
H          16.094000     11.810000     -4.587000
H          18.888000     17.673000     -6.584000
H          16.966000     19.511000     -6.733000
H          15.622000     23.039000     -5.286000
H          12.896000     23.141000     -4.818000
H          15.184000      5.837000     -3.289000
C          13.797000      6.130000     -4.959000
H          13.520000      5.746000     -2.810000
H          14.609000      6.452000     -5.622000
H          13.012000      6.860000     -5.194000
C          13.510000      4.670000     -5.434000
H          14.427000      4.108000     -5.217000
C          13.109000      4.352000     -6.836000
H          12.718000      4.272000     -4.787000
H          12.020000      4.486000     -6.846000
H          13.324000      3.286000     -6.983000
C          13.835000      5.188000     -7.986000
H          13.361000      6.176000     -7.957000
C          13.602000      4.547000     -9.343000
H          14.897000      5.407000     -7.818000
H          14.211000      3.656000     -9.539000
H          14.043000      5.241000    -10.070000
H          12.522000      4.449000     -9.508000
C           4.691000     13.520000     -0.763000
C           5.763000     14.437000     -0.878000
N           4.772000     12.333000     -1.384000
C           6.831000     14.140000     -1.683000
C           5.762000     12.075000     -2.256000
C           6.959000     12.904000     -2.359000
C           8.186000     12.534000     -3.087000
C           9.062000     13.482000     -3.698000
C           8.547000     11.172000     -3.325000
N          10.107000     13.171000     -4.460000
N           7.941000     10.147000     -2.690000
C           9.653000     10.830000     -4.114000
C          10.442000     11.882000     -4.657000
S           8.600000      8.830000     -3.323000
N           9.751000      9.462000     -4.244000
C          11.613000     11.666000     -5.539000
S          12.402000     10.093000     -5.918000
C          12.401000     12.634000     -6.137000
C          13.748000     10.855000     -6.741000
S          12.245000     14.392000     -6.032000
C          13.589000     12.188000     -6.718000
C          14.784000     10.100000     -7.321000
C          13.799000     14.555000     -6.920000
C          14.313000     13.275000     -7.226000
N          14.963000      8.889000     -6.804000
S          16.101000     10.713000     -8.230000
C          16.219000      8.529000     -6.952000
C          16.992000      9.331000     -7.742000
C           3.584000     13.658000      0.275000
H           5.835000     15.325000     -0.257000
H           7.640000     14.852000     -1.820000
H           5.544000     11.160000     -2.804000
H           8.825000     14.545000     -3.671000
H          14.354000     15.475000     -7.052000
H          15.312000     13.140000     -7.625000
H          16.469000      7.571000     -6.517000
H          18.027000      9.192000     -8.025000
H           3.695000     12.891000      1.051000
C           2.193000     13.411000     -0.415000
H           3.564000     14.645000      0.754000
H           2.315000     12.488000     -0.996000
H           1.845000     14.166000     -1.130000
C           0.988000     13.239000      0.493000
H           1.224000     12.415000      1.177000
C          -0.247000     12.808000     -0.253000
H           0.731000     14.184000      0.988000
H          -0.186000     11.821000     -0.727000
H          -0.557000     13.409000     -1.117000
C          -1.431000     12.858000      0.737000
H          -1.186000     11.985000      1.354000
C          -2.760000     12.819000      0.061000
H          -1.358000     13.795000      1.303000
H          -3.531000     13.192000      0.746000
H          -2.980000     11.802000     -0.288000
H          -2.707000     13.546000     -0.758000
$end

--------------------------------------------------------------

             Standard Nuclear Orientation (Angstroms)
    I     Atom           X                Y                Z
 ----------------------------------------------------------------
    1      C       1.5863374995    -4.8702333115     2.5168934195
    2      C       0.5039990163    -4.1191338175     2.0561592684
    3      N       2.7775169675    -4.3288775778     2.9390254421
    4      C       0.6329951533    -2.7249784819     2.0694595282
    5      C       2.8589496805    -2.9936999958     2.9129766830
    6      C       1.9230673274    -2.1486959242     2.3864661512
    7      C       2.2090796133    -0.6102511671     2.1098966268
    8      C       3.4605030727    -0.2674741529     1.5926740019
    9      C       1.3189187747     0.4373941692     2.2432755258
   10      N       3.8221827916     0.9993140356     1.3093112197
   11      N       0.0451051047     0.2689292025     2.6465289068
   12      C       1.5906211445     1.7873273225     1.9277881191
   13      C       2.9191000991     2.0166897442     1.3655812649
   14      S      -0.6172436274     1.7370589901     2.6950581130
   15      N       0.6379931146     2.6883481775     2.1178072114
   16      C       3.2435905322     3.3709085375     0.7340621293
   17      S       2.1545212556     4.6799489988     0.1366291361
   18      C       4.5132313520     3.7386678885     0.4401263394
   19      C       3.4930633902     5.6539817640    -0.4710838932
   20      S       6.0182603526     3.2145407511     1.0647545899
   21      C       4.6278753275     4.9428740197    -0.3226431884
   22      C       3.3626361108     7.0382354118    -0.7798743777
   23      C       6.7963600947     4.4312406202     0.0169949705
   24      C       5.9456417799     5.2909247635    -0.6543346970
   25      N       4.4336187729     7.8459236790    -0.6754052417
   26      S       1.8747792056     7.7558425244    -1.1327240081
   27      C       4.0388044674     9.1856187329    -0.8312283042
   28      C       2.6857812089     9.3052827482    -1.0763702739
   29      C       1.5258678954    -6.3800916143     2.2665489914
   30      H      -0.3324248639    -4.7008529802     1.6797248007
   31      H      -0.1258544335    -2.1110447891     1.5930576753
   32      H       3.7739437222    -2.4880258718     3.2171831656
   33      H       4.1067376163    -1.1154052342     1.3692108148
   34      H       7.8746700990     4.3636775175    -0.0277684285
   35      H       6.2882766607     6.2279018010    -1.0777935138
   36      H       4.7751064356     9.9486654110    -0.6160976953
   37      H       2.0851236700    10.1930358444    -1.2200677379
   38      H       2.3336779590    -6.8492697068     2.8418583156
   39      C       1.6881378241    -6.7231584369     0.7523866403
   40      H       0.6086767499    -6.8280527348     2.6671051511
   41      H       2.7094372360    -6.5116020202     0.4135822812
   42      H       1.1029841921    -6.0039373525     0.1653038023
   43      C       1.4876434924    -8.2212376112     0.3584896860
   44      H       2.2143799853    -8.7802005387     0.9611807473
   45      C       1.6102077014    -8.6984927676    -1.0503163796
   46      H       0.4850442639    -8.5107803479     0.6979551343
   47      H       0.6153978495    -8.5328859273    -1.4826411800
   48      H       1.7832102317    -9.7806804631    -0.9943707259
   49      C       2.7705579830    -8.0350724841    -1.9232039734
   50      H       2.3953823431    -7.0368419088    -2.1770542397
   51      C       3.0077242523    -8.8323023556    -3.1939500899
   52      H       3.7086245630    -7.8300992473    -1.3921238819
   53      H       3.5769509920    -9.7593151651    -3.0532156955
   54      H       3.7371228078    -8.2482091270    -3.7696747181
   55      H       2.0610081055    -8.9163401179    -3.7415769630
   56      C      -7.7382696696     1.4116820043     0.4284039878
   57      C      -6.6337210784     2.2733806475     0.6302600208
   58      N      -7.5233900070     0.1547142696     0.0100383052
   59      C      -5.3695642605     1.8454025128     0.3210671102
   60      C      -6.3037801683    -0.2404872943    -0.3942086061
   61      C      -5.0945318535     0.5315327252    -0.1252056274
   62      C      -3.7170669942     0.0357768182    -0.2961724140
   63      C      -2.6084677811     0.8726374017    -0.6279451502
   64      C      -3.3975569271    -1.3558385287    -0.2384745515
   65      N      -1.3825556382     0.4368404785    -0.9047310958
   66      N      -4.2707629229    -2.2744973133     0.2248431867
   67      C      -2.1075116614    -1.8276399407    -0.5139879633
   68      C      -1.0967653048    -0.8764671263    -0.8266156651
   69      S      -3.5259242939    -3.6799074492     0.0261052516
   70      N      -2.0719407846    -3.2035716326    -0.4550414459
   71      C       0.2973475419    -1.2369031553    -1.1764102325
   72      S       1.0494351207    -2.8686602763    -1.0658481593
   73      C       1.3211488356    -0.3758467184    -1.5313535004
   74      C       2.6576284450    -2.2572886570    -1.3969493140
   75      S       1.2705228748     1.3855642118    -1.6755531776
   76      C       2.6024497610    -0.9274748622    -1.5737248324
   77      C       3.7744641487    -3.1105017666    -1.4634805148
   78      C       3.0501787262     1.3883103475    -1.9262452383
   79      C       3.5427045323     0.0647892057    -1.8821757762
   80      N       3.6578728450    -4.2527798075    -0.7945572420
   81      S       5.3763273747    -2.6566926720    -1.8692273704
   82      C       4.8486746674    -4.6673806505    -0.4215463028
   83      C       5.9169906705    -3.9943674881    -0.9417262722
   84      C      -9.1366253096     1.7121700301     0.9539945608
   85      H      -6.7294555907     3.2290460400     1.1371205151
   86      H      -4.5159428691     2.5092579690     0.4250885185
   87      H      -6.3722752756    -1.2092973171    -0.8859082705
   88      H      -2.7577395817     1.9376099544    -0.8023538416
   89      H       3.6823966525     2.2669906890    -1.9346327900
   90      H       4.6051844874    -0.1498754931    -1.8602118945
   91      H       4.8472270018    -5.5711606701     0.1723127550
   92      H       6.9696560687    -4.1996933287    -0.7989962521
   93      H      -9.3783807774     1.0445618858     1.7898412330
   94      C     -10.1886701948     1.4247590495    -0.1785187891
   95      H      -9.2576378455     2.7512245006     1.2852524265
   96      H      -9.9306744793     0.4333086497    -0.5720137897
   97      H     -10.1898620214     2.0954436766    -1.0460063744
   98      C     -11.6531554951     1.4046924332     0.2226708618
   99      H     -11.7494500516     0.6652139495     1.0266776594
  100      C     -12.5539105088     0.9229707306    -0.8837136133
  101      H     -12.0027540482     2.4114738428     0.4839581459
  102      H     -12.3967716096    -0.1167402792    -1.1949601114
  103      H     -12.4764804158     1.4212088316    -1.8581674990
  104      C     -14.0124891816     1.1326158936    -0.4221367934
  105      H     -14.0793927014     0.3359276731     0.3286326775
  106      C     -14.9965881097     1.0512958056    -1.5400251344
  107      H     -14.0832808342     2.1300045314     0.0293700692
  108      H     -15.9356002666     1.5304596127    -1.2376128078
  109      H     -15.1481511862     0.0061423641    -1.8386434820
  110      H     -14.5900704899     1.6687719205    -2.3496952353
 ----------------------------------------------------------------

   10   -5663.4865499556      4.84E-06 Convergence criterion met
 Total energy in the final basis set = -5663.4865499556

                    Orbital Energies (a.u.)
 --------------------------------------------------------------

 Alpha MOs
 -- Occupied --
-88.994 -88.981 -88.933 -88.930 -88.922 -88.917 -88.910 -88.908
-14.389 -14.386 -14.382 -14.379 -14.354 -14.350 -14.344 -14.340
-14.328 -14.327 -10.270 -10.269 -10.267 -10.264 -10.261 -10.258
-10.252 -10.249 -10.244 -10.242 -10.241 -10.236 -10.236 -10.236
-10.234 -10.233 -10.233 -10.233 -10.230 -10.228 -10.228 -10.225
-10.225 -10.225 -10.225 -10.224 -10.223 -10.222 -10.217 -10.213
-10.210 -10.207 -10.204 -10.201 -10.199 -10.197 -10.195 -10.191
-10.190 -10.181 -10.175 -10.174 -10.173 -10.172 -10.171 -10.170
-10.169 -10.168 -10.168 -10.168  -8.050  -8.037  -7.995  -7.992
 -7.981  -7.975  -7.969  -7.968  -6.015  -6.009  -6.008  -6.002
 -5.996  -5.994  -5.959  -5.956  -5.956  -5.953  -5.952  -5.949
 -5.945  -5.941  -5.940  -5.937  -5.936  -5.933  -5.932  -5.932
 -5.930  -5.928  -5.925  -5.924  -1.048  -1.036  -0.990  -0.965
 -0.965  -0.949  -0.939  -0.930  -0.915  -0.914  -0.907  -0.907
 -0.844  -0.838  -0.835  -0.822  -0.822  -0.814  -0.809  -0.809
 -0.804  -0.801  -0.799  -0.790  -0.786  -0.782  -0.771  -0.763
 -0.753  -0.750  -0.743  -0.740  -0.718  -0.718  -0.713  -0.709
 -0.696  -0.694  -0.677  -0.671  -0.656  -0.646  -0.645  -0.641
 -0.637  -0.631  -0.625  -0.619  -0.613  -0.605  -0.604  -0.598
 -0.596  -0.592  -0.584  -0.580  -0.579  -0.571  -0.569  -0.552
 -0.548  -0.547  -0.546  -0.533  -0.530  -0.527  -0.523  -0.513
 -0.510  -0.499  -0.498  -0.496  -0.488  -0.485  -0.481  -0.478
 -0.474  -0.471  -0.469  -0.468  -0.463  -0.454  -0.453  -0.447
 -0.445  -0.443  -0.440  -0.439  -0.437  -0.433  -0.430  -0.429
 -0.426  -0.425  -0.424  -0.423  -0.419  -0.418  -0.417  -0.414
 -0.413  -0.412  -0.410  -0.405  -0.399  -0.397  -0.395  -0.394
 -0.390  -0.390  -0.390  -0.388  -0.386  -0.385  -0.385  -0.384
 -0.380  -0.380  -0.374  -0.370  -0.362  -0.359  -0.358  -0.355
 -0.351  -0.349  -0.348  -0.347  -0.345  -0.343  -0.339  -0.337
 -0.335  -0.331  -0.331  -0.329  -0.329  -0.324  -0.319  -0.318
 -0.317  -0.315  -0.315  -0.308  -0.304  -0.303  -0.302  -0.301
 -0.297  -0.293  -0.290  -0.289  -0.288  -0.284  -0.283  -0.281
 -0.278  -0.271  -0.266  -0.264  -0.253  -0.252  -0.251  -0.246
 -0.243  -0.237  -0.230  -0.225  -0.195  -0.191

          Ground-State Mulliken Net Atomic Charges

     Atom                 Charge (a.u.)
  ----------------------------------------
      1 C                     0.256521
      2 C                    -0.078535
      3 N                    -0.485198
      4 C                    -0.076401
      5 C                     0.069781
      6 C                     0.055817
      7 C                     0.050936
      8 C                     0.055737
      9 C                     0.204543
     10 N                    -0.516074
     11 N                    -0.539145
     12 C                     0.256558
     13 C                     0.275963
     14 S                     0.582749
     15 N                    -0.581161
     16 C                    -0.221534
     17 S                     0.295709
     18 C                    -0.088184
     19 C                    -0.234403
     20 S                     0.273693
     21 C                     0.126669
     22 C                     0.074324
     23 C                    -0.309467
     24 C                    -0.043674
     25 N                    -0.449411
     26 S                     0.281862
     27 C                     0.124554
     28 C                    -0.314042
     29 C                    -0.234979
     30 H                     0.099959
     31 H                     0.102752
     32 H                     0.091360
     33 H                     0.121611
     34 H                     0.124338
     35 H                     0.137453
     36 H                     0.122596
     37 H                     0.131856
     38 H                     0.109439
     39 C                    -0.186042
     40 H                     0.097141
     41 H                     0.113638
     42 H                     0.108029
     43 C                    -0.184141
     44 H                     0.087810
     45 C                    -0.172060
     46 H                     0.079365
     47 H                     0.090673
     48 H                     0.092435
     49 C                    -0.184346
     50 H                     0.112263
     51 C                    -0.314676
     52 H                     0.087203
     53 H                     0.102288
     54 H                     0.094771
     55 H                     0.106645
     56 C                     0.277263
     57 C                    -0.129887
     58 N                    -0.468021
     59 C                    -0.073809
     60 C                     0.087747
     61 C                     0.024904
     62 C                     0.051247
     63 C                     0.056937
     64 C                     0.178812
     65 N                    -0.528911
     66 N                    -0.528084
     67 C                     0.220101
     68 C                     0.301096
     69 S                     0.618788
     70 N                    -0.560956
     71 C                    -0.236439
     72 S                     0.353311
     73 C                    -0.147065
     74 C                    -0.222096
     75 S                     0.285492
     76 C                     0.188909
     77 C                     0.026850
     78 C                    -0.307452
     79 C                    -0.090065
     80 N                    -0.410030
     81 S                     0.293179
     82 C                     0.138749
     83 C                    -0.323571
     84 C                    -0.221424
     85 H                     0.090997
     86 H                     0.092423
     87 H                     0.113619
     88 H                     0.113301
     89 H                     0.143323
     90 H                     0.108698
     91 H                     0.116389
     92 H                     0.139583
     93 H                     0.121606
     94 C                    -0.187270
     95 H                     0.095326
     96 H                     0.122030
     97 H                     0.087696
     98 C                    -0.168777
     99 H                     0.091251
    100 C                    -0.181304
    101 H                     0.088262
    102 H                     0.090540
    103 H                     0.079611
    104 C                    -0.168848
    105 H                     0.093815
    106 C                    -0.313750
    107 H                     0.087732
    108 H                     0.098784
    109 H                     0.103580
    110 H                     0.100238
  ----------------------------------------
  Sum of atomic charges =     0.000000

                    Cartesian Multipole Moments
 -----------------------------------------------------------------
    Charge (ESU x 10^10)
                 0.0000
    Dipole Moment (Debye)
         X       0.5739      Y       2.7812      Z      -1.1998
       Tot       3.0828
    Quadrupole Moments (Debye-Ang)
        XX    -423.9241     XY      -5.8077     YY    -407.0157
        XZ     -12.2919     YZ       0.1400     ZZ    -459.5453

 Total job time:  120.18s(wall), 1298.61s(cpu)
        *  Thank you very much for using Q-Chem.  Have a nice day.  *
