 Q-Chem 4.4, Q-Chem, Inc., Pleasanton, CA (2016)
 Q-Chem 4.4.2 for Intel X86 Linux

User input:
--------------------------------------------------------------
$comment
SP
$end

$rem
MEM_STATIC 5000
MEM_TOTAL 20000
JOBTYPE SP
EXCHANGE B3LYP
BASIS 6-31g(d,p)
$end

$molecule
0 1
C          11.427000     11.518000      1.449000
C          10.377000     11.744000      0.525000
N          11.340000     11.901000      2.782000
C           9.201000     12.327000      0.957000
C          10.222000     12.398000      3.228000
C           9.093000     12.593000      2.372000
C           7.810000     12.947000      3.021000
C           6.889000     13.748000      2.305000
C           7.274000     12.284000      4.159000
N           5.629000     14.095000      2.743000
N           7.806000     11.252000      4.756000
C           6.036000     12.648000      4.635000
C           5.235000     13.575000      3.934000
S           6.713000     10.669000      5.770000
N           5.630000     11.805000      5.639000
C           3.943000     14.128000      4.487000
S           2.557000     14.603000      3.388000
C           3.673000     14.310000      5.762000
C           1.525000     15.028000      4.776000
S           4.542000     14.133000      7.210000
C           2.372000     14.927000      5.858000
C           0.189000     15.642000      4.630000
C           3.183000     14.999000      7.983000
C           2.062000     15.206000      7.225000
N          -0.502000     15.355000      3.554000
S          -0.634000     16.641000      5.825000
C          -1.663000     16.039000      3.487000
C          -1.789000     17.002000      4.520000
C          12.736000     10.896000      1.138000
H          10.531000     11.496000     -0.522000
H           8.435000     12.553000      0.221000
H          10.117000     12.579000      4.297000
H           7.166000     14.012000      1.285000
H           3.173000     15.252000      9.034000
H           1.167000     15.584000      7.705000
H          -2.275000     15.824000      2.621000
H          -2.598000     17.650000      4.830000
H          13.040000     11.155000      0.116000
C          12.669000      9.360000      1.154000
H          13.524000     11.152000      1.858000
H          11.911000      8.914000      0.498000
H          12.332000      9.090000      2.163000
C          14.051000      8.662000      0.977000
H          14.646000      9.175000      0.211000
C          13.822000      7.226000      0.468000
H          14.655000      8.683000      1.893000
H          13.445000      7.268000     -0.561000
H          13.146000      6.589000      1.051000
C          15.136000      6.506000      0.316000
H          15.753000      6.975000     -0.460000
C          14.937000      5.090000     -0.092000
H          15.739000      6.542000      1.232000
H          15.877000      4.523000     -0.093000
H          14.435000      4.958000     -1.059000
H          14.275000      4.594000      0.628000
C           4.691000     13.520000     -0.763000
C           5.763000     14.437000     -0.878000
N           4.772000     12.333000     -1.384000
C           6.831000     14.140000     -1.683000
C           5.762000     12.075000     -2.256000
C           6.959000     12.904000     -2.359000
C           8.186000     12.534000     -3.087000
C           9.062000     13.482000     -3.698000
C           8.547000     11.172000     -3.325000
N          10.107000     13.171000     -4.460000
N           7.941000     10.147000     -2.690000
C           9.653000     10.830000     -4.114000
C          10.442000     11.882000     -4.657000
S           8.600000      8.830000     -3.323000
N           9.751000      9.462000     -4.244000
C          11.613000     11.666000     -5.539000
S          12.402000     10.093000     -5.918000
C          12.401000     12.634000     -6.137000
C          13.748000     10.855000     -6.741000
S          12.245000     14.392000     -6.032000
C          13.589000     12.188000     -6.718000
C          14.784000     10.100000     -7.321000
C          13.799000     14.555000     -6.920000
C          14.313000     13.275000     -7.226000
N          14.963000      8.889000     -6.804000
S          16.101000     10.713000     -8.230000
C          16.219000      8.529000     -6.952000
C          16.992000      9.331000     -7.742000
C           3.584000     13.658000      0.275000
H           5.835000     15.325000     -0.257000
H           7.640000     14.852000     -1.820000
H           5.544000     11.160000     -2.804000
H           8.825000     14.545000     -3.671000
H          14.354000     15.475000     -7.052000
H          15.312000     13.140000     -7.625000
H          16.469000      7.571000     -6.517000
H          18.027000      9.192000     -8.025000
H           3.695000     12.891000      1.051000
C           2.193000     13.411000     -0.415000
H           3.564000     14.645000      0.754000
H           2.315000     12.488000     -0.996000
H           1.845000     14.166000     -1.130000
C           0.988000     13.239000      0.493000
H           1.224000     12.415000      1.177000
C          -0.247000     12.808000     -0.253000
H           0.731000     14.184000      0.988000
H          -0.186000     11.821000     -0.727000
H          -0.557000     13.409000     -1.117000
C          -1.431000     12.858000      0.737000
H          -1.186000     11.985000      1.354000
C          -2.760000     12.819000      0.061000
H          -1.358000     13.795000      1.303000
H          -3.531000     13.192000      0.746000
H          -2.980000     11.802000     -0.288000
H          -2.707000     13.546000     -0.758000
$end

--------------------------------------------------------------

             Standard Nuclear Orientation (Angstroms)
    I     Atom           X                Y                Z
 ----------------------------------------------------------------
    1      C      -2.0788747640    -3.3816128944    -1.0160463859
    2      C      -1.7717660896    -2.0412933456    -0.6746085892
    3      N      -1.1199836503    -4.2650506453    -1.4968920705
    4      C      -0.4691406413    -1.5917822549    -0.7775441083
    5      C       0.1245937096    -3.8851610782    -1.5474896216
    6      C       0.5242482345    -2.5693980167    -1.1544936589
    7      C       1.9781568696    -2.3157467732    -1.0344239815
    8      C       2.4598377244    -1.0103242772    -1.2920160251
    9      C       2.8916759287    -3.1728802487    -0.3615836335
   10      N       3.7688277157    -0.6032841078    -1.1480837385
   11      N       2.5752339049    -4.2658012991     0.2786077623
   12      C       4.2109552481    -2.8013280908    -0.2468357738
   13      C       4.6429110505    -1.5256444884    -0.6691822327
   14      S       3.8593207340    -4.7159519769     1.1219459996
   15      N       4.8992168025    -3.6789798585     0.5528669256
   16      C       6.0980365684    -1.1237001366    -0.7131420442
   17      S       6.6210055516     0.6097926660    -0.4375914211
   18      C       7.1095566298    -1.9369269532    -0.9302556327
   19      C       8.3423148782     0.1744785076    -0.5782640402
   20      S       7.2647550377    -3.5848414058    -1.3090503146
   21      C       8.3160381857    -1.1461567224    -0.9701391795
   22      C       9.4305755467     1.1738950542    -0.5703089345
   23      C       8.9828490669    -3.2172639861    -1.6367784754
   24      C       9.4378662889    -1.9792116368    -1.2703911011
   25      N       9.2413108101     2.2791668318     0.1080561274
   26      S      11.0266254704     0.9810379812    -1.2905767948
   27      C      10.2616131080     3.1512625905    -0.0286852659
   28      C      11.2217373887     2.7225133720    -0.9798264085
   29      C      -3.4207288690    -4.0075624756    -0.9474848620
   30      H      -2.5764077375    -1.3727441469    -0.3796123395
   31      H      -0.2661334594    -0.5441043427    -0.5758337313
   32      H       0.8877146672    -4.6186775973    -1.8046800576
   33      H       1.7102690570    -0.2514490320    -1.5135564847
   34      H       9.6816347629    -3.9600487065    -1.9954975998
   35      H      10.5022530140    -1.7793892016    -1.3086127407
   36      H      10.1559153533     4.0744765773     0.5255970802
   37      H      12.1894091363     3.1054462902    -1.2755606966
   38      H      -4.1933198767    -3.2624413992    -1.1752538598
   39      C      -3.7579145265    -4.5080863386     0.4666660122
   40      H      -3.5252043821    -4.8899578834    -1.5919561270
   41      H      -3.6873492679    -3.7561523595     1.2625503224
   42      H      -2.9708095280    -5.2299561648     0.7194894194
   43      C      -5.0951993332    -5.3030371634     0.5571067761
   44      H      -5.8709737084    -4.8217714085    -0.0515864076
   45      C      -5.5958125132    -5.2712552420     2.0138134568
   46      H      -5.0038776597    -6.3277641460     0.1751277673
   47      H      -5.9107586693    -4.2501861154     2.2607157806
   48      H      -4.8994732148    -5.6085331472     2.7909808752
   49      C      -6.8721869474    -6.0591516817     2.1486745109
   50      H      -7.6820401821    -5.5960131332     1.5720754967
   51      C      -7.3303142802    -6.1158594716     3.5621894820
   52      H      -6.7762211077    -7.0782788051     1.7535397695
   53      H      -8.1927057658    -6.7826054860     3.6918840376
   54      H      -7.5583201592    -5.1399123650     4.0094674318
   55      H      -6.5265604308    -6.5210053943     4.1886849175
   56      C       2.2462586330     2.4567132035     0.2012512248
   57      C       1.5998075300     2.3177306996    -1.0501810886
   58      N       1.5076391791     2.5052783931     1.3207393778
   59      C       0.2313239589     2.3158302530    -1.1142677805
   60      C       0.1686962957     2.6091873744     1.2617234600
   61      C      -0.5884740096     2.3676368480     0.0373846703
   62      C      -2.0509593701     2.1995184169    -0.0353185867
   63      C      -2.8355764080     2.5635802832    -1.1716442711
   64      C      -2.8198589861     1.7433314084     1.0794440758
   65      N      -4.1645913670     2.5344341453    -1.2191810096
   66      N      -2.2462617995     1.1976520887     2.1722873160
   67      C      -4.2193722940     1.6942536261     1.0385188697
   68      C      -4.8704066226     2.0836524557    -0.1650578226
   69      S      -3.4653304758     0.9195314569     3.1752725984
   70      N      -4.7254836650     1.2832405279     2.2521281616
   71      C      -6.3421040785     2.1183034422    -0.3345479620
   72      S      -7.5751241932     1.4860487179     0.8145413995
   73      C      -7.0468679147     2.5233098236    -1.4547487325
   74      C      -8.8916033715     1.7176368492    -0.3181273563
   75      S      -6.4105507393     3.1159209397    -2.9941763915
   76      C      -8.4118535264     2.2324686407    -1.4615814711
   77      C     -10.2203775474     1.3978567872     0.0162689677
   78      C      -8.0790202182     3.0905320949    -3.6617046716
   79      C      -8.9835488223     2.6388323341    -2.6747764419
   80      N     -10.3622834457     0.4859692762     0.9723938985
   81      S     -11.6045718208     1.6617163674    -0.9588840127
   82      C     -11.4989549696    -0.1535242161     0.8048650354
   83      C     -12.3495876495     0.3549964078    -0.1346368640
   84      C       3.7419502686     2.2394764637     0.3952917620
   85      H       2.1446378429     2.0903055745    -1.9616670964
   86      H      -0.2812514689     2.2575635544    -2.0703354678
   87      H      -0.2286133010     2.8433018658     2.2478210664
   88      H      -2.3640191399     3.0229483714    -2.0396775092
   89      H      -8.3415656668     3.2272850841    -4.7029623282
   90      H     -10.0159080231     2.4047349230    -2.9089983078
   91      H     -11.6781798144    -0.9503069334     1.5137407342
   92      H     -13.3413087317     0.0093266627    -0.3947074746
   93      H       3.9209069983     1.3072809604     0.9446295748
   94      C       4.3252794813     3.4058139262     1.2735707344
   95      H       4.2978556026     2.2048110695    -0.5501063393
   96      H       3.6476366658     3.4915948646     2.1325328088
   97      H       4.3598011705     4.4052936468     0.8239013657
   98      C       5.7378628554     3.2359367568     1.8044407358
   99      H       5.7522134775     2.2942059953     2.3661036529
  100      C       6.1215570432     4.3053820859     2.7926550133
  101      H       6.4726903292     3.2940652571     0.9915762568
  102      H       5.5374421729     4.3153644162     3.7207046733
  103      H       5.9986015406     5.3515595924     2.4857485630
  104      C       7.6244591864     4.1352425590     3.1037718552
  105      H       7.5793917071     3.2254735752     3.7146174318
  106      C       8.2228149354     5.3297911010     3.7669175242
  107      H       8.1484726769     3.9675863479     2.1545852263
  108      H       9.3136279482     5.3026324642     3.6565346466
  109      H       7.9190865014     5.3724048517     4.8206836779
  110      H       7.8831590737     6.1996471738     3.1923887536
 ----------------------------------------------------------------

    9   -5663.4851954944      7.20E-06 Convergence criterion met
 Total energy in the final basis set = -5663.4851954944

                    Orbital Energies (a.u.)
 --------------------------------------------------------------

 Alpha MOs
 -- Occupied --
-88.993 -88.992 -88.935 -88.928 -88.919 -88.916 -88.912 -88.912
-14.387 -14.381 -14.381 -14.371 -14.354 -14.353 -14.341 -14.340
-14.326 -14.323 -10.273 -10.268 -10.265 -10.262 -10.259 -10.257
-10.252 -10.250 -10.243 -10.242 -10.237 -10.237 -10.236 -10.235
-10.235 -10.234 -10.232 -10.231 -10.230 -10.230 -10.230 -10.229
-10.229 -10.227 -10.226 -10.225 -10.222 -10.221 -10.221 -10.214
-10.213 -10.211 -10.209 -10.204 -10.203 -10.201 -10.200 -10.196
-10.180 -10.178 -10.177 -10.176 -10.172 -10.168 -10.165 -10.161
-10.159 -10.158 -10.157 -10.156  -8.049  -8.048  -7.997  -7.989
 -7.978  -7.977  -7.970  -7.970  -6.014  -6.013  -6.008  -6.008
 -6.007  -6.006  -5.960  -5.957  -5.954  -5.952  -5.949  -5.945
 -5.942  -5.941  -5.938  -5.938  -5.935  -5.935  -5.934  -5.932
 -5.931  -5.931  -5.927  -5.926  -1.057  -1.047  -0.991  -0.973
 -0.965  -0.949  -0.937  -0.935  -0.916  -0.914  -0.907  -0.906
 -0.841  -0.840  -0.835  -0.830  -0.823  -0.813  -0.812  -0.809
 -0.803  -0.802  -0.797  -0.796  -0.790  -0.782  -0.769  -0.768
 -0.751  -0.749  -0.742  -0.740  -0.720  -0.716  -0.712  -0.710
 -0.692  -0.691  -0.677  -0.674  -0.654  -0.653  -0.645  -0.643
 -0.633  -0.627  -0.624  -0.620  -0.613  -0.610  -0.604  -0.602
 -0.593  -0.591  -0.581  -0.576  -0.573  -0.571  -0.560  -0.558
 -0.548  -0.547  -0.545  -0.541  -0.531  -0.528  -0.523  -0.521
 -0.508  -0.506  -0.504  -0.500  -0.485  -0.484  -0.478  -0.477
 -0.475  -0.472  -0.471  -0.469  -0.467  -0.466  -0.454  -0.447
 -0.445  -0.442  -0.441  -0.437  -0.436  -0.435  -0.431  -0.429
 -0.426  -0.425  -0.424  -0.422  -0.417  -0.416  -0.415  -0.411
 -0.410  -0.410  -0.407  -0.404  -0.400  -0.399  -0.397  -0.397
 -0.395  -0.393  -0.391  -0.390  -0.388  -0.384  -0.383  -0.382
 -0.379  -0.378  -0.372  -0.367  -0.366  -0.364  -0.363  -0.353
 -0.353  -0.350  -0.346  -0.344  -0.343  -0.340  -0.339  -0.337
 -0.334  -0.333  -0.330  -0.329  -0.319  -0.318  -0.314  -0.314
 -0.313  -0.309  -0.307  -0.305  -0.303  -0.301  -0.301  -0.300
 -0.297  -0.295  -0.293  -0.291  -0.287  -0.287  -0.283  -0.281
 -0.280  -0.279  -0.269  -0.267  -0.256  -0.252  -0.245  -0.244
 -0.241  -0.239  -0.228  -0.225  -0.195  -0.192

          Ground-State Mulliken Net Atomic Charges

     Atom                 Charge (a.u.)
  ----------------------------------------
      1 C                     0.269110
      2 C                    -0.124100
      3 N                    -0.482311
      4 C                    -0.056834
      5 C                     0.117736
      6 C                    -0.005453
      7 C                     0.032439
      8 C                     0.058419
      9 C                     0.236233
     10 N                    -0.509334
     11 N                    -0.551712
     12 C                     0.176488
     13 C                     0.258159
     14 S                     0.619991
     15 N                    -0.521051
     16 C                    -0.242116
     17 S                     0.330869
     18 C                    -0.040427
     19 C                    -0.205080
     20 S                     0.277896
     21 C                     0.078424
     22 C                     0.058973
     23 C                    -0.295840
     24 C                    -0.079777
     25 N                    -0.411737
     26 S                     0.261075
     27 C                     0.121587
     28 C                    -0.314863
     29 C                    -0.223731
     30 H                     0.092421
     31 H                     0.118339
     32 H                     0.109128
     33 H                     0.102717
     34 H                     0.116241
     35 H                     0.118912
     36 H                     0.119729
     37 H                     0.131526
     38 H                     0.096900
     39 C                    -0.188122
     40 H                     0.122789
     41 H                     0.093009
     42 H                     0.109545
     43 C                    -0.177468
     44 H                     0.093154
     45 C                    -0.170626
     46 H                     0.097166
     47 H                     0.096958
     48 H                     0.091780
     49 C                    -0.171087
     50 H                     0.090884
     51 C                    -0.317217
     52 H                     0.088524
     53 H                     0.094489
     54 H                     0.099746
     55 H                     0.095686
     56 C                     0.273414
     57 C                    -0.138307
     58 N                    -0.464319
     59 C                    -0.087065
     60 C                     0.087367
     61 C                     0.015473
     62 C                     0.047966
     63 C                     0.058197
     64 C                     0.178521
     65 N                    -0.525678
     66 N                    -0.532266
     67 C                     0.213531
     68 C                     0.308729
     69 S                     0.620981
     70 N                    -0.551637
     71 C                    -0.226569
     72 S                     0.339709
     73 C                    -0.140607
     74 C                    -0.213730
     75 S                     0.287942
     76 C                     0.192901
     77 C                     0.024699
     78 C                    -0.311232
     79 C                    -0.098444
     80 N                    -0.399295
     81 S                     0.290245
     82 C                     0.128442
     83 C                    -0.319290
     84 C                    -0.211184
     85 H                     0.106911
     86 H                     0.094764
     87 H                     0.114644
     88 H                     0.112360
     89 H                     0.132519
     90 H                     0.102016
     91 H                     0.112514
     92 H                     0.138193
     93 H                     0.123259
     94 C                    -0.195699
     95 H                     0.119707
     96 H                     0.114214
     97 H                     0.082294
     98 C                    -0.168849
     99 H                     0.092560
    100 C                    -0.184156
    101 H                     0.111781
    102 H                     0.084686
    103 H                     0.073499
    104 C                    -0.177389
    105 H                     0.093171
    106 C                    -0.313506
    107 H                     0.103516
    108 H                     0.091412
    109 H                     0.101616
    110 H                     0.097310
  ----------------------------------------
  Sum of atomic charges =     0.000000

                    Cartesian Multipole Moments
 -----------------------------------------------------------------
    Charge (ESU x 10^10)
                 0.0000
    Dipole Moment (Debye)
         X      -1.0637      Y      -0.9677      Z      -1.8098
       Tot       2.3116
    Quadrupole Moments (Debye-Ang)
        XX    -348.2540     XY      -2.8753     YY    -445.9011
        XZ       1.4130     YZ     -11.6159     ZZ    -442.5175

 Total job time:  92.04s(wall), 1011.43s(cpu)
        *  Thank you very much for using Q-Chem.  Have a nice day.  *
