 Q-Chem 4.4, Q-Chem, Inc., Pleasanton, CA (2016)
 Q-Chem 4.4.2 for Intel X86 Linux

User input:
--------------------------------------------------------------
$comment
SP
$end

$rem
MEM_STATIC 5000
MEM_TOTAL 20000
JOBTYPE SP
EXCHANGE B3LYP
BASIS 6-31g(d,p)
$end

$molecule
0 1
C           0.396000     14.313000     -4.655000
C           0.832000     14.452000     -5.973000
N           1.075000     14.728000     -3.611000
C           1.738000     15.477000     -6.214000
C           2.129000     15.575000     -3.872000
C           2.400000     16.066000     -5.157000
C           3.267000     17.311000     -5.245000
C           2.891000     18.313000     -6.108000
C           4.373000     17.670000     -4.436000
N           3.493000     19.493000     -6.262000
N           4.931000     16.715000     -3.621000
C           5.006000     18.899000     -4.507000
C           4.505000     19.850000     -5.420000
S           6.330000     17.379000     -3.139000
N           6.083000     18.945000     -3.680000
C           5.022000     21.181000     -5.686000
S           5.096000     22.073000     -7.228000
C           5.412000     22.054000     -4.695000
C           5.693000     23.559000     -6.426000
S           5.287000     21.791000     -3.005000
C           5.788000     23.359000     -5.055000
C           5.867000     24.821000     -7.158000
C           5.646000     23.501000     -2.757000
C           5.880000     24.224000     -3.937000
N           6.459000     25.836000     -6.569000
S           5.368000     24.916000     -8.802000
C           6.732000     26.752000     -7.590000
C           6.178000     26.497000     -8.806000
C          -0.836000     13.416000     -4.278000
H           0.210000     14.010000     -6.746000
H           1.948000     15.856000     -7.209000
H           2.546000     16.105000     -3.017000
H           2.103000     18.118000     -6.834000
H           5.521000     23.956000     -1.783000
H           5.912000     25.307000     -3.987000
H           7.315000     27.631000     -7.346000
H           6.300000     27.099000     -9.697000
H          -0.906000     12.711000     -5.116000
C          -2.118000     14.191000     -3.965000
H          -0.537000     12.798000     -3.422000
H          -2.350000     14.939000     -4.733000
H          -1.960000     14.787000     -3.058000
C          -3.340000     13.237000     -3.794000
H          -3.333000     12.635000     -4.711000
C          -4.672000     14.043000     -3.836000
H          -3.227000     12.560000     -2.939000
H          -4.846000     14.495000     -4.820000
H          -4.673000     14.882000     -3.129000
C          -5.973000     13.084000     -3.648000
H          -6.871000     13.540000     -4.083000
C          -6.256000     12.856000     -2.196000
H          -5.753000     12.166000     -4.206000
H          -5.317000     12.555000     -1.715000
H          -6.986000     12.061000     -1.998000
H          -6.494000     13.799000     -1.689000
C           4.691000     13.520000     -0.763000
C           5.763000     14.437000     -0.878000
N           4.772000     12.333000     -1.384000
C           6.831000     14.140000     -1.683000
C           5.762000     12.075000     -2.256000
C           6.959000     12.904000     -2.359000
C           8.186000     12.534000     -3.087000
C           9.062000     13.482000     -3.698000
C           8.547000     11.172000     -3.325000
N          10.107000     13.171000     -4.460000
N           7.941000     10.147000     -2.690000
C           9.653000     10.830000     -4.114000
C          10.442000     11.882000     -4.657000
S           8.600000      8.830000     -3.323000
N           9.751000      9.462000     -4.244000
C          11.613000     11.666000     -5.539000
S          12.402000     10.093000     -5.918000
C          12.401000     12.634000     -6.137000
C          13.748000     10.855000     -6.741000
S          12.245000     14.392000     -6.032000
C          13.589000     12.188000     -6.718000
C          14.784000     10.100000     -7.321000
C          13.799000     14.555000     -6.920000
C          14.313000     13.275000     -7.226000
N          14.963000      8.889000     -6.804000
S          16.101000     10.713000     -8.230000
C          16.219000      8.529000     -6.952000
C          16.992000      9.331000     -7.742000
C           3.584000     13.658000      0.275000
H           5.835000     15.325000     -0.257000
H           7.640000     14.852000     -1.820000
H           5.544000     11.160000     -2.804000
H           8.825000     14.545000     -3.671000
H          14.354000     15.475000     -7.052000
H          15.312000     13.140000     -7.625000
H          16.469000      7.571000     -6.517000
H          18.027000      9.192000     -8.025000
H           3.695000     12.891000      1.051000
C           2.193000     13.411000     -0.415000
H           3.564000     14.645000      0.754000
H           2.315000     12.488000     -0.996000
H           1.845000     14.166000     -1.130000
C           0.988000     13.239000      0.493000
H           1.224000     12.415000      1.177000
C          -0.247000     12.808000     -0.253000
H           0.731000     14.184000      0.988000
H          -0.186000     11.821000     -0.727000
H          -0.557000     13.409000     -1.117000
C          -1.431000     12.858000      0.737000
H          -1.186000     11.985000      1.354000
C          -2.760000     12.819000      0.061000
H          -1.358000     13.795000      1.303000
H          -3.531000     13.192000      0.746000
H          -2.980000     11.802000     -0.288000
H          -2.707000     13.546000     -0.758000
$end

--------------------------------------------------------------

             Standard Nuclear Orientation (Angstroms)
    I     Atom           X                Y                Z
 ----------------------------------------------------------------
    1      C      -4.2635462995    -3.3557894994    -2.0478215824
    2      C      -3.7626935130    -2.6094510559    -3.1149047160
    3      N      -4.0349134166    -3.0749139271    -0.7860617330
    4      C      -3.4476492223    -1.2844481252    -2.8416716128
    5      C      -3.5027488243    -1.8309424072    -0.5295822907
    6      C      -3.3204277343    -0.8685705441    -1.5327504806
    7      C      -3.1687142994     0.5735332815    -1.0780224411
    8      C      -3.8543596516     1.5518612169    -1.7584002052
    9      C      -2.5108223879     1.0660007516     0.0757765118
   10      N      -3.8892948718     2.8503777427    -1.4564823974
   11      N      -1.6844395306     0.2198784100     0.7749062252
   12      C      -2.5551653210     2.3906844249     0.4750481862
   13      C      -3.3161616890     3.2905424984    -0.2996201141
   14      S      -0.8751857642     1.2028885801     1.7795058206
   15      N      -1.7721952698     2.6012883223     1.5652673831
   16      C      -3.4814578768     4.7184876485    -0.0916397819
   17      S      -3.6265397869     6.0229373102    -1.2983983823
   18      C      -3.7171447588     5.2817581983     1.1426567714
   19      C      -3.9553639650     7.2533204302    -0.0390965766
   20      S      -3.9444891124     4.4355150874     2.6167941945
   21      C      -3.9772966305     6.6604741512     1.2165778429
   22      C      -4.3137661669     8.6370359640    -0.3791306678
   23      C      -4.5060661815     5.9422838291     3.3439559059
   24      C      -4.4841626555     7.0489565583     2.4810070627
   25      N      -4.3858827831     9.5407889517     0.5725203874
   26      S      -4.5482012914     9.0643808629    -2.0293362641
   27      C      -4.4478988418    10.7725216479    -0.0870359585
   28      C      -4.6217630409    10.7370905451    -1.4357808852
   29      C      -4.9415241766    -4.7558421881    -2.2593882790
   30      H      -3.9688839989    -2.9809188706    -4.1145417232
   31      H      -3.3057564587    -0.5402010414    -3.6186714339
   32      H      -3.5279294074    -1.4991519189     0.5072855939
   33      H      -4.3307802161     1.3028383457    -2.7055306373
   34      H      -4.9785411681     5.9431852236     4.3176563602
   35      H      -4.9775543461     7.9913867761     2.6926740752
   36      H      -4.4107816403    11.6747936521     0.5101185808
   37      H      -4.6796383853    11.5969975314    -2.0902878902
   38      H      -4.5348708421    -5.0951650176    -3.2204616804
   39      C      -6.4687064442    -4.7470931838    -2.1606169454
   40      H      -4.5084209914    -5.4407160494    -1.5195028655
   41      H      -6.9204822934    -3.9544236260    -2.7694893083
   42      H      -6.7565923633    -4.4860074794    -1.1350512710
   43      C      -7.0800379907    -6.1211937246    -2.5738510728
   44      H      -6.6457690062    -6.3147105408    -3.5624377867
   45      C      -8.6132602206    -5.9871007961    -2.8123310098
   46      H      -6.7780686842    -6.9334643178    -1.9021710736
   47      H      -8.8390362224    -5.3462302216    -3.6732294381
   48      H      -9.1271458295    -5.5203575592    -1.9627173731
   49      C      -9.2926305657    -7.4043181900    -3.2337296247
   50      H     -10.2239702885    -7.2497891770    -3.7925606411
   51      C      -9.6380776224    -8.2067873312    -2.0183751050
   52      H      -8.5736233841    -7.8961558084    -3.8997719881
   53      H      -8.7538141645    -8.2291533543    -1.3693289602
   54      H      -9.9075456720    -9.2496783054    -2.2278849764
   55      H     -10.3772830614    -7.6841777886    -1.3991848395
   56      C      -0.7520114580    -3.5393950740     2.6275340244
   57      C      -0.2599323341    -2.2783600450     3.0409911462
   58      N      -0.0121581186    -4.2947679532     1.8009749826
   59      C       0.9221526913    -1.8077371416     2.5330078047
   60      C       1.0936160387    -3.8013410529     1.2171587384
   61      C       1.7344256625    -2.5660295640     1.6576443245
   62      C       3.0776417783    -2.1162425107     1.2503666883
   63      C       3.4587390586    -0.7433782994     1.1533629749
   64      C       4.0875891864    -3.0312036781     0.8204116964
   65      N       4.6215490051    -0.3087583025     0.6754838199
   66      N       3.9728732082    -4.3637478984     1.0000005187
   67      C       5.3219762631    -2.5879515372     0.3279311543
   68      C       5.5674962470    -1.1870350841     0.2929021808
   69      S       5.2752897768    -4.9820051709     0.2993379560
   70      N       6.0926766298    -3.6548960304    -0.0789820961
   71      C       6.8100085136    -0.5789013609    -0.2382829487
   72      S       8.3118840738    -1.4442195936    -0.7241689004
   73      C       7.1037147467     0.7694783380    -0.3440224224
   74      C       9.2192791130     0.0410088214    -0.9252156566
   75      S       6.0965378173     2.1489980178     0.1125354444
   76      C       8.4288642137     1.0891156327    -0.6434082772
   77      C      10.5642049079     0.0362961716    -1.3385840117
   78      C       7.4846468788     3.2390565451    -0.2265141691
   79      C       8.5962395250     2.4803810697    -0.6566366073
   80      N      11.2330580754    -1.0835390857    -1.0847032585
   81      S      11.5319472952     1.4129955184    -1.6621772446
   82      C      12.5112175491    -0.8095726890    -0.9422575734
   83      C      12.9011699808     0.4577313791    -1.2689233048
   84      C      -1.9243005905    -4.2391909089     3.3042621672
   85      H      -0.7222767213    -1.7105959650     3.8430202087
   86      H       1.2911352593    -0.8222542224     2.8029509107
   87      H       1.4327770104    -4.4778273772     0.4346058083
   88      H       2.7323163427     0.0432583803     1.3543101616
   89      H       7.5328605538     4.2914370150     0.0225235554
   90      H       9.5803327548     2.9209948538    -0.7699812513
   91      H      13.1297961797    -1.6587780819    -0.6859380881
   92      H      13.9011667801     0.8708002056    -1.2649804738
   93      H      -1.5685560767    -5.1013435361     3.8812584309
   94      C      -2.8995442559    -4.7972220149     2.2044935198
   95      H      -2.4932615288    -3.5785691478     3.9704996170
   96      H      -2.2590547316    -5.3266034726     1.4876236282
   97      H      -3.4623363463    -4.0652798322     1.6129872187
   98      C      -3.9858716744    -5.7551892678     2.6608535554
   99      H      -3.4812524308    -6.5817396179     3.1753454776
  100      C      -4.7288998498    -6.3837569052     1.5118044461
  101      H      -4.7406414720    -5.2348042820     3.2638635215
  102      H      -4.1253908281    -7.0288678885     0.8620547404
  103      H      -5.1620023743    -5.7151065272     0.7574001279
  104      C      -5.9174798699    -7.1737189523     2.1014598539
  105      H      -5.3713799843    -8.0150703179     2.5450202156
  106      C      -6.9428839145    -7.5353037642     1.0804108986
  107      H      -6.3947919562    -6.5456437209     2.8639220995
  108      H      -7.8888470014    -7.7766610127     1.5801063226
  109      H      -6.5849001402    -8.3659200074     0.4587886065
  110      H      -7.1316774548    -6.6234605475     0.5016208267
 ----------------------------------------------------------------

   10   -5663.5033615146      3.40E-06 Convergence criterion met
 Total energy in the final basis set = -5663.5033615146

                    Orbital Energies (a.u.)
 --------------------------------------------------------------

 Alpha MOs
 -- Occupied --
-88.993 -88.989 -88.933 -88.925 -88.924 -88.916 -88.909 -88.908
-14.387 -14.386 -14.384 -14.377 -14.351 -14.350 -14.342 -14.338
-14.332 -14.324 -10.268 -10.265 -10.265 -10.263 -10.260 -10.259
-10.256 -10.253 -10.241 -10.240 -10.239 -10.239 -10.234 -10.232
-10.229 -10.229 -10.229 -10.229 -10.228 -10.228 -10.227 -10.227
-10.227 -10.227 -10.226 -10.226 -10.226 -10.225 -10.219 -10.217
-10.215 -10.209 -10.207 -10.203 -10.201 -10.201 -10.200 -10.196
-10.185 -10.183 -10.183 -10.181 -10.181 -10.178 -10.166 -10.165
-10.165 -10.164 -10.160 -10.159  -8.048  -8.045  -7.995  -7.987
 -7.983  -7.975  -7.969  -7.968  -6.013  -6.010  -6.007  -6.006
 -6.004  -6.003  -5.958  -5.955  -5.952  -5.951  -5.948  -5.947
 -5.944  -5.944  -5.940  -5.939  -5.935  -5.934  -5.932  -5.931
 -5.930  -5.929  -5.925  -5.924  -1.043  -1.035  -0.989  -0.969
 -0.961  -0.961  -0.946  -0.935  -0.913  -0.913  -0.902  -0.900
 -0.844  -0.838  -0.836  -0.832  -0.821  -0.812  -0.810  -0.806
 -0.803  -0.802  -0.800  -0.799  -0.782  -0.781  -0.768  -0.767
 -0.751  -0.750  -0.745  -0.740  -0.720  -0.718  -0.710  -0.710
 -0.695  -0.691  -0.676  -0.674  -0.653  -0.651  -0.648  -0.641
 -0.635  -0.633  -0.631  -0.622  -0.611  -0.608  -0.603  -0.595
 -0.592  -0.588  -0.583  -0.579  -0.579  -0.568  -0.566  -0.561
 -0.550  -0.546  -0.544  -0.544  -0.529  -0.522  -0.520  -0.515
 -0.510  -0.506  -0.503  -0.497  -0.488  -0.484  -0.476  -0.475
 -0.474  -0.471  -0.469  -0.466  -0.464  -0.461  -0.452  -0.447
 -0.443  -0.442  -0.439  -0.438  -0.434  -0.433  -0.432  -0.428
 -0.428  -0.427  -0.425  -0.423  -0.417  -0.416  -0.414  -0.414
 -0.412  -0.411  -0.409  -0.406  -0.403  -0.400  -0.397  -0.396
 -0.395  -0.392  -0.391  -0.388  -0.387  -0.384  -0.382  -0.381
 -0.379  -0.378  -0.376  -0.370  -0.366  -0.364  -0.360  -0.354
 -0.351  -0.350  -0.347  -0.344  -0.344  -0.341  -0.339  -0.337
 -0.334  -0.333  -0.333  -0.332  -0.324  -0.322  -0.317  -0.316
 -0.312  -0.311  -0.311  -0.309  -0.304  -0.301  -0.300  -0.299
 -0.298  -0.298  -0.296  -0.292  -0.288  -0.285  -0.283  -0.282
 -0.278  -0.278  -0.270  -0.267  -0.254  -0.253  -0.253  -0.245
 -0.243  -0.239  -0.235  -0.225  -0.193  -0.190

          Ground-State Mulliken Net Atomic Charges

     Atom                 Charge (a.u.)
  ----------------------------------------
      1 C                     0.256256
      2 C                    -0.120352
      3 N                    -0.467823
      4 C                    -0.085285
      5 C                     0.090096
      6 C                     0.065191
      7 C                     0.061989
      8 C                     0.054270
      9 C                     0.152583
     10 N                    -0.498640
     11 N                    -0.525177
     12 C                     0.277128
     13 C                     0.223674
     14 S                     0.604122
     15 N                    -0.575477
     16 C                    -0.177647
     17 S                     0.306824
     18 C                    -0.138170
     19 C                    -0.256866
     20 S                     0.276226
     21 C                     0.176566
     22 C                     0.086611
     23 C                    -0.306122
     24 C                    -0.059438
     25 N                    -0.440826
     26 S                     0.266831
     27 C                     0.118742
     28 C                    -0.303611
     29 C                    -0.222884
     30 H                     0.096235
     31 H                     0.102738
     32 H                     0.112187
     33 H                     0.100394
     34 H                     0.127933
     35 H                     0.129911
     36 H                     0.111890
     37 H                     0.129663
     38 H                     0.086977
     39 C                    -0.182179
     40 H                     0.125070
     41 H                     0.091874
     42 H                     0.111037
     43 C                    -0.172021
     44 H                     0.093136
     45 C                    -0.191143
     46 H                     0.105740
     47 H                     0.090938
     48 H                     0.091397
     49 C                    -0.179064
     50 H                     0.089092
     51 C                    -0.315146
     52 H                     0.091733
     53 H                     0.108845
     54 H                     0.096790
     55 H                     0.102399
     56 C                     0.284544
     57 C                    -0.124459
     58 N                    -0.468547
     59 C                    -0.079287
     60 C                     0.092512
     61 C                     0.023780
     62 C                     0.053041
     63 C                     0.058900
     64 C                     0.178020
     65 N                    -0.526862
     66 N                    -0.529986
     67 C                     0.216470
     68 C                     0.311532
     69 S                     0.618899
     70 N                    -0.553460
     71 C                    -0.225543
     72 S                     0.341548
     73 C                    -0.141017
     74 C                    -0.215410
     75 S                     0.286153
     76 C                     0.192375
     77 C                     0.024610
     78 C                    -0.310703
     79 C                    -0.099586
     80 N                    -0.399598
     81 S                     0.288158
     82 C                     0.128870
     83 C                    -0.319866
     84 C                    -0.223798
     85 H                     0.090152
     86 H                     0.089560
     87 H                     0.113476
     88 H                     0.104984
     89 H                     0.131821
     90 H                     0.101571
     91 H                     0.111898
     92 H                     0.137234
     93 H                     0.118300
     94 C                    -0.200704
     95 H                     0.091611
     96 H                     0.117310
     97 H                     0.122104
     98 C                    -0.169618
     99 H                     0.086304
    100 C                    -0.191049
    101 H                     0.084821
    102 H                     0.085255
    103 H                     0.102952
    104 C                    -0.174550
    105 H                     0.092434
    106 C                    -0.318273
    107 H                     0.087284
    108 H                     0.098377
    109 H                     0.102510
    110 H                     0.107728
  ----------------------------------------
  Sum of atomic charges =     0.000000

                    Cartesian Multipole Moments
 -----------------------------------------------------------------
    Charge (ESU x 10^10)
                 0.0000
    Dipole Moment (Debye)
         X       1.2024      Y       2.8401      Z      -1.1096
       Tot       3.2777
    Quadrupole Moments (Debye-Ang)
        XX    -399.7754     XY       7.4831     YY    -422.9648
        XZ       1.9832     YZ       1.6590     ZZ    -431.8766

 Total job time:  96.60s(wall), 1061.82s(cpu)
        *  Thank you very much for using Q-Chem.  Have a nice day.  *
