 Q-Chem 4.4, Q-Chem, Inc., Pleasanton, CA (2016)
 Q-Chem 4.4.2 for Intel X86 Linux

User input:
--------------------------------------------------------------
$comment
SP
$end

$rem
MEM_STATIC 5000
MEM_TOTAL 20000
JOBTYPE SP
EXCHANGE B3LYP
BASIS 6-31g(d,p)
$end

$molecule
0 1
C           8.030000     17.966000     -7.283000
C           6.664000     17.723000     -7.488000
N           8.841000     16.992000     -6.773000
C           6.083000     16.515000     -6.994000
C           8.352000     15.749000     -6.500000
C           6.940000     15.482000     -6.701000
C           6.445000     14.165000     -6.454000
C           5.275000     13.913000     -5.735000
C           7.057000     13.058000     -7.016000
N           4.737000     12.678000     -5.534000
N           8.215000     13.109000     -7.724000
C           6.595000     11.754000     -6.761000
C           5.436000     11.563000     -5.942000
S           8.785000     11.591000     -7.894000
N           7.469000     10.773000     -7.265000
C           4.928000     10.276000     -5.465000
S           5.609000      8.742000     -5.924000
C           3.812000     10.089000     -4.670000
C           4.296000      7.777000     -4.987000
S           2.762000     11.224000     -3.907000
C           3.505000      8.712000     -4.357000
C           4.022000      6.367000     -5.058000
C           1.759000      9.872000     -3.240000
C           2.318000      8.654000     -3.531000
N           4.473000      5.760000     -6.144000
S           3.242000      5.425000     -3.845000
C           4.187000      4.429000     -6.009000
C           3.591000      4.030000     -4.792000
C           8.622000     19.269000     -7.768000
H           6.027000     18.540000     -7.812000
H           5.018000     16.450000     -7.196000
H           9.154000     15.039000     -6.303000
H           4.593000     14.724000     -5.483000
H           0.964000     10.158000     -2.564000
H           1.818000      7.712000     -3.335000
H           4.497000      3.756000     -6.798000
H           3.288000      3.058000     -4.426000
H           9.446000     19.100000     -8.472000
C           9.037000     20.263000     -6.609000
H           7.896000     19.820000     -8.379000
H           9.981000     19.953000     -6.145000
H           8.285000     20.256000     -5.810000
C           9.210000     21.673000     -7.130000
H           9.994000     21.684000     -7.896000
C           9.576000     22.733000     -6.014000
H           8.303000     21.977000     -7.668000
H          10.390000     22.261000     -5.449000
H           8.705000     22.803000     -5.350000
C           9.882000     24.083000     -6.680000
H          10.845000     24.114000     -7.205000
C          10.014000     25.299000     -5.690000
H           9.258000     24.347000     -7.543000
H           9.113000     25.357000     -5.067000
H          10.172000     26.295000     -6.120000
H          10.912000     25.022000     -5.123000
C           4.691000     13.520000     -0.763000
C           5.763000     14.437000     -0.878000
N           4.772000     12.333000     -1.384000
C           6.831000     14.140000     -1.683000
C           5.762000     12.075000     -2.256000
C           6.959000     12.904000     -2.359000
C           8.186000     12.534000     -3.087000
C           9.062000     13.482000     -3.698000
C           8.547000     11.172000     -3.325000
N          10.107000     13.171000     -4.460000
N           7.941000     10.147000     -2.690000
C           9.653000     10.830000     -4.114000
C          10.442000     11.882000     -4.657000
S           8.600000      8.830000     -3.323000
N           9.751000      9.462000     -4.244000
C          11.613000     11.666000     -5.539000
S          12.402000     10.093000     -5.918000
C          12.401000     12.634000     -6.137000
C          13.748000     10.855000     -6.741000
S          12.245000     14.392000     -6.032000
C          13.589000     12.188000     -6.718000
C          14.784000     10.100000     -7.321000
C          13.799000     14.555000     -6.920000
C          14.313000     13.275000     -7.226000
N          14.963000      8.889000     -6.804000
S          16.101000     10.713000     -8.230000
C          16.219000      8.529000     -6.952000
C          16.992000      9.331000     -7.742000
C           3.584000     13.658000      0.275000
H           5.835000     15.325000     -0.257000
H           7.640000     14.852000     -1.820000
H           5.544000     11.160000     -2.804000
H           8.825000     14.545000     -3.671000
H          14.354000     15.475000     -7.052000
H          15.312000     13.140000     -7.625000
H          16.469000      7.571000     -6.517000
H          18.027000      9.192000     -8.025000
H           3.695000     12.891000      1.051000
C           2.193000     13.411000     -0.415000
H           3.564000     14.645000      0.754000
H           2.315000     12.488000     -0.996000
H           1.845000     14.166000     -1.130000
C           0.988000     13.239000      0.493000
H           1.224000     12.415000      1.177000
C          -0.247000     12.808000     -0.253000
H           0.731000     14.184000      0.988000
H          -0.186000     11.821000     -0.727000
H          -0.557000     13.409000     -1.117000
C          -1.431000     12.858000      0.737000
H          -1.186000     11.985000      1.354000
C          -2.760000     12.819000      0.061000
H          -1.358000     13.795000      1.303000
H          -3.531000     13.192000      0.746000
H          -2.980000     11.802000     -0.288000
H          -2.707000     13.546000     -0.758000
$end

--------------------------------------------------------------

             Standard Nuclear Orientation (Angstroms)
    I     Atom           X                Y                Z
 ----------------------------------------------------------------
    1      C       3.7599973296    -4.3144424932     1.9111224601
    2      C       2.6100128838    -4.6572793257     2.6370898703
    3      N       3.7837725197    -3.1897038624     1.1359484457
    4      C       1.4005816711    -3.9273864795     2.4240321912
    5      C       2.7101926976    -2.3506119410     1.0906702697
    6      C       1.5102627223    -2.6929023183     1.8312371822
    7      C       0.4063508856    -1.7864958122     1.8131015110
    8      C      -0.9131024174    -2.1964401882     1.6122194815
    9      C       0.5827306741    -0.4447745074     2.1038094581
   10      N      -1.9974311022    -1.3732166797     1.6522739218
   11      N       1.7946359438     0.1357278559     2.3016266045
   12      C      -0.4911368106     0.4630837458     2.0652475943
   13      C      -1.8082491437    -0.0133403824     1.7673245301
   14      S       1.6072502816     1.7545651655     2.2528784914
   15      N      -0.0636360018     1.7971435421     2.1985912047
   16      C      -2.9894088324     0.8210318684     1.5422762314
   17      S      -2.9927801464     2.5523113949     1.7162240266
   18      C      -4.2613387887     0.3639047208     1.2495665504
   19      C      -4.8380403392     2.6727428820     1.3790681610
   20      S      -4.8505613627    -1.2276089154     0.9449436624
   21      C      -5.2639192836     1.3935453261     1.0978445176
   22      C      -5.6944986656     3.8124502607     1.5681798373
   23      C      -6.5304218510    -0.5836658060     0.7394977778
   24      C      -6.5440406878     0.7861824238     0.8028724926
   25      N      -5.2311366265     4.7331140657     2.3981917522
   26      S      -7.1934075187     4.0961576209     0.7682327241
   27      C      -6.1327047905     5.7620678278     2.4015085444
   28      C      -7.2299155185     5.6449927486     1.5195062518
   29      C       5.0195996666    -5.1250949104     2.1104779496
   30      H       2.5887542064    -5.5999211533     3.1748709164
   31      H       0.5769710684    -4.2973810105     3.0273758927
   32      H       2.9599161024    -1.4088883227     0.6039384668
   33      H      -1.1758347570    -3.2531683646     1.6376414977
   34      H      -7.2790443569    -1.2988850662     0.4251369126
   35      H      -7.4588288076     1.3677739383     0.8292164901
   36      H      -5.9188345337     6.6283599731     3.0141645916
   37      H      -8.0585478847     6.3091794539     1.3126888876
   38      H       5.8562671496    -4.4958520264     2.4378827692
   39      C       5.4141657972    -6.0244511827     0.8699063620
   40      H       4.9025224143    -5.8215000205     2.9503058127
   41      H       5.8723643188    -5.4209329304     0.0772198957
   42      H       4.5203107337    -6.4833200095     0.4289794686
   43      C       6.3964467110    -7.1053942966     1.2650723916
   44      H       7.3065538203    -6.6418860670     1.6630650685
   45      C       6.7971961198    -8.0769157276     0.0824659396
   46      H       5.9914364353    -7.6747139712     2.1114474767
   47      H       7.0387455580    -7.4041559522    -0.7503924839
   48      H       5.8901579978    -8.6321221126    -0.1885778121
   49      C       7.9102362622    -9.0219313902     0.5597279627
   50      H       8.8903464154    -8.5401500815     0.6656801142
   51      C       8.2382607013   -10.2111211807    -0.4172099112
   52      H       7.8302151579    -9.3766635257     1.5949104273
   53      H       7.3156617007   -10.7616400177    -0.6386463453
   54      H       8.9829222903   -10.9483937293    -0.0950479846
   55      H       8.6384107402    -9.6746037095    -1.2870667669
   56      C      -3.3156524419    -2.9645346432    -2.7299082559
   57      C      -1.9768664926    -3.2896816848    -3.0542993519
   58      N      -3.5868037870    -1.7724518613    -2.1762056378
   59      C      -0.9666030610    -2.4238285786    -2.7279189035
   60      C      -2.5980842609    -0.9633296771    -1.7581111632
   61      C      -1.2032196168    -1.1584881957    -2.1414188431
   62      C      -0.1250920296    -0.1724094031    -1.9472474743
   63      C       1.2432321498    -0.5240894877    -1.7388942690
   64      C      -0.3852741407     1.2295613550    -1.8534804097
   65      N       2.2131983434     0.3366974437    -1.4429188609
   66      N      -1.5789389830     1.7623914065    -2.1886555589
   67      C       0.6291726488     2.1489202443    -1.5561624923
   68      C       1.9516520444     1.6557415723    -1.3775650521
   69      S      -1.4376630532     3.3224612854    -1.8485348675
   70      N       0.1148876668     3.4232672190    -1.4588036450
   71      C       3.1103732249     2.5080688933    -1.0215813953
   72      S       3.1483247634     4.3068530805    -0.9630482554
   73      C       4.4120813941     2.0982427374    -0.7909943964
   74      C       4.8854647802     4.3604334419    -0.7413216067
   75      S       5.0703728647     0.4582994461    -0.8472379837
   76      C       5.3714492062     3.1090846004    -0.7159402226
   77      C       5.5767194652     5.5782403775    -0.6040837544
   78      C       6.7191108576     1.1429613676    -0.6400422207
   79      C       6.6452644034     2.5506743701    -0.5445288517
   80      N       4.9744654931     6.6368224753    -1.1356334654
   81      S       7.2508673823     5.7658456177    -0.2901219323
   82      C       5.8772366260     7.5261121349    -1.4866436972
   83      C       7.1565684652     7.2897925797    -1.0715580279
   84      C      -4.5136543958    -3.7471641272    -3.2535678871
   85      H      -1.7213310639    -4.1510216281    -3.6643519290
   86      H       0.0706897456    -2.6781561744    -2.9267532755
   87      H      -3.0103225655    -0.1541767662    -1.1577911260
   88      H       1.5383222115    -1.5713337464    -1.6835018698
   89      H       7.6457800416     0.5936059408    -0.7465402884
   90      H       7.5327713547     3.1729835842    -0.5666569672
   91      H       5.4796266561     8.4060984966    -1.9734899923
   92      H       8.0307034167     7.9111618484    -1.2144682039
   93      H      -5.0544497831    -3.1554857481    -4.0020617379
   94      C      -5.5155741984    -4.0132467909    -2.0714736754
   95      H      -4.2366547226    -4.7113507284    -3.6981186480
   96      H      -5.6440994230    -3.0436591841    -1.5737235980
   97      H      -5.1940947626    -4.7078074751    -1.2862409531
   98      C      -6.8923653149    -4.5418693855    -2.4335197690
   99      H      -7.3260915352    -3.8295768847    -3.1455934725
  100      C      -7.8340597997    -4.5678541979    -1.2587694608
  101      H      -6.8329105927    -5.5746188072    -2.7995699952
  102      H      -8.0795475690    -3.5867303947    -0.8348616431
  103      H      -7.5014359204    -5.0839549473    -0.3494849226
  104      C      -9.1188245880    -5.2978112160    -1.7070976782
  105      H      -9.5446370037    -4.5266821432    -2.3604633797
  106      C      -9.9781294170    -5.7232611791    -0.5645892364
  107      H      -8.8202711735    -6.1924966930    -2.2675062398
  108      H     -10.6697721436    -6.5065231846    -0.8976447415
  109      H     -10.5095094075    -4.8593094507    -0.1454082294
  110      H      -9.3078721796    -6.2009113895     0.1597756663
 ----------------------------------------------------------------

   10   -5663.5129463038      3.63E-06 Convergence criterion met
 Total energy in the final basis set = -5663.5129463038

                    Orbital Energies (a.u.)
 --------------------------------------------------------------

 Alpha MOs
 -- Occupied --
-88.985 -88.984 -88.932 -88.932 -88.918 -88.916 -88.908 -88.902
-14.381 -14.379 -14.373 -14.371 -14.350 -14.347 -14.342 -14.337
-14.323 -14.321 -10.265 -10.263 -10.262 -10.261 -10.252 -10.252
-10.249 -10.245 -10.242 -10.239 -10.237 -10.236 -10.234 -10.232
-10.232 -10.231 -10.228 -10.227 -10.227 -10.226 -10.226 -10.226
-10.225 -10.225 -10.224 -10.224 -10.224 -10.215 -10.211 -10.209
-10.209 -10.207 -10.203 -10.203 -10.201 -10.199 -10.195 -10.192
-10.187 -10.186 -10.184 -10.181 -10.180 -10.176 -10.173 -10.173
-10.172 -10.171 -10.170 -10.170  -8.041  -8.038  -7.994  -7.993
 -7.976  -7.975  -7.966  -7.961  -6.006  -6.004  -6.000  -5.999
 -5.998  -5.996  -5.958  -5.957  -5.954  -5.954  -5.951  -5.950
 -5.940  -5.939  -5.936  -5.935  -5.932  -5.931  -5.931  -5.927
 -5.926  -5.923  -5.922  -5.918  -1.039  -1.014  -0.988  -0.973
 -0.960  -0.944  -0.932  -0.923  -0.913  -0.900  -0.898  -0.881
 -0.837  -0.834  -0.831  -0.828  -0.820  -0.817  -0.810  -0.808
 -0.802  -0.800  -0.796  -0.794  -0.782  -0.778  -0.768  -0.762
 -0.751  -0.744  -0.741  -0.736  -0.718  -0.717  -0.711  -0.705
 -0.691  -0.687  -0.673  -0.668  -0.652  -0.652  -0.640  -0.636
 -0.633  -0.630  -0.619  -0.617  -0.610  -0.607  -0.602  -0.598
 -0.590  -0.589  -0.580  -0.577  -0.576  -0.574  -0.572  -0.568
 -0.544  -0.542  -0.539  -0.534  -0.527  -0.520  -0.518  -0.511
 -0.504  -0.502  -0.496  -0.492  -0.486  -0.481  -0.478  -0.473
 -0.472  -0.470  -0.467  -0.465  -0.464  -0.453  -0.450  -0.446
 -0.444  -0.442  -0.439  -0.438  -0.437  -0.434  -0.432  -0.428
 -0.427  -0.426  -0.423  -0.421  -0.418  -0.415  -0.415  -0.412
 -0.410  -0.407  -0.406  -0.404  -0.395  -0.394  -0.393  -0.392
 -0.390  -0.389  -0.387  -0.385  -0.383  -0.383  -0.382  -0.379
 -0.379  -0.375  -0.370  -0.369  -0.368  -0.364  -0.357  -0.349
 -0.348  -0.345  -0.344  -0.339  -0.338  -0.336  -0.334  -0.333
 -0.331  -0.330  -0.330  -0.328  -0.325  -0.324  -0.321  -0.318
 -0.317  -0.315  -0.307  -0.305  -0.303  -0.300  -0.298  -0.296
 -0.294  -0.293  -0.293  -0.290  -0.289  -0.285  -0.283  -0.281
 -0.277  -0.271  -0.265  -0.258  -0.252  -0.249  -0.242  -0.240
 -0.238  -0.234  -0.229  -0.223  -0.190  -0.188

          Ground-State Mulliken Net Atomic Charges

     Atom                 Charge (a.u.)
  ----------------------------------------
      1 C                     0.281268
      2 C                    -0.125128
      3 N                    -0.482430
      4 C                    -0.086311
      5 C                     0.077324
      6 C                     0.017132
      7 C                     0.043479
      8 C                     0.049999
      9 C                     0.238588
     10 N                    -0.531163
     11 N                    -0.559937
     12 C                     0.193792
     13 C                     0.316177
     14 S                     0.631654
     15 N                    -0.581499
     16 C                    -0.222014
     17 S                     0.333179
     18 C                    -0.133573
     19 C                    -0.232201
     20 S                     0.310489
     21 C                     0.149321
     22 C                     0.031614
     23 C                    -0.313035
     24 C                    -0.072543
     25 N                    -0.406295
     26 S                     0.293611
     27 C                     0.114860
     28 C                    -0.315118
     29 C                    -0.229639
     30 H                     0.085703
     31 H                     0.104773
     32 H                     0.154651
     33 H                     0.109308
     34 H                     0.136693
     35 H                     0.105935
     36 H                     0.112703
     37 H                     0.139282
     38 H                     0.117250
     39 C                    -0.174884
     40 H                     0.095057
     41 H                     0.109125
     42 H                     0.092652
     43 C                    -0.184655
     44 H                     0.092890
     45 C                    -0.169095
     46 H                     0.087981
     47 H                     0.097555
     48 H                     0.095500
     49 C                    -0.186705
     50 H                     0.094125
     51 C                    -0.321090
     52 H                     0.093125
     53 H                     0.100737
     54 H                     0.099867
     55 H                     0.105248
     56 C                     0.277072
     57 C                    -0.133525
     58 N                    -0.470433
     59 C                    -0.074483
     60 C                     0.104788
     61 C                     0.021206
     62 C                     0.051850
     63 C                     0.054201
     64 C                     0.176557
     65 N                    -0.534229
     66 N                    -0.534058
     67 C                     0.221489
     68 C                     0.301834
     69 S                     0.637913
     70 N                    -0.555389
     71 C                    -0.233439
     72 S                     0.339317
     73 C                    -0.148182
     74 C                    -0.215684
     75 S                     0.307527
     76 C                     0.193197
     77 C                     0.024198
     78 C                    -0.311721
     79 C                    -0.100764
     80 N                    -0.398817
     81 S                     0.288126
     82 C                     0.128850
     83 C                    -0.319760
     84 C                    -0.220774
     85 H                     0.088028
     86 H                     0.092763
     87 H                     0.123046
     88 H                     0.114993
     89 H                     0.132779
     90 H                     0.101426
     91 H                     0.111999
     92 H                     0.137149
     93 H                     0.119949
     94 C                    -0.192274
     95 H                     0.094294
     96 H                     0.128294
     97 H                     0.088113
     98 C                    -0.168674
     99 H                     0.091018
    100 C                    -0.184575
    101 H                     0.089675
    102 H                     0.083436
    103 H                     0.081740
    104 C                    -0.168422
    105 H                     0.093720
    106 C                    -0.314120
    107 H                     0.089977
    108 H                     0.099982
    109 H                     0.102304
    110 H                     0.101180
  ----------------------------------------
  Sum of atomic charges =     0.000000

                    Cartesian Multipole Moments
 -----------------------------------------------------------------
    Charge (ESU x 10^10)
                 0.0000
    Dipole Moment (Debye)
         X       0.3534      Y      -0.2507      Z      -0.9555
       Tot       1.0491
    Quadrupole Moments (Debye-Ang)
        XX    -383.9009     XY       3.8157     YY    -402.2450
        XZ       2.3727     YZ      -6.0248     ZZ    -450.8246

 Total job time:  111.75s(wall), 1204.85s(cpu)
        *  Thank you very much for using Q-Chem.  Have a nice day.  *
