 Q-Chem 4.4, Q-Chem, Inc., Pleasanton, CA (2016)
 Q-Chem 4.4.2 for Intel X86 Linux

User input:
--------------------------------------------------------------
$comment
SP
$end

$rem
MEM_STATIC 5000
MEM_TOTAL 20000
JOBTYPE SP
EXCHANGE B3LYP
BASIS 6-31g(d,p)
$end

$molecule
0 1
C           4.691000     13.520000     -0.763000
C           5.763000     14.437000     -0.878000
N           4.772000     12.333000     -1.384000
C           6.831000     14.140000     -1.683000
C           5.762000     12.075000     -2.256000
C           6.959000     12.904000     -2.359000
C           8.186000     12.534000     -3.087000
C           9.062000     13.482000     -3.698000
C           8.547000     11.172000     -3.325000
N          10.107000     13.171000     -4.460000
N           7.941000     10.147000     -2.690000
C           9.653000     10.830000     -4.114000
C          10.442000     11.882000     -4.657000
S           8.600000      8.830000     -3.323000
N           9.751000      9.462000     -4.244000
C          11.613000     11.666000     -5.539000
S          12.402000     10.093000     -5.918000
C          12.401000     12.634000     -6.137000
C          13.748000     10.855000     -6.741000
S          12.245000     14.392000     -6.032000
C          13.589000     12.188000     -6.718000
C          14.784000     10.100000     -7.321000
C          13.799000     14.555000     -6.920000
C          14.313000     13.275000     -7.226000
N          14.963000      8.889000     -6.804000
S          16.101000     10.713000     -8.230000
C          16.219000      8.529000     -6.952000
C          16.992000      9.331000     -7.742000
C           3.584000     13.658000      0.275000
H           5.835000     15.325000     -0.257000
H           7.640000     14.852000     -1.820000
H           5.544000     11.160000     -2.804000
H           8.825000     14.545000     -3.671000
H          14.354000     15.475000     -7.052000
H          15.312000     13.140000     -7.625000
H          16.469000      7.571000     -6.517000
H          18.027000      9.192000     -8.025000
H           3.695000     12.891000      1.051000
C           2.193000     13.411000     -0.415000
H           3.564000     14.645000      0.754000
H           2.315000     12.488000     -0.996000
H           1.845000     14.166000     -1.130000
C           0.988000     13.239000      0.493000
H           1.224000     12.415000      1.177000
C          -0.247000     12.808000     -0.253000
H           0.731000     14.184000      0.988000
H          -0.186000     11.821000     -0.727000
H          -0.557000     13.409000     -1.117000
C          -1.431000     12.858000      0.737000
H          -1.186000     11.985000      1.354000
C          -2.760000     12.819000      0.061000
H          -1.358000     13.795000      1.303000
H          -3.531000     13.192000      0.746000
H          -2.980000     11.802000     -0.288000
H          -2.707000     13.546000     -0.758000
C           0.692000     13.408000    -14.675000
C           1.613000     14.301000    -15.261000
N           1.056000     12.814000    -13.513000
C           2.902000     14.440000    -14.739000
C           2.199000     13.101000    -12.877000
C           3.180000     13.900000    -13.507000
C           4.521000     14.079000    -12.861000
C           5.762000     13.991000    -13.596000
C           4.687000     14.241000    -11.522000
N           7.019000     13.988000    -13.119000
N           3.630000     14.332000    -10.654000
C           5.941000     14.296000    -10.961000
C           7.100000     14.150000    -11.770000
S           4.248000     14.477000     -9.191000
N           5.808000     14.414000     -9.673000
C           8.468000     14.173000    -11.146000
S           9.093000     15.326000     -9.895000
C           9.539000     13.481000    -11.708000
C          10.771000     14.913000    -10.231000
S           9.526000     12.251000    -12.945000
C          10.795000     13.903000    -11.209000
C          11.889000     15.696000     -9.699000
C          11.351000     12.618000    -13.051000
C          11.820000     13.253000    -11.903000
N          13.087000     15.522000    -10.148000
S          11.574000     16.977000     -8.583000
C          13.948000     16.366000     -9.608000
C          13.352000     17.217000     -8.637000
C          -0.622000     13.052000    -15.188000
H           1.420000     14.766000    -16.224000
H           3.592000     15.163000    -15.164000
H           2.410000     12.620000    -11.923000
H           5.677000     13.843000    -14.672000
H          11.871000     12.149000    -13.876000
H          12.868000     13.448000    -11.708000
H          15.011000     16.242000     -9.768000
H          13.972000     17.934000     -8.116000
H          -0.495000     12.992000    -16.276000
C          -1.705000     14.106000    -14.771000
H          -0.885000     12.042000    -14.852000
H          -1.506000     14.444000    -13.746000
H          -2.689000     13.645000    -14.918000
C          -1.719000     15.361000    -15.653000
H          -0.852000     16.028000    -15.568000
C          -2.994000     16.173000    -15.450000
H          -1.734000     15.065000    -16.710000
H          -3.089000     16.573000    -14.433000
H          -3.800000     15.441000    -15.579000
C          -3.077000     17.466000    -16.242000
H          -3.917000     18.079000    -15.891000
C          -3.349000     17.164000    -17.717000
H          -2.182000     18.063000    -16.027000
H          -4.302000     16.643000    -17.871000
H          -2.474000     16.628000    -18.105000
H          -3.368000     18.106000    -18.278000
$end

--------------------------------------------------------------

             Standard Nuclear Orientation (Angstroms)
    I     Atom           X                Y                Z
 ----------------------------------------------------------------
    1      C      -1.2080151237     7.6490907657     1.2104611974
    2      C      -1.8794678516     6.9204438770     2.2211653805
    3      N      -1.2098958130     7.1821817110    -0.0477770144
    4      C      -2.4522649077     5.7118897963     1.9242502973
    5      C      -1.6759222510     5.9529104676    -0.3284183679
    6      C      -2.4769478779     5.1782550704     0.6144103337
    7      C      -3.2369760488     3.9604668056     0.2801022101
    8      C      -3.4933404424     2.9058225709     1.2082206486
    9      C      -3.6987601562     3.6927357656    -1.0454484409
   10      N      -4.0704122962     1.7470222403     0.9023450708
   11      N      -3.6987922994     4.6363543339    -2.0101608315
   12      C      -4.3206227006     2.4823609633    -1.3786162871
   13      C      -4.5156022563     1.5211744455    -0.3479963518
   14      S      -4.2116280042     3.8745483883    -3.3239759787
   15      N      -4.6130224572     2.4421674940    -2.7242815008
   16      C      -5.1220944105     0.1869050235    -0.5664302696
   17      S      -5.9205287403    -0.4018894870    -2.0685336767
   18      C      -5.3060862710    -0.8133158988     0.3723333331
   19      C      -6.5095264694    -1.8619768414    -1.2998233330
   20      S      -4.8744599648    -0.7992734484     2.0868089210
   21      C      -6.1199945351    -1.8788297408    -0.0150354704
   22      C      -7.2564263581    -2.8214103257    -2.0078833203
   23      C      -5.7277542425    -2.3684469824     2.2858373009
   24      C      -6.2698990963    -2.7799127548     1.0476907523
   25      N      -7.9025733830    -2.3643381721    -3.0753242173
   26      S      -7.8084605864    -4.3269132868    -1.4035174998
   27      C      -8.9687394437    -3.1024392152    -3.2933535300
   28      C      -9.0792348923    -4.2442887919    -2.5525409356
   29      C      -0.7476805514     9.0907249771     1.3885619615
   30      H      -2.0671381294     7.3354205687     3.2070371836
   31      H      -2.9304604583     5.1173465043     2.6975815907
   32      H      -1.4053161994     5.6774855238    -1.3462427463
   33      H      -3.0933413340     2.9562456683     2.2203101825
   34      H      -5.9512026044    -2.8469841227     3.2307828204
   35      H      -6.9502495142    -3.6206479665     0.9720956954
   36      H      -9.5846713430    -2.7741789292    -4.1194056350
   37      H      -9.8476583532    -5.0040292215    -2.6068995998
   38      H      -1.3741608141     9.7645813434     0.7917151821
   39      C       0.7217485002     9.2359016029     0.8484767740
   40      H      -0.7680691696     9.4227835466     2.4341868515
   41      H       0.7181222753     8.7587897293    -0.1398172666
   42      H       1.5173081521     8.7366451148     1.4143228655
   43      C       1.2670611566    10.6441374952     0.6885431055
   44      H       0.5680225259    11.1804060446     0.0356349683
   45      C       2.5946890094    10.6778327699    -0.0212251052
   46      H       1.4317672259    11.1150122418     1.6659109399
   47      H       2.5778116619    10.3290378917    -1.0607554261
   48      H       3.4001052828    10.0454601586     0.3727374654
   49      C       3.1263403919    12.1257062010     0.0527027989
   50      H       2.4426390616    12.6044689313    -0.6587617041
   51      C       4.5777333582    12.2326670457    -0.2740323155
   52      H       2.9744726556    12.4888536426     1.0767702412
   53      H       4.9720892965    13.1798178102     0.1135032611
   54      H       4.7324341591    12.1372776212    -1.3563716892
   55      H       5.0779698745    11.4415912693     0.2969856736
   56      C       8.9661940809    -2.1755308462    -1.8734593986
   57      C       8.6484263299    -3.2270097166    -0.9888680570
   58      N       7.9706491856    -1.3168967941    -2.2008947754
   59      C       7.3262154396    -3.4538708377    -0.5969262333
   60      C       6.7462196251    -1.3846712965    -1.6628493608
   61      C       6.3802610013    -2.4961582083    -0.8701746920
   62      C       4.9612490142    -2.6472828417    -0.4106049739
   63      C       4.2489685253    -3.9031798125    -0.4691652319
   64      C       4.1980603079    -1.6029109300     0.0059899235
   65      N       2.9476239307    -4.1395170564    -0.2278481100
   66      N       4.6896547920    -0.3279485073     0.1144319996
   67      C       2.8697671393    -1.7710918087     0.3184230368
   68      C       2.2517392030    -3.0430515834     0.1797226350
   69      S       3.4785753380     0.5922552907     0.5938373880
   70      N       2.3766813409    -0.6131904629     0.6450541265
   71      C       0.7894506375    -3.2129969476     0.4865772005
   72      S      -0.1230051901    -2.5666733000     1.9130151084
   73      C       0.0165853636    -4.1805633297    -0.1523622055
   74      C      -1.4662549827    -3.6768930995     1.6635336633
   75      S       0.3870662513    -5.1216858929    -1.5737243104
   76      C      -1.2099398817    -4.4352072163     0.5074963502
   77      C      -2.5197395866    -3.8645887071     2.6640223180
   78      C      -1.0379634142    -6.1797880712    -1.0025323698
   79      C      -1.8708429417    -5.4956746050    -0.1197014358
   80      N      -3.3524389242    -4.8465441967     2.5667791723
   81      S      -2.5423335166    -2.8632785225     4.0720384503
   82      C      -4.1793991470    -4.9011249025     3.5955720263
   83      C      -3.9781800229    -3.8416421318     4.5225375718
   84      C      10.2619798998    -1.9089688457    -2.4787566905
   85      H       9.3757517277    -3.9918592427    -0.7303221846
   86      H       7.0920544435    -4.2344224017     0.1209608636
   87      H       6.0048160893    -0.6353162425    -1.9363192865
   88      H       4.8176003325    -4.7656405128    -0.8151773823
   89      H      -1.1698470550    -7.1094244604    -1.5404625597
   90      H      -2.8173688868    -5.8833304025     0.2383008239
   91      H      -5.0287350424    -5.5714736750     3.5812172314
   92      H      -4.6164851652    -3.7777316239     5.3934060993
   93      H      10.6739648353    -2.8980905115    -2.7140857012
   94      C      11.1880767839    -1.0911476568    -1.5137659837
   95      H      10.1197720817    -1.3978246571    -3.4382740457
   96      H      10.5854278117    -0.3474755910    -0.9768897643
   97      H      12.0037573242    -0.6717423010    -2.1147238887
   98      C      11.8812681448    -1.9484349588    -0.4471408298
   99      H      11.2363289650    -2.3790829987     0.3290026622
  100      C      13.0267934529    -1.1936189605     0.2193444118
  101      H      12.3516569440    -2.8174345302    -0.9253292055
  102      H      12.6901136566    -0.3116297757     0.7779639538
  103      H      13.6284735778    -0.8260577474    -0.6202869251
  104      C      13.7421713899    -1.9420382356     1.3302471960
  105      H      14.4062316484    -1.2660729749     1.8840205607
  106      C      14.6339548964    -3.0358791258     0.7394449579
  107      H      12.9959535043    -2.2697930338     2.0646821212
  108      H      15.4147672129    -2.6330268317     0.0826282745
  109      H      13.9736038795    -3.7681967673     0.2587034405
  110      H      15.1120932080    -3.5887095786     1.5568850141
 ----------------------------------------------------------------

   10   -5663.4789872092      3.12E-06 Convergence criterion met
 Total energy in the final basis set = -5663.4789872092

                    Orbital Energies (a.u.)
 --------------------------------------------------------------

 Alpha MOs
 -- Occupied --
-88.991 -88.987 -88.931 -88.931 -88.921 -88.913 -88.906 -88.905
-14.382 -14.375 -14.369 -14.369 -14.355 -14.348 -14.337 -14.336
-14.325 -14.320 -10.268 -10.264 -10.263 -10.261 -10.254 -10.251
-10.245 -10.241 -10.240 -10.240 -10.238 -10.237 -10.236 -10.232
-10.232 -10.231 -10.231 -10.230 -10.229 -10.227 -10.225 -10.225
-10.224 -10.224 -10.223 -10.223 -10.222 -10.219 -10.218 -10.208
-10.208 -10.206 -10.204 -10.198 -10.198 -10.197 -10.197 -10.196
-10.188 -10.186 -10.182 -10.177 -10.176 -10.172 -10.171 -10.170
-10.169 -10.168 -10.167 -10.166  -8.046  -8.043  -7.993  -7.991
 -7.980  -7.972  -7.965  -7.964  -6.011  -6.008  -6.006  -6.004
 -6.002  -6.001  -5.956  -5.955  -5.953  -5.952  -5.950  -5.948
 -5.945  -5.941  -5.937  -5.937  -5.933  -5.929  -5.929  -5.929
 -5.926  -5.925  -5.921  -5.920  -1.044  -1.041  -0.987  -0.984
 -0.959  -0.957  -0.936  -0.934  -0.911  -0.903  -0.900  -0.897
 -0.841  -0.835  -0.834  -0.830  -0.819  -0.813  -0.808  -0.807
 -0.807  -0.804  -0.797  -0.791  -0.788  -0.783  -0.768  -0.762
 -0.750  -0.748  -0.740  -0.740  -0.715  -0.715  -0.710  -0.710
 -0.693  -0.690  -0.673  -0.673  -0.657  -0.652  -0.644  -0.641
 -0.633  -0.633  -0.624  -0.621  -0.614  -0.610  -0.602  -0.600
 -0.591  -0.589  -0.581  -0.577  -0.573  -0.570  -0.567  -0.563
 -0.549  -0.543  -0.542  -0.536  -0.527  -0.521  -0.518  -0.506
 -0.505  -0.505  -0.499  -0.495  -0.487  -0.485  -0.478  -0.477
 -0.475  -0.474  -0.471  -0.469  -0.466  -0.460  -0.450  -0.447
 -0.445  -0.443  -0.441  -0.440  -0.439  -0.437  -0.436  -0.429
 -0.427  -0.425  -0.421  -0.420  -0.417  -0.415  -0.414  -0.412
 -0.410  -0.409  -0.407  -0.404  -0.398  -0.396  -0.396  -0.394
 -0.393  -0.390  -0.390  -0.388  -0.386  -0.384  -0.383  -0.381
 -0.379  -0.378  -0.373  -0.371  -0.368  -0.367  -0.356  -0.356
 -0.352  -0.348  -0.345  -0.344  -0.341  -0.340  -0.339  -0.336
 -0.332  -0.331  -0.329  -0.328  -0.327  -0.326  -0.323  -0.318
 -0.315  -0.309  -0.309  -0.305  -0.302  -0.299  -0.298  -0.298
 -0.296  -0.294  -0.293  -0.291  -0.285  -0.283  -0.283  -0.282
 -0.279  -0.276  -0.266  -0.261  -0.251  -0.247  -0.243  -0.238
 -0.238  -0.236  -0.226  -0.224  -0.190  -0.187

          Ground-State Mulliken Net Atomic Charges

     Atom                 Charge (a.u.)
  ----------------------------------------
      1 C                     0.275745
      2 C                    -0.130355
      3 N                    -0.468774
      4 C                    -0.073632
      5 C                     0.086303
      6 C                     0.025247
      7 C                     0.052241
      8 C                     0.058999
      9 C                     0.177708
     10 N                    -0.525621
     11 N                    -0.530958
     12 C                     0.216757
     13 C                     0.312206
     14 S                     0.617735
     15 N                    -0.553167
     16 C                    -0.225127
     17 S                     0.340486
     18 C                    -0.140414
     19 C                    -0.215767
     20 S                     0.287336
     21 C                     0.191842
     22 C                     0.024941
     23 C                    -0.298382
     24 C                    -0.099821
     25 N                    -0.399750
     26 S                     0.286660
     27 C                     0.128625
     28 C                    -0.320080
     29 C                    -0.220802
     30 H                     0.089525
     31 H                     0.092112
     32 H                     0.113476
     33 H                     0.108891
     34 H                     0.123014
     35 H                     0.096755
     36 H                     0.111105
     37 H                     0.135808
     38 H                     0.121047
     39 C                    -0.187177
     40 H                     0.094456
     41 H                     0.122164
     42 H                     0.086646
     43 C                    -0.168639
     44 H                     0.091268
     45 C                    -0.181699
     46 H                     0.087858
     47 H                     0.090733
     48 H                     0.079217
     49 C                    -0.168056
     50 H                     0.093709
     51 C                    -0.313788
     52 H                     0.087379
     53 H                     0.098446
     54 H                     0.103614
     55 H                     0.100094
     56 C                     0.277817
     57 C                    -0.126340
     58 N                    -0.488734
     59 C                    -0.083901
     60 C                     0.117620
     61 C                     0.039805
     62 C                     0.025169
     63 C                     0.049429
     64 C                     0.182190
     65 N                    -0.479056
     66 N                    -0.556530
     67 C                     0.292173
     68 C                     0.241954
     69 S                     0.612952
     70 N                    -0.586585
     71 C                    -0.215307
     72 S                     0.298220
     73 C                    -0.098720
     74 C                    -0.230617
     75 S                     0.249896
     76 C                     0.175275
     77 C                     0.105251
     78 C                    -0.284782
     79 C                    -0.074490
     80 N                    -0.416537
     81 S                     0.271689
     82 C                     0.121369
     83 C                    -0.328417
     84 C                    -0.229462
     85 H                     0.084153
     86 H                     0.102325
     87 H                     0.114305
     88 H                     0.102689
     89 H                     0.128379
     90 H                     0.126944
     91 H                     0.111879
     92 H                     0.121046
     93 H                     0.096738
     94 C                    -0.172607
     95 H                     0.120706
     96 H                     0.116462
     97 H                     0.096785
     98 C                    -0.178106
     99 H                     0.090547
    100 C                    -0.166076
    101 H                     0.090219
    102 H                     0.085403
    103 H                     0.085383
    104 C                    -0.182595
    105 H                     0.090794
    106 C                    -0.311959
    107 H                     0.093353
    108 H                     0.106740
    109 H                     0.102636
    110 H                     0.094385
  ----------------------------------------
  Sum of atomic charges =     0.000000

                    Cartesian Multipole Moments
 -----------------------------------------------------------------
    Charge (ESU x 10^10)
                 0.0000
    Dipole Moment (Debye)
         X      -1.4322      Y      -2.5828      Z       3.3394
       Tot       4.4579
    Quadrupole Moments (Debye-Ang)
        XX    -400.6800     XY      17.3846     YY    -425.2877
        XZ      -3.8271     YZ       8.3445     ZZ    -430.6036

 Total job time:  94.52s(wall), 1012.79s(cpu)
        *  Thank you very much for using Q-Chem.  Have a nice day.  *
