 Q-Chem 4.4, Q-Chem, Inc., Pleasanton, CA (2016)
 Q-Chem 4.4.2 for Intel X86 Linux

User input:
--------------------------------------------------------------
$comment
SP
$end

$rem
MEM_STATIC 5000
MEM_TOTAL 20000
JOBTYPE SP
EXCHANGE B3LYP
BASIS 6-31g(d,p)
$end

$molecule
0 1
C         -12.476000     22.108000    -13.906000
C         -12.734000     21.074000    -14.822000
N         -11.436000     22.088000    -12.990000
C         -11.877000     19.947000    -14.761000
C         -10.627000     20.989000    -12.942000
C         -10.765000     19.898000    -13.836000
C          -9.761000     18.785000    -13.760000
C          -8.445000     19.066000    -13.416000
C          -9.991000     17.407000    -14.126000
N          -7.478000     18.158000    -13.169000
N         -11.155000     16.901000    -14.577000
C          -9.009000     16.473000    -13.864000
C          -7.766000     16.824000    -13.405000
S         -10.936000     15.257000    -14.581000
N          -9.358000     15.176000    -14.153000
C          -6.655000     15.872000    -13.162000
S          -6.468000     14.269000    -14.018000
C          -5.584000     16.120000    -12.271000
C          -5.051000     13.957000    -13.028000
S          -5.318000     17.419000    -11.202000
C          -4.722000     15.095000    -12.268000
C          -4.457000     12.669000    -12.938000
C          -3.902000     16.400000    -10.629000
C          -3.720000     15.242000    -11.363000
N          -4.764000     11.779000    -13.924000
S          -3.283000     12.073000    -11.729000
C          -3.944000     10.652000    -13.720000
C          -3.101000     10.641000    -12.679000
C         -13.315000     23.353000    -13.881000
H         -13.475000     21.090000    -15.616000
H         -11.945000     19.208000    -15.554000
H          -9.908000     20.987000    -12.125000
H          -8.047000     20.034000    -13.114000
H          -3.257000     16.830000     -9.874000
H          -2.916000     14.534000    -11.200000
H          -4.097000      9.903000    -14.487000
H          -2.382000      9.887000    -12.387000
H         -12.712000     24.213000    -13.564000
C         -14.549000     23.175000    -12.986000
H         -13.745000     23.448000    -14.886000
H         -14.271000     22.916000    -11.957000
H         -15.158000     22.373000    -13.420000
C         -15.363000     24.472000    -12.949000
H         -14.670000     25.224000    -12.553000
C         -16.623000     24.413000    -12.034000
H         -15.652000     24.805000    -13.953000
H         -17.043000     25.422000    -11.941000
H         -16.319000     23.971000    -11.077000
C         -17.656000     23.434000    -12.699000
H         -17.814000     23.608000    -13.771000
C         -19.083000     23.518000    -12.066000
H         -17.393000     22.372000    -12.622000
H         -19.498000     24.527000    -12.182000
H         -19.073000     23.216000    -11.012000
H         -19.701000     22.779000    -12.592000
C         -14.969000     11.225000    -15.476000
C         -14.748000     12.479000    -14.935000
N         -14.017000     10.277000    -15.408000
C         -13.629000     12.738000    -14.112000
C         -12.890000     10.533000    -14.618000
C         -12.625000     11.784000    -13.958000
C         -11.397000     11.988000    -13.111000
C         -11.403000     12.832000    -12.008000
C         -10.136000     11.411000    -13.413000
N         -10.398000     13.172000    -11.178000
N          -9.788000     10.614000    -14.479000
C          -9.047000     11.650000    -12.525000
C          -9.202000     12.548000    -11.420000
S          -8.171000     10.431000    -14.337000
N          -7.888000     11.108000    -12.888000
C          -8.069000     13.006000    -10.557000
S          -6.742000     11.969000    -10.032000
C          -7.945000     14.161000     -9.767000
C          -6.003000     13.172000     -9.029000
S          -8.887000     15.698000     -9.978000
C          -6.840000     14.310000     -8.989000
C          -4.701000     13.050000     -8.420000
C          -7.741000     16.431000     -8.794000
C          -6.711000     15.632000     -8.349000
N          -3.970000     14.114000     -8.223000
S          -3.794000     11.514000     -8.478000
C          -2.637000     13.746000     -8.034000
C          -2.311000     12.423000     -8.233000
C         -16.181000     10.811000    -16.322000
H         -15.483000     13.258000    -15.115000
H         -13.481000     13.697000    -13.625000
H         -12.139000      9.758000    -14.475000
H         -12.368000     13.225000    -11.693000
H          -7.930000     17.444000     -8.465000
H          -5.984000     15.943000     -7.608000
H          -1.854000     14.488000     -7.949000
H          -1.371000     11.913000     -8.393000
H         -16.919000     10.433000    -15.604000
C         -15.927000      9.772000    -17.479000
H         -16.639000     11.728000    -16.713000
H         -15.762000      8.770000    -17.066000
H         -14.989000      9.918000    -18.028000
C         -17.138000      9.768000    -18.414000
H         -18.014000      9.723000    -17.754000
C         -17.108000      8.630000    -19.443000
H         -17.194000     10.602000    -19.124000
H         -16.478000      7.803000    -19.092000
H         -16.684000      8.985000    -20.390000
C         -18.561000      8.182000    -19.801000
H         -18.515000      7.237000    -20.356000
C         -19.359000      9.190000    -20.693000
H         -19.124000      7.982000    -18.881000
H         -18.780000      9.315000    -21.617000
H         -19.448000     10.212000    -20.307000
H         -20.304000      8.765000    -21.053000
$end

--------------------------------------------------------------

             Standard Nuclear Orientation (Angstroms)
    I     Atom           X                Y                Z
 ----------------------------------------------------------------
    1      C      -5.0647140946    -5.9574383779     1.3070763611
    2      C      -5.3348360248    -4.6469241597     1.7364510537
    3      N      -3.7996416191    -6.4179246703     0.9775312106
    4      C      -4.2297059922    -3.7620740558     1.7999089514
    5      C      -2.7497792309    -5.5468367614     1.0373711712
    6      C      -2.8894686029    -4.2104064503     1.4879284961
    7      C      -1.6534773408    -3.3674444047     1.6075177502
    8      C      -0.4484500675    -3.9577778357     1.9660825432
    9      C      -1.5919031116    -1.9290582837     1.4935266044
   10      N       0.7595705190    -3.3567530615     1.9702638338
   11      N      -2.6379114832    -1.1185843719     1.2418690496
   12      C      -0.3574719520    -1.3114529956     1.4853156318
   13      C       0.8061959615    -1.9937980150     1.7286533839
   14      S      -1.9677610975     0.3708510049     0.9534358354
   15      N      -0.3952136677     0.0450622875     1.2709028300
   16      C       2.1521937383    -1.3739843044     1.7902565418
   17      S       2.4618464333     0.3713799090     2.2319951195
   18      C       3.3570427658    -2.0793934061     1.5596859020
   19      C       4.1714347678     0.0953119787     1.9380100442
   20      S       3.6145237716    -3.6886448955     1.0647806831
   21      C       4.4150386732    -1.2702267595     1.6995858597
   22      C       5.1030504372     1.1621761595     1.8206513455
   23      C       5.3724187882    -3.1680173606     0.9623205411
   24      C       5.5938900440    -1.8755927855     1.4021309554
   25      N       4.7215459792     2.3709039473     2.3226239381
   26      S       6.7640073005     1.1144807491     1.1617731733
   27      C       5.8479080049     3.2132901750     2.2462103888
   28      C       6.9840867190     2.7340368554     1.7228890867
   29      C      -6.1560527847    -6.9837082321     1.2054837928
   30      H      -6.2898663614    -4.2725467419     2.0935667285
   31      H      -4.3724068056    -2.7974367895     2.2781405085
   32      H      -1.8095297254    -5.9384168864     0.6539003471
   33      H      -0.2668564879    -5.0217404079     2.1131859655
   34      H       6.0983878082    -3.9269471728     0.7016588407
   35      H       6.5686729482    -1.4050275956     1.4532747885
   36      H       5.6431334938     4.1921630195     2.6616310840
   37      H       7.9460198461     3.2172945840     1.6138586938
   38      H      -5.7570337534    -7.9858973596     1.4057305545
   39      C      -6.8530254910    -6.9220137436    -0.1604912570
   40      H      -6.9398987125    -6.6614535918     1.9023966340
   41      H      -6.1460657147    -7.0757737312    -0.9849739681
   42      H      -7.3182211428    -5.9329529592    -0.2487679267
   43      C      -7.9330133474    -8.0045942221    -0.2489205368
   44      H      -7.3936536739    -8.9480565652    -0.1021589968
   45      C      -8.6800080639    -8.0557463743    -1.6155544859
   46      H      -8.6618090027    -7.9261031101     0.5666296077
   47      H      -9.3084616636    -8.9542712614    -1.6443485896
   48      H      -7.9239333126    -8.0197250156    -2.4097096547
   49      C      -9.5534458578    -6.7556312380    -1.7362278164
   50      H     -10.1462585005    -6.5279779269    -0.8411461773
   51      C     -10.5950482636    -6.8166684894    -2.9004498236
   52      H      -8.9837142856    -5.8401493356    -1.9368289679
   53      H     -11.2977007627    -7.6451749521    -2.7467666861
   54      H     -10.1018875878    -6.8956051173    -3.8765551235
   55      H     -11.1211146544    -5.8533558493    -2.8984724838
   56      C      -4.6768846900     5.0646170719    -1.0346153382
   57      C      -4.6444336543     3.6833007417    -1.1049724730
   58      N      -3.5377178401     5.7658057390    -0.8922589504
   59      C      -3.4261416834     2.9829609343    -1.2528231664
   60      C      -2.3239250522     5.0781328361    -1.0087838257
   61      C      -2.2071466515     3.6521354884    -1.1627980114
   62      C      -0.8679282342     2.9769636834    -1.2956365021
   63      C      -0.7043325981     1.8219561388    -2.0494103672
   64      C       0.2957878416     3.4096261847    -0.6080159272
   65      N       0.3927170712     1.0626575682    -2.2350786296
   66      N       0.4332311973     4.4530957885     0.2779578365
   67      C       1.5179636855     2.7106565716    -0.8300827786
   68      C       1.5355182881     1.5290808984    -1.6394187807
   69      S       1.9622495296     4.3124374531     0.8353268096
   70      N       2.5588237147     3.1480904622    -0.1271773859
   71      C       2.7231828399     0.6284919448    -1.7683158288
   72      S       4.3899882747     1.1964957197    -1.8734555182
   73      C       2.7927994127    -0.7297359806    -2.1202695695
   74      C       5.0666670937    -0.3780982467    -2.1226514587
   75      S       1.4370303117    -1.9299412780    -1.9951640579
   76      C       4.0139058972    -1.3106131778    -2.2616578128
   77      C       6.4764615430    -0.6824877921    -2.0944448015
   78      C       2.6767164344    -3.1962798726    -2.3298667334
   79      C       3.9828511524    -2.7735851961    -2.4424158736
   80      N       6.8834995878    -1.8538171783    -1.6850873795
   81      S       7.6999931168     0.6136272335    -2.0029826321
   82      C       8.2342943529    -1.7929151699    -1.3391416500
   83      C       8.8316966038    -0.5522287473    -1.3354333459
   84      C      -5.9404643437     5.9314743408    -0.9452792652
   85      H      -5.5856057609     3.1415117471    -1.0937585966
   86      H      -3.3922516030     1.9051710153    -1.3792128534
   87      H      -1.3837593045     5.6261601672    -0.9799843243
   88      H      -1.5491880494     1.5074261268    -2.6594834268
   89      H       2.3390329033    -4.2159381952    -2.4579203858
   90      H       4.8103555391    -3.4307798679    -2.6825463658
   91      H       8.7387757040    -2.6363036188    -0.8862923476
   92      H       9.7469430231    -0.1777445706    -0.8979569542
   93      H      -6.2094482491     6.1580974369    -1.9841929435
   94      C      -5.8494105956     7.2452958517    -0.0802542641
   95      H      -6.7575493429     5.2883958706    -0.5954847752
   96      H      -5.2570047526     8.0071907255    -0.6002249540
   97      H      -5.2733549081     7.1439843398     0.8473538550
   98      C      -7.2650449091     7.7621839382     0.1835035731
   99      H      -7.7742523810     7.7222253155    -0.7881507168
  100      C      -7.2940368718     9.1606880090     0.8144796662
  101      H      -7.8243143754     7.2389653130     0.9685207285
  102      H      -6.3669289873     9.7060316652     0.5974514025
  103      H      -7.3806603246     9.0838894812     1.9049879713
  104      C      -8.5761726636     9.9327427036     0.3671136415
  105      H      -8.4690739293    10.9891536691     0.6422349475
  106      C      -9.9072400895     9.4302331493     1.0184780982
  107      H      -8.6671292644     9.8975779073    -0.7255250608
  108      H      -9.7818609962     9.5336662400     2.1039382213
  109      H     -10.1381516084     8.3667061068     0.8881281839
  110      H     -10.7499984410    10.0992986832     0.8054999951
 ----------------------------------------------------------------

   10   -5663.5154374751      5.16E-06 Convergence criterion met
 Total energy in the final basis set = -5663.5154374751

                    Orbital Energies (a.u.)
 --------------------------------------------------------------

 Alpha MOs
 -- Occupied --
-88.987 -88.986 -88.925 -88.924 -88.923 -88.921 -88.910 -88.906
-14.388 -14.384 -14.382 -14.381 -14.355 -14.351 -14.344 -14.340
-14.332 -14.331 -10.273 -10.270 -10.266 -10.260 -10.256 -10.254
-10.253 -10.248 -10.246 -10.243 -10.239 -10.238 -10.238 -10.236
-10.233 -10.232 -10.232 -10.231 -10.231 -10.230 -10.228 -10.228
-10.226 -10.224 -10.224 -10.223 -10.222 -10.221 -10.219 -10.219
-10.214 -10.213 -10.213 -10.203 -10.202 -10.201 -10.196 -10.194
-10.191 -10.182 -10.182 -10.179 -10.179 -10.179 -10.178 -10.175
-10.174 -10.173 -10.173 -10.171  -8.042  -8.041  -7.985  -7.984
 -7.984  -7.979  -7.969  -7.964  -6.007  -6.006  -6.001  -6.000
 -6.000  -5.999  -5.949  -5.948  -5.948  -5.945  -5.944  -5.944
 -5.943  -5.942  -5.941  -5.941  -5.940  -5.936  -5.933  -5.930
 -5.929  -5.926  -5.925  -5.920  -1.037  -1.031  -0.972  -0.955
 -0.951  -0.947  -0.928  -0.923  -0.915  -0.911  -0.904  -0.899
 -0.839  -0.837  -0.835  -0.823  -0.809  -0.808  -0.804  -0.804
 -0.801  -0.800  -0.793  -0.789  -0.782  -0.777  -0.766  -0.764
 -0.746  -0.745  -0.741  -0.736  -0.724  -0.719  -0.709  -0.707
 -0.694  -0.689  -0.673  -0.671  -0.654  -0.650  -0.647  -0.641
 -0.634  -0.631  -0.627  -0.620  -0.610  -0.603  -0.597  -0.596
 -0.591  -0.589  -0.584  -0.579  -0.576  -0.574  -0.562  -0.562
 -0.548  -0.543  -0.537  -0.534  -0.525  -0.521  -0.516  -0.514
 -0.508  -0.502  -0.502  -0.496  -0.485  -0.483  -0.480  -0.475
 -0.471  -0.469  -0.468  -0.466  -0.463  -0.460  -0.450  -0.449
 -0.443  -0.442  -0.440  -0.434  -0.432  -0.432  -0.428  -0.427
 -0.425  -0.421  -0.421  -0.420  -0.417  -0.413  -0.411  -0.410
 -0.407  -0.404  -0.403  -0.401  -0.399  -0.398  -0.394  -0.391
 -0.389  -0.389  -0.387  -0.384  -0.384  -0.382  -0.380  -0.379
 -0.373  -0.372  -0.371  -0.369  -0.367  -0.361  -0.355  -0.353
 -0.352  -0.350  -0.349  -0.349  -0.346  -0.345  -0.342  -0.341
 -0.340  -0.338  -0.332  -0.330  -0.330  -0.325  -0.323  -0.318
 -0.317  -0.314  -0.313  -0.311  -0.306  -0.301  -0.298  -0.296
 -0.294  -0.292  -0.291  -0.289  -0.285  -0.283  -0.282  -0.280
 -0.275  -0.272  -0.267  -0.265  -0.257  -0.254  -0.251  -0.250
 -0.243  -0.241  -0.233  -0.228  -0.197  -0.186

          Ground-State Mulliken Net Atomic Charges

     Atom                 Charge (a.u.)
  ----------------------------------------
      1 C                     0.262687
      2 C                    -0.112791
      3 N                    -0.488344
      4 C                    -0.073841
      5 C                     0.065225
      6 C                     0.044724
      7 C                     0.046889
      8 C                     0.038297
      9 C                     0.241410
     10 N                    -0.515604
     11 N                    -0.572357
     12 C                     0.215853
     13 C                     0.260607
     14 S                     0.606795
     15 N                    -0.564184
     16 C                    -0.221552
     17 S                     0.349276
     18 C                    -0.085801
     19 C                    -0.210671
     20 S                     0.279271
     21 C                     0.156102
     22 C                     0.060305
     23 C                    -0.297542
     24 C                    -0.075159
     25 N                    -0.451311
     26 S                     0.286308
     27 C                     0.125236
     28 C                    -0.313579
     29 C                    -0.218231
     30 H                     0.098411
     31 H                     0.112883
     32 H                     0.107975
     33 H                     0.113149
     34 H                     0.117131
     35 H                     0.114110
     36 H                     0.104696
     37 H                     0.134196
     38 H                     0.116572
     39 C                    -0.172138
     40 H                     0.095249
     41 H                     0.107117
     42 H                     0.094697
     43 C                    -0.176707
     44 H                     0.086446
     45 C                    -0.170246
     46 H                     0.087664
     47 H                     0.093180
     48 H                     0.096603
     49 C                    -0.179387
     50 H                     0.090607
     51 C                    -0.321318
     52 H                     0.098078
     53 H                     0.101287
     54 H                     0.101736
     55 H                     0.095469
     56 C                     0.278038
     57 C                    -0.122657
     58 N                    -0.493861
     59 C                    -0.094485
     60 C                     0.075733
     61 C                     0.057714
     62 C                     0.049737
     63 C                     0.032769
     64 C                     0.221500
     65 N                    -0.507166
     66 N                    -0.557671
     67 C                     0.226112
     68 C                     0.283583
     69 S                     0.624975
     70 N                    -0.540545
     71 C                    -0.220279
     72 S                     0.334201
     73 C                    -0.117269
     74 C                    -0.247943
     75 S                     0.249408
     76 C                     0.164250
     77 C                     0.061757
     78 C                    -0.293901
     79 C                    -0.032278
     80 N                    -0.410507
     81 S                     0.238399
     82 C                     0.102173
     83 C                    -0.299389
     84 C                    -0.240348
     85 H                     0.087533
     86 H                     0.097440
     87 H                     0.120167
     88 H                     0.108695
     89 H                     0.124513
     90 H                     0.122771
     91 H                     0.110661
     92 H                     0.144418
     93 H                     0.121720
     94 C                    -0.166112
     95 H                     0.100900
     96 H                     0.113181
     97 H                     0.104600
     98 C                    -0.165415
     99 H                     0.090649
    100 C                    -0.191433
    101 H                     0.096739
    102 H                     0.090166
    103 H                     0.091728
    104 C                    -0.175523
    105 H                     0.088629
    106 C                    -0.326939
    107 H                     0.092826
    108 H                     0.099066
    109 H                     0.107028
    110 H                     0.104465
  ----------------------------------------
  Sum of atomic charges =     0.000000

                    Cartesian Multipole Moments
 -----------------------------------------------------------------
    Charge (ESU x 10^10)
                 0.0000
    Dipole Moment (Debye)
         X       2.0518      Y       0.2275      Z      -0.0489
       Tot       2.0649
    Quadrupole Moments (Debye-Ang)
        XX    -372.4041     XY       3.8776     YY    -453.6055
        XZ      -2.2160     YZ       5.0284     ZZ    -458.6955

 Total job time:  116.97s(wall), 1237.48s(cpu)
        *  Thank you very much for using Q-Chem.  Have a nice day.  *
