 Q-Chem 4.4, Q-Chem, Inc., Pleasanton, CA (2016)
 Q-Chem 4.4.2 for Intel X86 Linux

User input:
--------------------------------------------------------------
$comment
SP
$end

$rem
MEM_STATIC 5000
MEM_TOTAL 20000
JOBTYPE SP
EXCHANGE B3LYP
BASIS 6-31g(d,p)
$end

$molecule
0 1
C           3.269000     -3.900000     -9.310000
C           3.239000     -3.084000     -8.196000
N           2.834000     -3.485000    -10.478000
C           2.603000     -1.838000     -8.249000
C           2.203000     -2.304000    -10.637000
C           1.931000     -1.475000     -9.521000
C           1.166000     -0.223000     -9.594000
C           1.596000      0.969000     -9.007000
C          -0.077000     -0.144000    -10.246000
N           1.009000      2.170000     -9.060000
N          -0.770000     -1.130000    -10.834000
C          -0.734000      1.105000    -10.275000
C          -0.184000      2.313000     -9.719000
S          -2.239000     -0.526000    -11.280000
N          -1.982000      0.993000    -10.780000
C          -0.887000      3.608000     -9.646000
S          -2.526000      3.952000    -10.226000
C          -0.444000      4.747000     -8.964000
C          -2.393000      5.643000     -9.671000
S           1.050000      4.976000     -8.037000
C          -1.244000      5.838000     -9.026000
C          -3.303000      6.713000    -10.054000
C           0.352000      6.491000     -7.553000
C          -0.870000      6.816000     -8.164000
N          -4.076000      6.368000    -11.113000
S          -3.741000      8.209000     -9.287000
C          -4.886000      7.341000    -11.556000
C          -4.790000      8.378000    -10.678000
C           4.142000     -5.144000     -9.293000
H           3.659000     -3.414000     -7.250000
H           2.479000     -1.166000     -7.405000
H           1.975000     -2.101000    -11.682000
H           2.527000      0.898000     -8.446000
H           0.924000      7.147000     -6.910000
H          -1.465000      7.698000     -7.953000
H          -5.547000      7.156000    -12.393000
H          -5.373000      9.286000    -10.749000
H           5.023000     -4.967000     -9.922000
C           3.451000     -6.441000     -9.742000
H           4.506000     -5.340000     -8.277000
H           3.579000     -6.691000    -10.802000
H           2.381000     -6.373000     -9.512000
C           3.981000     -7.615000     -8.890000
H           5.067000     -7.674000     -9.033000
C           3.377000     -8.986000     -9.270000
H           3.713000     -7.351000     -7.859000
H           2.301000     -9.013000     -9.058000
H           3.802000     -9.745000     -8.602000
C           3.500000     -9.326000    -10.763000
H           2.790000     -8.702000    -11.319000
C           3.208000    -10.791000    -11.056000
H           4.546000     -9.069000    -10.970000
H           3.266000    -11.044000    -12.122000
H           2.194000    -11.056000    -10.735000
H           3.946000    -11.441000    -10.570000
C         -14.969000     11.225000    -15.476000
C         -14.748000     12.479000    -14.935000
N         -14.017000     10.277000    -15.408000
C         -13.629000     12.738000    -14.112000
C         -12.890000     10.533000    -14.618000
C         -12.625000     11.784000    -13.958000
C         -11.397000     11.988000    -13.111000
C         -11.403000     12.832000    -12.008000
C         -10.136000     11.411000    -13.413000
N         -10.398000     13.172000    -11.178000
N          -9.788000     10.614000    -14.479000
C          -9.047000     11.650000    -12.525000
C          -9.202000     12.548000    -11.420000
S          -8.171000     10.431000    -14.337000
N          -7.888000     11.108000    -12.888000
C          -8.069000     13.006000    -10.557000
S          -6.742000     11.969000    -10.032000
C          -7.945000     14.161000     -9.767000
C          -6.003000     13.172000     -9.029000
S          -8.887000     15.698000     -9.978000
C          -6.840000     14.310000     -8.989000
C          -4.701000     13.050000     -8.420000
C          -7.741000     16.431000     -8.794000
C          -6.711000     15.632000     -8.349000
N          -3.970000     14.114000     -8.223000
S          -3.794000     11.514000     -8.478000
C          -2.637000     13.746000     -8.034000
C          -2.311000     12.423000     -8.233000
C         -16.181000     10.811000    -16.322000
H         -15.483000     13.258000    -15.115000
H         -13.481000     13.697000    -13.625000
H         -12.139000      9.758000    -14.475000
H         -12.368000     13.225000    -11.693000
H          -7.930000     17.444000     -8.465000
H          -5.984000     15.943000     -7.608000
H          -1.854000     14.488000     -7.949000
H          -1.371000     11.913000     -8.393000
H         -16.919000     10.433000    -15.604000
C         -15.927000      9.772000    -17.479000
H         -16.639000     11.728000    -16.713000
H         -15.762000      8.770000    -17.066000
H         -14.989000      9.918000    -18.028000
C         -17.138000      9.768000    -18.414000
H         -18.014000      9.723000    -17.754000
C         -17.108000      8.630000    -19.443000
H         -17.194000     10.602000    -19.124000
H         -16.478000      7.803000    -19.092000
H         -16.684000      8.985000    -20.390000
C         -18.561000      8.182000    -19.801000
H         -18.515000      7.237000    -20.356000
C         -19.359000      9.190000    -20.693000
H         -19.124000      7.982000    -18.881000
H         -18.780000      9.315000    -21.617000
H         -19.448000     10.212000    -20.307000
H         -20.304000      8.765000    -21.053000
$end

--------------------------------------------------------------

             Standard Nuclear Orientation (Angstroms)
    I     Atom           X                Y                Z
 ----------------------------------------------------------------
    1      C      13.2995601974    -1.2497748205    -0.1246406635
    2      C      12.9202912191    -0.1048014590     0.5483697701
    3      N      12.4748846336    -1.8779253718    -0.9314932518
    4      C      11.5918196545     0.3345031387     0.5036957006
    5      C      11.1748607486    -1.5383922146    -1.0448869632
    6      C      10.6253817038    -0.5080425407    -0.2429310237
    7      C       9.2025698569    -0.1425201568    -0.2353260719
    8      C       8.7532028445     1.1760570152    -0.3341012190
    9      C       8.1851273774    -1.1034595280    -0.1019082111
   10      N       7.4896703479     1.6117434966    -0.3927690973
   11      N       8.3112290985    -2.4258834505     0.0810735505
   12      C       6.8453783475    -0.6592349000    -0.1170084395
   13      C       6.4582207288     0.7132982494    -0.3097822240
   14      S       6.8083555158    -3.0491882426     0.3541214048
   15      N       5.9914529216    -1.6603796102     0.1889223307
   16      C       5.0755159633     1.2218434777    -0.2318573743
   17      S       3.6186566244     0.2684359805     0.0992498757
   18      C       4.6921138332     2.5677450282    -0.2475361158
   19      C       2.6068862490     1.7350802213    -0.0030749911
   20      S       5.7117108838     4.0118757901    -0.3843359581
   21      C       3.3637020003     2.8188070961    -0.1674434174
   22      C       1.1550771851     1.7321489134    -0.1123034179
   23      C       4.2579335522     4.8993180346    -0.0442437163
   24      C       3.0863383471     4.1297854817     0.0418627605
   25      N       0.6724423574     0.5078509714    -0.4381763567
   26      S      -0.0543474772     2.9031391037     0.3169086051
   27      C      -0.6553112769     0.4598112034    -0.6221341433
   28      C      -1.1570357224     1.6751207719    -0.2660944915
   29      C      14.7772486058    -1.5869476257    -0.2373591938
   30      H      13.6289384132     0.4425668048     1.1635308369
   31      H      11.1984029162     1.1843917050     1.0534308138
   32      H      10.6651915317    -2.1252381223    -1.8071645832
   33      H       9.5384931781     1.9299284437    -0.3730878971
   34      H       4.2990772429     5.9804988347    -0.0262361048
   35      H       2.0998907851     4.5091100253     0.2857973789
   36      H      -1.1330210245    -0.4774959341    -0.8770139718
   37      H      -2.2113695204     1.9153970644    -0.2596489104
   38      H      15.1097954295    -1.3831187480    -1.2625408356
   39      C      15.1559921401    -3.0272196938     0.1414028755
   40      H      15.3666531677    -0.9425430437     0.4263523378
   41      H      15.2055118643    -3.7294716961    -0.6993550696
   42      H      14.4407478798    -3.4004118086     0.8840853741
   43      C      16.5243256863    -3.0164346126     0.8573826156
   44      H      17.2614344731    -2.5793721658     0.1725665424
   45      C      17.0281420190    -4.4197728682     1.2644057639
   46      H      16.3655688590    -2.3936591552     1.7470050071
   47      H      16.3733946800    -4.8670437653     2.0224978868
   48      H      17.9914472665    -4.3033455776     1.7756959810
   49      C      17.0510127969    -5.4305168110     0.1078368686
   50      H      16.0173322952    -5.7150225485    -0.1227560752
   51      C      17.8478622525    -6.6840086401     0.4411943037
   52      H      17.5217878894    -4.8488619297    -0.6940748543
   53      H      17.8516621074    -7.4275085630    -0.3656033324
   54      H      17.4272903312    -7.1889553909     1.3184685127
   55      H      18.9046490304    -6.4419175710     0.6083278439
   56      C     -10.9573140440    -4.4783648535     0.6435282195
   57      C     -11.5997892840    -3.2537384119     0.6041119195
   58      N      -9.6289603732    -4.5567223166     0.4461234752
   59      C     -10.8727534489    -2.0423840891     0.5794016153
   60      C      -8.9011380074    -3.3621171925     0.3917341260
   61      C      -9.4879842333    -2.0485678854     0.4237610677
   62      C      -8.6439755387    -0.8026855485     0.3744100172
   63      C      -9.0295672923     0.3661640962     1.0179086632
   64      C      -7.4509092908    -0.6979670479    -0.3870891383
   65      N      -8.4351965216     1.5748197656     1.0379051591
   66      N      -6.8635848860    -1.6402245155    -1.1994129089
   67      C      -6.7163290067     0.5225283988    -0.3384201460
   68      C      -7.2395590362     1.6506215535     0.3722768150
   69      S      -5.6257764341    -0.8465853935    -1.9109669689
   70      N      -5.6287323029     0.5623043161    -1.1028580351
   71      C      -6.6378284754     3.0192020826     0.3163333825
   72      S      -4.9029469960     3.3384838126     0.3033553526
   73      C      -7.2233993567     4.2737386891     0.5545468288
   74      C      -5.0698313507     5.0612046544     0.3643595603
   75      S      -8.9966343160     4.6513543576     0.4691174065
   76      C      -6.4359178770     5.3818403266     0.5323279154
   77      C      -3.9909466164     6.0002576977     0.1768599282
   78      C      -8.5183648865     6.3864205476     0.5842897517
   79      C      -7.1683980790     6.6595326329     0.6023288025
   80      N      -4.2270303745     7.1676327819    -0.3586453210
   81      S      -2.2963505307     5.4509889300     0.0675121929
   82      C      -3.0362547430     7.7244764246    -0.8277002784
   83      C      -1.9103023755     6.9324627823    -0.7937642127
   84      C     -11.6398107785    -5.8495927464     0.7434695685
   85      H     -12.6850121091    -3.2363246966     0.6422456639
   86      H     -11.3632212353    -1.0745794380     0.6187654020
   87      H      -7.8156300590    -3.3900028567     0.3144691027
   88      H      -9.8907205529     0.3031478517     1.6807382150
   89      H      -9.3042433733     7.1252755687     0.6656485976
   90      H      -6.7565706777     7.6560686957     0.7102411147
   91      H      -3.0294225500     8.6485939183    -1.3905840843
   92      H      -0.9504227078     6.9968721259    -1.2875075266
   93      H     -11.7147978921    -6.0574130564     1.8178250272
   94      C     -10.9600044300    -7.0468186876    -0.0228197855
   95      H     -12.6822346988    -5.7230905222     0.4258478477
   96      H     -10.0474213617    -7.3652073535     0.4944990725
   97      H     -10.5509933855    -6.7876622912    -1.0067450508
   98      C     -11.9540142962    -8.2067420423    -0.1081672944
   99      H     -12.3716283855    -8.3059145614     0.9021615054
  100      C     -11.3265050157    -9.5085986158    -0.6241000079
  101      H     -12.7337110169    -8.1101798950    -0.8733736557
  102      H     -10.2421253498    -9.5123861059    -0.4563609394
  103      H     -11.4907724649    -9.6078525266    -1.7038105554
  104      C     -12.0461942591   -10.7450976738     0.0029522007
  105      H     -11.4502714502   -11.6435136080    -0.1992625736
  106      C     -13.4821835315   -11.0222590658    -0.5535083751
  107      H     -12.0912389986   -10.6336063086     1.0933235352
  108      H     -13.3734849305   -11.1757432338    -1.6348359038
  109      H     -14.1963010176   -10.1936801181    -0.4835502210
  110      H     -13.8802015443   -11.9847630498    -0.2093895840
 ----------------------------------------------------------------

    9   -5663.5087072833      8.38E-06 Convergence criterion met
 Total energy in the final basis set = -5663.5087072833

                    Orbital Energies (a.u.)
 --------------------------------------------------------------

 Alpha MOs
 -- Occupied --
-88.996 -88.984 -88.939 -88.933 -88.927 -88.920 -88.913 -88.911
-14.396 -14.392 -14.377 -14.369 -14.362 -14.355 -14.348 -14.335
-14.334 -14.319 -10.278 -10.277 -10.268 -10.267 -10.266 -10.266
-10.253 -10.251 -10.250 -10.248 -10.243 -10.240 -10.240 -10.239
-10.238 -10.234 -10.234 -10.234 -10.234 -10.232 -10.230 -10.228
-10.227 -10.226 -10.225 -10.225 -10.221 -10.221 -10.219 -10.217
-10.216 -10.216 -10.215 -10.209 -10.203 -10.199 -10.195 -10.192
-10.192 -10.180 -10.180 -10.180 -10.175 -10.175 -10.174 -10.174
-10.174 -10.172 -10.171 -10.169  -8.051  -8.040  -7.999  -7.993
 -7.988  -7.978  -7.972  -7.970  -6.017  -6.011  -6.009  -6.005
 -5.999  -5.997  -5.963  -5.960  -5.957  -5.956  -5.953  -5.952
 -5.950  -5.949  -5.945  -5.943  -5.939  -5.936  -5.935  -5.935
 -5.933  -5.932  -5.929  -5.926  -1.047  -1.029  -0.976  -0.969
 -0.962  -0.951  -0.938  -0.931  -0.922  -0.919  -0.913  -0.892
 -0.845  -0.844  -0.840  -0.828  -0.812  -0.811  -0.809  -0.805
 -0.803  -0.802  -0.797  -0.792  -0.784  -0.779  -0.770  -0.765
 -0.754  -0.749  -0.744  -0.740  -0.731  -0.719  -0.711  -0.709
 -0.697  -0.693  -0.680  -0.673  -0.658  -0.652  -0.648  -0.641
 -0.639  -0.631  -0.629  -0.622  -0.614  -0.610  -0.601  -0.598
 -0.595  -0.594  -0.587  -0.584  -0.579  -0.574  -0.563  -0.554
 -0.553  -0.546  -0.544  -0.538  -0.532  -0.523  -0.522  -0.518
 -0.511  -0.508  -0.503  -0.498  -0.487  -0.486  -0.483  -0.475
 -0.474  -0.470  -0.470  -0.467  -0.465  -0.461  -0.454  -0.454
 -0.447  -0.444  -0.441  -0.437  -0.435  -0.434  -0.433  -0.432
 -0.430  -0.428  -0.423  -0.422  -0.421  -0.418  -0.417  -0.416
 -0.412  -0.409  -0.408  -0.404  -0.404  -0.401  -0.399  -0.398
 -0.396  -0.395  -0.394  -0.393  -0.390  -0.386  -0.386  -0.382
 -0.378  -0.373  -0.373  -0.372  -0.369  -0.364  -0.358  -0.357
 -0.357  -0.354  -0.350  -0.348  -0.348  -0.347  -0.342  -0.342
 -0.341  -0.337  -0.332  -0.331  -0.329  -0.324  -0.323  -0.319
 -0.318  -0.314  -0.309  -0.306  -0.305  -0.303  -0.300  -0.299
 -0.296  -0.296  -0.294  -0.292  -0.292  -0.289  -0.285  -0.279
 -0.272  -0.270  -0.269  -0.265  -0.256  -0.256  -0.253  -0.253
 -0.241  -0.240  -0.240  -0.229  -0.203  -0.190

          Ground-State Mulliken Net Atomic Charges

     Atom                 Charge (a.u.)
  ----------------------------------------
      1 C                     0.291920
      2 C                    -0.128439
      3 N                    -0.477175
      4 C                    -0.073274
      5 C                     0.093689
      6 C                     0.002873
      7 C                     0.031922
      8 C                     0.067720
      9 C                     0.261925
     10 N                    -0.541868
     11 N                    -0.578574
     12 C                     0.174614
     13 C                     0.323770
     14 S                     0.603071
     15 N                    -0.559888
     16 C                    -0.229410
     17 S                     0.364756
     18 C                    -0.133308
     19 C                    -0.249299
     20 S                     0.299177
     21 C                     0.206480
     22 C                     0.030667
     23 C                    -0.311969
     24 C                    -0.083001
     25 N                    -0.425028
     26 S                     0.307186
     27 C                     0.146227
     28 C                    -0.336067
     29 C                    -0.221582
     30 H                     0.087950
     31 H                     0.104551
     32 H                     0.114307
     33 H                     0.103799
     34 H                     0.120677
     35 H                     0.095727
     36 H                     0.126364
     37 H                     0.138242
     38 H                     0.121265
     39 C                    -0.165880
     40 H                     0.091708
     41 H                     0.110196
     42 H                     0.096996
     43 C                    -0.192515
     44 H                     0.089847
     45 C                    -0.172572
     46 H                     0.087979
     47 H                     0.085564
     48 H                     0.085594
     49 C                    -0.173192
     50 H                     0.105105
     51 C                    -0.318984
     52 H                     0.091114
     53 H                     0.098168
     54 H                     0.101865
     55 H                     0.101472
     56 C                     0.278358
     57 C                    -0.120905
     58 N                    -0.493733
     59 C                    -0.089650
     60 C                     0.075046
     61 C                     0.054963
     62 C                     0.064843
     63 C                     0.036897
     64 C                     0.218698
     65 N                    -0.503291
     66 N                    -0.550671
     67 C                     0.213127
     68 C                     0.274258
     69 S                     0.609706
     70 N                    -0.547274
     71 C                    -0.235479
     72 S                     0.333943
     73 C                    -0.114587
     74 C                    -0.253165
     75 S                     0.257468
     76 C                     0.165305
     77 C                     0.044197
     78 C                    -0.303041
     79 C                    -0.032244
     80 N                    -0.411721
     81 S                     0.257813
     82 C                     0.109510
     83 C                    -0.306508
     84 C                    -0.240598
     85 H                     0.088078
     86 H                     0.099105
     87 H                     0.118233
     88 H                     0.109788
     89 H                     0.127282
     90 H                     0.128669
     91 H                     0.117022
     92 H                     0.150221
     93 H                     0.122066
     94 C                    -0.166432
     95 H                     0.101469
     96 H                     0.113286
     97 H                     0.104568
     98 C                    -0.165991
     99 H                     0.090864
    100 C                    -0.190855
    101 H                     0.097128
    102 H                     0.090126
    103 H                     0.091787
    104 C                    -0.175979
    105 H                     0.089053
    106 C                    -0.327369
    107 H                     0.092948
    108 H                     0.099271
    109 H                     0.107081
    110 H                     0.104854
  ----------------------------------------
  Sum of atomic charges =     0.000000

                    Cartesian Multipole Moments
 -----------------------------------------------------------------
    Charge (ESU x 10^10)
                 0.0000
    Dipole Moment (Debye)
         X      -2.8064      Y       3.2442      Z       0.4102
       Tot       4.3091
    Quadrupole Moments (Debye-Ang)
        XX    -414.6776     XY      16.3122     YY    -421.4778
        XZ      12.1302     YZ      -3.3989     ZZ    -451.0170

 Total job time:  83.84s(wall), 912.77s(cpu)
        *  Thank you very much for using Q-Chem.  Have a nice day.  *
