 Q-Chem 4.4, Q-Chem, Inc., Pleasanton, CA (2016)
 Q-Chem 4.4.2 for Intel X86 Linux

User input:
--------------------------------------------------------------
$comment
SP
$end

$rem
MEM_STATIC 5000
MEM_TOTAL 20000
JOBTYPE SP
EXCHANGE B3LYP
BASIS 6-31g(d,p)
$end

$molecule
0 1
C         -18.287000     -8.286000    -10.207000
C         -19.302000     -9.035000     -9.575000
N         -17.595000     -8.752000    -11.310000
C         -19.597000    -10.280000    -10.027000
C         -17.928000     -9.999000    -11.675000
C         -18.910000    -10.861000    -11.113000
C         -19.173000    -12.200000    -11.783000
C         -18.788000    -12.546000    -13.099000
C         -19.609000    -13.292000    -10.986000
N         -18.949000    -13.753000    -13.643000
N         -19.728000    -13.246000     -9.621000
C         -19.745000    -14.545000    -11.526000
C         -19.584000    -14.731000    -12.948000
S         -20.345000    -14.698000     -9.232000
N         -20.288000    -15.465000    -10.695000
C         -19.926000    -15.993000    -13.614000
S         -20.913000    -17.362000    -13.069000
C         -19.372000    -16.398000    -14.840000
C         -20.719000    -18.280000    -14.562000
S         -18.213000    -15.530000    -15.734000
C         -19.829000    -17.616000    -15.356000
C         -21.330000    -19.500000    -14.927000
C         -18.284000    -16.819000    -16.953000
C         -19.146000    -17.831000    -16.602000
N         -22.071000    -20.004000    -13.911000
S         -21.974000    -19.940000    -16.519000
C         -23.079000    -20.805000    -14.375000
C         -23.237000    -20.868000    -15.700000
C         -17.949000     -6.872000     -9.856000
H         -19.906000     -8.664000     -8.752000
H         -20.379000    -10.885000     -9.578000
H         -17.335000    -10.417000    -12.487000
H         -18.401000    -11.712000    -13.683000
H         -17.594000    -16.753000    -17.783000
H         -19.282000    -18.720000    -17.207000
H         -23.812000    -21.252000    -13.716000
H         -23.919000    -21.557000    -16.182000
H         -17.594000     -6.804000     -8.821000
C         -19.116000     -5.907000     -9.782000
H         -17.262000     -6.349000    -10.533000
H         -18.803000     -4.890000     -9.513000
H         -19.647000     -6.222000     -8.875000
C         -19.955000     -5.954000    -11.083000
H         -19.403000     -5.749000    -12.008000
C         -21.097000     -4.903000    -10.986000
H         -20.439000     -6.934000    -11.177000
H         -21.454000     -4.747000    -12.011000
H         -20.748000     -3.904000    -10.698000
C         -22.349000     -5.473000    -10.210000
H         -22.843000     -6.287000    -10.755000
C         -23.410000     -4.379000    -10.080000
H         -22.061000     -5.755000     -9.190000
H         -22.918000     -3.557000     -9.544000
H         -24.413000     -4.621000     -9.707000
H         -23.662000     -3.916000    -11.042000
C         -13.965000    -15.780000    -14.772000
C         -13.395000    -16.508000    -13.734000
N         -14.916000    -14.868000    -14.508000
C         -13.715000    -16.174000    -12.395000
C         -15.234000    -14.565000    -13.248000
C         -14.725000    -15.254000    -12.144000
C         -15.193000    -14.940000    -10.731000
C         -15.283000    -15.994000     -9.742000
C         -15.384000    -13.654000    -10.227000
N         -15.516000    -15.814000     -8.459000
N         -15.167000    -12.455000    -10.831000
C         -15.868000    -13.496000     -8.911000
C         -16.005000    -14.621000     -8.058000
S         -15.473000    -11.269000     -9.706000
N         -15.918000    -12.199000     -8.464000
C         -16.423000    -14.535000     -6.695000
S         -15.788000    -15.654000     -5.468000
C         -17.257000    -13.562000     -6.163000
C         -16.555000    -14.753000     -4.234000
S         -18.333000    -12.406000     -6.826000
C         -17.385000    -13.783000     -4.789000
C         -16.468000    -15.141000     -2.800000
C         -18.803000    -11.926000     -5.142000
C         -18.265000    -12.819000     -4.263000
N         -15.386000    -15.842000     -2.415000
S         -17.535000    -14.649000     -1.537000
C         -15.412000    -16.138000     -1.094000
C         -16.530000    -15.642000     -0.409000
C         -13.627000    -16.084000    -16.194000
H         -12.534000    -17.141000    -13.924000
H         -13.229000    -16.726000    -11.595000
H         -15.935000    -13.758000    -13.038000
H         -15.034000    -17.016000    -10.024000
H         -19.554000    -11.167000     -4.970000
H         -18.448000    -12.761000     -3.196000
H         -14.583000    -16.666000     -0.641000
H         -16.896000    -15.647000      0.609000
H         -13.061000    -17.007000    -16.368000
C         -12.703000    -14.949000    -16.761000
H         -14.584000    -16.094000    -16.731000
H         -11.987000    -14.607000    -16.004000
H         -13.335000    -14.052000    -16.749000
C         -12.107000    -15.196000    -18.110000
H         -12.924000    -15.337000    -18.829000
C         -11.115000    -16.377000    -18.254000
H         -11.587000    -14.322000    -18.522000
H         -10.735000    -16.495000    -19.277000
H         -11.595000    -17.361000    -18.177000
C          -9.942000    -16.232000    -17.246000
H         -10.226000    -16.120000    -16.193000
C          -8.964000    -15.092000    -17.579000
H          -9.363000    -17.164000    -17.245000
H          -8.081000    -15.058000    -16.930000
H          -9.460000    -14.144000    -17.336000
H          -8.610000    -15.133000    -18.616000
$end

--------------------------------------------------------------

             Standard Nuclear Orientation (Angstroms)
    I     Atom           X                Y                Z
 ----------------------------------------------------------------
    1      C       3.4005273846     4.5186740762    -1.3710971314
    2      C       3.6933198591     3.9751903447    -0.1024175026
    3      N       2.1498232999     4.4194758329    -1.9529287230
    4      C       2.7352684312     3.2893993671     0.5707705815
    5      C       1.2705468741     3.7043734926    -1.2355553124
    6      C       1.4454839450     3.0911731293     0.0358983185
    7      C       0.2490103882     2.4213704253     0.6922559690
    8      C      -1.1031540126     2.6285283951     0.3337395694
    9      C       0.4705554176     1.3179904079     1.5589966092
   10      N      -2.1361801339     1.9694331890     0.8601961603
   11      N       1.6990933995     0.7514169548     1.7807869363
   12      C      -0.5830475865     0.6110412300     2.0788509826
   13      C      -1.9316634310     1.0767803966     1.8622330411
   14      S       1.4095192501    -0.3851487916     2.9053664648
   15      N      -0.2404275752    -0.3317786295     2.9874280241
   16      C      -3.0808945740     0.4951855312     2.5652118406
   17      S      -3.1603731503    -0.5171338206     4.0192571240
   18      C      -4.3977404772     0.5522863776     2.0787209769
   19      C      -4.9207193531    -0.6199089426     4.0245031401
   20      S      -4.8770150087     1.2646898305     0.6094632582
   21      C      -5.3841265959    -0.0240402008     2.8871262589
   22      C      -5.7615588460    -1.2147230536     4.9910077291
   23      C      -6.5484819439     0.8269369230     1.0182341919
   24      C      -6.6404635026     0.1500612999     2.2114516003
   25      N      -5.0416892908    -1.8393768485     5.9537893554
   26      S      -7.3050351942    -0.5881637825     5.5975588334
   27      C      -5.7342861281    -1.9087150919     7.1321198816
   28      C      -6.9102653098    -1.2766229642     7.1778419389
   29      C       4.3461261064     5.3733269468    -2.1535628035
   30      H       4.6456463247     4.0990614581     0.4050430871
   31      H       2.9144049888     2.8660836513     1.5545713228
   32      H       0.3066248460     3.5412865864    -1.7151113412
   33      H      -1.2557046441     3.4403950029    -0.3761772679
   34      H      -7.3080269711     1.0283772032     0.2753552211
   35      H      -7.5787118711    -0.2325395760     2.5963523260
   36      H      -5.3009172846    -2.3213157710     8.0339686078
   37      H      -7.5957029729    -1.3626277238     8.0114769857
   38      H       5.2522419631     4.8126721047    -2.4114275016
   39      C       4.9754304687     6.5301925751    -1.4024117285
   40      H       3.9372080843     5.8720443866    -3.0411967181
   41      H       5.6635850231     7.1122914474    -2.0286889931
   42      H       5.6698934494     6.0351400984    -0.7121369907
   43      C       3.8908991569     7.4051501192    -0.7264145911
   44      H       3.1266618709     7.8125543637    -1.3989598701
   45      C       4.5787524089     8.6116400902    -0.0268333923
   46      H       3.3893452478     6.8306887258     0.0622106582
   47      H       3.7876101280     9.3489453003     0.1545086011
   48      H       5.2717089321     9.1574740372    -0.6784640846
   49      C       5.1042943540     8.2283826373     1.4124370440
   50      H       4.2871484043     8.0047452957     2.1095136799
   51      C       5.8339348255     9.4252388303     2.0244967106
   52      H       5.8377833712     7.4162650172     1.3394518894
   53      H       6.6471678198     9.6602958065     1.3256087975
   54      H       6.1387124851     9.4089818813     3.0783222606
   55      H       5.2336080991    10.3431475408     2.0053024234
   56      C      -4.5446581896    -0.8974203381    -3.1652243531
   57      C      -4.0325371674    -2.1777157531    -3.3410188609
   58      N      -3.7939298628     0.0502583509    -2.5785787346
   59      C      -2.6719030386    -2.4284680658    -3.0365930979
   60      C      -2.5173603408    -0.1888280117    -2.2724072681
   61      C      -1.9233312453    -1.4472789284    -2.3990908258
   62      C      -0.4936787468    -1.6967310416    -1.9429588529
   63      C      -0.1178812687    -2.9829119750    -1.3937304285
   64      C       0.5741863669    -0.8302575314    -2.1735683826
   65      N       1.1127711738    -3.3622097611    -1.1209562449
   66      N       0.5925744300     0.3457127230    -2.8564020664
   67      C       1.8464991376    -1.1539707313    -1.6563585820
   68      C       2.0738867953    -2.4164160621    -1.0509416679
   69      S       2.1677336540     0.8784557800    -2.8866552379
   70      N       2.8566243512    -0.3016196050    -2.0273877051
   71      C       3.3472011949    -2.8438280474    -0.5652684912
   72      S       3.8338162591    -4.5519524932    -0.6454661029
   73      C       4.3507816330    -2.0152108328    -0.0840940780
   74      C       5.4121060427    -4.1372990072    -0.1356525629
   75      S       4.4164614630    -0.3878268507     0.4459894387
   76      C       5.4616520905    -2.7982093087     0.2414534812
   77      C       6.4766477546    -5.1595708076     0.0545586613
   78      C       6.1622776523    -0.6309011173     0.8704852974
   79      C       6.4599616155    -1.9577120802     0.7680600718
   80      N       6.3822484679    -6.2905540787    -0.6681554005
   81      S       7.9144324710    -4.9822218346     0.9910651755
   82      C       7.4017750239    -7.1451132525    -0.4159110347
   83      C       8.3398142575    -6.6729875221     0.5127141269
   84      C      -5.9654638071    -0.5895780086    -3.5047659520
   85      H      -4.5780705917    -2.9034804785    -3.9358035668
   86      H      -2.2772166489    -3.4244314857    -3.2187455619
   87      H      -1.8867111738     0.6111213055    -1.8862561086
   88      H      -0.8716580513    -3.7620402936    -1.2898621228
   89      H       6.7415317375     0.1660298231     1.3166150779
   90      H       7.4390291793    -2.3509304128     1.0173551748
   91      H       7.4721834762    -8.0790809338    -0.9581112008
   92      H       9.2630248711    -7.0289890689     0.9500355896
   93      H      -6.6070244054    -1.4522855306    -3.7208602140
   94      C      -6.0102057306     0.2667360315    -4.8193816468
   95      H      -6.3523038659    -0.0044467525    -2.6607907260
   96      H      -5.2512473369    -0.0693044255    -5.5361298368
   97      H      -5.5167778257     1.2085096327    -4.5477782838
   98      C      -7.3638914875     0.4945899958    -5.4123769608
   99      H      -7.9850975901     1.0105626136    -4.6692711568
  100      C      -8.1406091454    -0.7413638134    -5.9307290239
  101      H      -7.3591057737     1.2102093558    -6.2441738281
  102      H      -9.1277130861    -0.4871664051    -6.3379912097
  103      H      -8.4946243618    -1.4013768873    -5.1284566457
  104      C      -7.2971921743    -1.5169996504    -6.9795640258
  105      H      -6.2955072353    -1.8242489670    -6.6567109007
  106      C      -7.1395599119    -0.7865040427    -8.3243693043
  107      H      -7.7909072818    -2.4743735129    -7.1882424386
  108      H      -6.6364147369    -1.3790475459    -9.0975336657
  109      H      -6.4321799642     0.0389159763    -8.1758283942
  110      H      -8.1000813716    -0.4543629793    -8.7360085146
 ----------------------------------------------------------------

    9   -5663.5034814746      9.72E-06 Convergence criterion met
 Total energy in the final basis set = -5663.5034814746

                    Orbital Energies (a.u.)
 --------------------------------------------------------------

 Alpha MOs
 -- Occupied --
-88.985 -88.982 -88.930 -88.928 -88.922 -88.922 -88.907 -88.902
-14.386 -14.381 -14.376 -14.368 -14.350 -14.343 -14.341 -14.339
-14.336 -14.321 -10.272 -10.268 -10.267 -10.251 -10.250 -10.250
-10.246 -10.246 -10.241 -10.240 -10.238 -10.238 -10.237 -10.235
-10.235 -10.234 -10.230 -10.229 -10.228 -10.225 -10.225 -10.225
-10.224 -10.222 -10.222 -10.222 -10.219 -10.218 -10.217 -10.208
-10.206 -10.204 -10.204 -10.203 -10.201 -10.201 -10.200 -10.191
-10.183 -10.183 -10.183 -10.181 -10.180 -10.178 -10.178 -10.178
-10.176 -10.175 -10.170 -10.169  -8.041  -8.036  -7.990  -7.989
 -7.981  -7.980  -7.967  -7.962  -6.006  -6.001  -6.000  -5.998
 -5.995  -5.994  -5.954  -5.953  -5.951  -5.950  -5.947  -5.946
 -5.945  -5.944  -5.942  -5.940  -5.938  -5.936  -5.932  -5.928
 -5.926  -5.923  -5.923  -5.919  -1.035  -1.021  -0.965  -0.963
 -0.958  -0.957  -0.938  -0.936  -0.915  -0.912  -0.900  -0.887
 -0.848  -0.843  -0.831  -0.822  -0.813  -0.807  -0.807  -0.805
 -0.803  -0.799  -0.799  -0.788  -0.784  -0.780  -0.771  -0.759
 -0.752  -0.746  -0.741  -0.739  -0.728  -0.718  -0.713  -0.709
 -0.697  -0.691  -0.675  -0.667  -0.656  -0.652  -0.644  -0.639
 -0.635  -0.627  -0.623  -0.621  -0.614  -0.607  -0.602  -0.601
 -0.597  -0.592  -0.587  -0.583  -0.577  -0.569  -0.567  -0.550
 -0.543  -0.542  -0.539  -0.537  -0.523  -0.517  -0.514  -0.513
 -0.507  -0.505  -0.499  -0.497  -0.491  -0.480  -0.479  -0.472
 -0.470  -0.468  -0.466  -0.461  -0.459  -0.458  -0.453  -0.448
 -0.447  -0.446  -0.443  -0.442  -0.438  -0.437  -0.436  -0.430
 -0.430  -0.428  -0.427  -0.421  -0.416  -0.415  -0.411  -0.408
 -0.407  -0.406  -0.405  -0.401  -0.398  -0.397  -0.396  -0.395
 -0.394  -0.390  -0.389  -0.388  -0.385  -0.382  -0.380  -0.379
 -0.376  -0.373  -0.373  -0.370  -0.367  -0.359  -0.359  -0.353
 -0.352  -0.350  -0.347  -0.346  -0.345  -0.344  -0.342  -0.336
 -0.335  -0.333  -0.332  -0.329  -0.328  -0.327  -0.323  -0.321
 -0.312  -0.309  -0.307  -0.304  -0.302  -0.300  -0.297  -0.295
 -0.293  -0.289  -0.288  -0.288  -0.288  -0.281  -0.280  -0.278
 -0.274  -0.267  -0.265  -0.262  -0.259  -0.253  -0.251  -0.244
 -0.241  -0.238  -0.231  -0.229  -0.193  -0.190

          Ground-State Mulliken Net Atomic Charges

     Atom                 Charge (a.u.)
  ----------------------------------------
      1 C                     0.262699
      2 C                    -0.105728
      3 N                    -0.480622
      4 C                    -0.061263
      5 C                     0.044320
      6 C                     0.063671
      7 C                     0.022171
      8 C                     0.079258
      9 C                     0.210015
     10 N                    -0.534174
     11 N                    -0.548542
     12 C                     0.198080
     13 C                     0.290505
     14 S                     0.615540
     15 N                    -0.541361
     16 C                    -0.216913
     17 S                     0.358521
     18 C                    -0.147750
     19 C                    -0.223229
     20 S                     0.332568
     21 C                     0.181744
     22 C                     0.027694
     23 C                    -0.312542
     24 C                    -0.088231
     25 N                    -0.420066
     26 S                     0.272852
     27 C                     0.126458
     28 C                    -0.300546
     29 C                    -0.233633
     30 H                     0.095109
     31 H                     0.110448
     32 H                     0.101211
     33 H                     0.118154
     34 H                     0.128670
     35 H                     0.101136
     36 H                     0.117880
     37 H                     0.137158
     38 H                     0.103062
     39 C                    -0.183772
     40 H                     0.121489
     41 H                     0.095556
     42 H                     0.088159
     43 C                    -0.175043
     44 H                     0.098879
     45 C                    -0.180720
     46 H                     0.102641
     47 H                     0.086844
     48 H                     0.089811
     49 C                    -0.174064
     50 H                     0.098779
     51 C                    -0.320469
     52 H                     0.095767
     53 H                     0.099240
     54 H                     0.095936
     55 H                     0.097531
     56 C                     0.285191
     57 C                    -0.125571
     58 N                    -0.488290
     59 C                    -0.084880
     60 C                     0.094571
     61 C                     0.052272
     62 C                    -0.010592
     63 C                     0.060103
     64 C                     0.270660
     65 N                    -0.496111
     66 N                    -0.591792
     67 C                     0.167602
     68 C                     0.275499
     69 S                     0.629304
     70 N                    -0.523974
     71 C                    -0.243378
     72 S                     0.362195
     73 C                    -0.104080
     74 C                    -0.187682
     75 S                     0.292851
     76 C                     0.126879
     77 C                     0.040265
     78 C                    -0.314726
     79 C                    -0.075179
     80 N                    -0.426759
     81 S                     0.266094
     82 C                     0.139480
     83 C                    -0.322121
     84 C                    -0.222790
     85 H                     0.087053
     86 H                     0.097065
     87 H                     0.113297
     88 H                     0.109210
     89 H                     0.128738
     90 H                     0.100727
     91 H                     0.120935
     92 H                     0.137114
     93 H                     0.104173
     94 C                    -0.186406
     95 H                     0.113329
     96 H                     0.096717
     97 H                     0.113886
     98 C                    -0.177662
     99 H                     0.085128
    100 C                    -0.180505
    101 H                     0.099791
    102 H                     0.089450
    103 H                     0.086798
    104 C                    -0.178034
    105 H                     0.096907
    106 C                    -0.317270
    107 H                     0.085972
    108 H                     0.098758
    109 H                     0.106518
    110 H                     0.102385
  ----------------------------------------
  Sum of atomic charges =     0.000000

                    Cartesian Multipole Moments
 -----------------------------------------------------------------
    Charge (ESU x 10^10)
                 0.0000
    Dipole Moment (Debye)
         X       1.1840      Y       0.0846      Z       2.9538
       Tot       3.1834
    Quadrupole Moments (Debye-Ang)
        XX    -372.0259     XY       3.9978     YY    -441.1108
        XZ       1.1337     YZ       0.8546     ZZ    -427.1568

 Total job time:  97.20s(wall), 1052.42s(cpu)
        *  Thank you very much for using Q-Chem.  Have a nice day.  *
