 Q-Chem 4.4, Q-Chem, Inc., Pleasanton, CA (2016)
 Q-Chem 4.4.2 for Intel X86 Linux

User input:
--------------------------------------------------------------
$comment
SP
$end

$rem
MEM_STATIC 5000
MEM_TOTAL 20000
JOBTYPE SP
EXCHANGE B3LYP
BASIS 6-31g(d,p)
$end

$molecule
0 1
C         -13.224000     -5.692000     -9.788000
C         -12.203000     -6.214000     -8.960000
N         -13.900000     -6.377000    -10.722000
C         -11.886000     -7.560000     -9.023000
C         -13.568000     -7.679000    -10.783000
C         -12.620000     -8.326000     -9.988000
C         -12.356000     -9.732000    -10.015000
C         -12.086000    -10.375000    -11.220000
C         -12.434000    -10.516000     -8.824000
N         -11.845000    -11.703000    -11.263000
N         -12.750000    -10.027000     -7.574000
C         -12.242000    -11.855000     -8.929000
C         -11.862000    -12.450000    -10.166000
S         -12.787000    -11.330000     -6.638000
N         -12.361000    -12.463000     -7.728000
C         -11.580000    -13.888000    -10.324000
S         -11.689000    -15.101000     -9.011000
C         -10.857000    -14.453000    -11.413000
C         -10.672000    -16.211000     -9.888000
S         -10.430000    -13.717000    -12.929000
C         -10.328000    -15.687000    -11.137000
C         -10.320000    -17.561000     -9.472000
C          -9.300000    -15.066000    -13.064000
C          -9.425000    -16.100000    -12.149000
N          -9.570000    -18.377000    -10.183000
S         -10.829000    -18.195000     -7.913000
C          -9.188000    -19.457000     -9.464000
C          -9.926000    -19.711000     -8.247000
C         -13.566000     -4.182000     -9.629000
H         -11.802000     -5.588000     -8.168000
H         -11.245000     -8.021000     -8.278000
H         -14.153000     -8.317000    -11.444000
H         -11.996000     -9.807000    -12.146000
H          -8.613000    -15.099000    -13.899000
H          -8.797000    -16.983000    -12.150000
H          -8.575000    -20.212000     -9.938000
H          -9.825000    -20.473000     -7.486000
H         -12.666000     -3.600000     -9.866000
C         -14.083000     -3.776000     -8.186000
H         -14.337000     -3.805000    -10.312000
H         -14.015000     -2.703000     -7.967000
H         -13.624000     -4.202000     -7.285000
C         -15.581000     -4.090000     -8.023000
H         -16.023000     -3.900000     -9.009000
C         -16.233000     -2.915000     -7.142000
H         -15.767000     -5.097000     -7.631000
H         -17.329000     -2.914000     -7.158000
H         -15.971000     -1.944000     -7.579000
C         -15.701000     -2.801000     -5.713000
H         -16.099000     -3.568000     -5.037000
C         -15.738000     -1.422000     -5.060000
H         -14.656000     -3.130000     -5.655000
H         -15.424000     -1.412000     -4.009000
H         -16.808000     -1.205000     -4.949000
H         -15.150000     -0.677000     -5.609000
C         -13.965000    -15.780000    -14.772000
C         -13.395000    -16.508000    -13.734000
N         -14.916000    -14.868000    -14.508000
C         -13.715000    -16.174000    -12.395000
C         -15.234000    -14.565000    -13.248000
C         -14.725000    -15.254000    -12.144000
C         -15.193000    -14.940000    -10.731000
C         -15.283000    -15.994000     -9.742000
C         -15.384000    -13.654000    -10.227000
N         -15.516000    -15.814000     -8.459000
N         -15.167000    -12.455000    -10.831000
C         -15.868000    -13.496000     -8.911000
C         -16.005000    -14.621000     -8.058000
S         -15.473000    -11.269000     -9.706000
N         -15.918000    -12.199000     -8.464000
C         -16.423000    -14.535000     -6.695000
S         -15.788000    -15.654000     -5.468000
C         -17.257000    -13.562000     -6.163000
C         -16.555000    -14.753000     -4.234000
S         -18.333000    -12.406000     -6.826000
C         -17.385000    -13.783000     -4.789000
C         -16.468000    -15.141000     -2.800000
C         -18.803000    -11.926000     -5.142000
C         -18.265000    -12.819000     -4.263000
N         -15.386000    -15.842000     -2.415000
S         -17.535000    -14.649000     -1.537000
C         -15.412000    -16.138000     -1.094000
C         -16.530000    -15.642000     -0.409000
C         -13.627000    -16.084000    -16.194000
H         -12.534000    -17.141000    -13.924000
H         -13.229000    -16.726000    -11.595000
H         -15.935000    -13.758000    -13.038000
H         -15.034000    -17.016000    -10.024000
H         -19.554000    -11.167000     -4.970000
H         -18.448000    -12.761000     -3.196000
H         -14.583000    -16.666000     -0.641000
H         -16.896000    -15.647000      0.609000
H         -13.061000    -17.007000    -16.368000
C         -12.703000    -14.949000    -16.761000
H         -14.584000    -16.094000    -16.731000
H         -11.987000    -14.607000    -16.004000
H         -13.335000    -14.052000    -16.749000
C         -12.107000    -15.196000    -18.110000
H         -12.924000    -15.337000    -18.829000
C         -11.115000    -16.377000    -18.254000
H         -11.587000    -14.322000    -18.522000
H         -10.735000    -16.495000    -19.277000
H         -11.595000    -17.361000    -18.177000
C          -9.942000    -16.232000    -17.246000
H         -10.226000    -16.120000    -16.193000
C          -8.964000    -15.092000    -17.579000
H          -9.363000    -17.164000    -17.245000
H          -8.081000    -15.058000    -16.930000
H          -9.460000    -14.144000    -17.336000
H          -8.610000    -15.133000    -18.616000
$end

--------------------------------------------------------------

             Standard Nuclear Orientation (Angstroms)
    I     Atom           X                Y                Z
 ----------------------------------------------------------------
    1      C      -4.0912899554     5.8921734980     0.9011552783
    2      C      -3.9195383105     5.1935096965     2.1188905799
    3      N      -3.2878853544     5.8069473874    -0.1692813416
    4      C      -2.8947249759     4.2715860516     2.2453359128
    5      C      -2.2868574131     4.9203683539    -0.0241273608
    6      C      -2.0409135797     4.1318985422     1.1015568697
    7      C      -1.0218996139     3.1313261442     1.1894568918
    8      C       0.2961679531     3.4376198501     0.8619571903
    9      C      -1.3436403148     1.7857896746     1.5433432160
   10      N       1.2671287791     2.5016132117     0.9300794863
   11      N      -2.6106460400     1.3251364363     1.8331225910
   12      C      -0.3429955096     0.8695422235     1.5400901949
   13      C       1.0076336296     1.2545050415     1.3030278464
   14      S      -2.4144153834    -0.2505637738     2.0653646577
   15      N      -0.7997416337    -0.3564374885     1.8785908948
   16      C       2.1413383716     0.3137883930     1.3488289953
   17      S       2.0011385241    -1.4398797257     1.6838082962
   18      C       3.5049420171     0.7005176333     1.4863084228
   19      C       3.6845452520    -1.5387305223     2.1218588736
   20      S       4.2072255424     2.2805106963     1.3054748782
   21      C       4.3129142443    -0.3013452197     1.9577155756
   22      C       4.4059382198    -2.7511374946     2.4811937031
   23      C       5.5921115042     1.5663332397     2.1343098639
   24      C       5.5965229346     0.1905130947     2.3049131112
   25      N       5.6885639166    -2.7825590829     2.7774385438
   26      S       3.5783923741    -4.2965953921     2.6162705710
   27      C       6.0465128399    -3.9695178740     3.3180737224
   28      C       5.1162816237    -5.0618835332     3.1401519670
   29      C      -5.2946543623     6.8748874379     0.8087841969
   30      H      -4.6954065888     5.2650529530     2.8757597741
   31      H      -2.8516661833     3.5929570280     3.0915247740
   32      H      -1.6608328801     4.7216091164    -0.8929069932
   33      H       0.5841303399     4.4581000323     0.6091769270
   34      H       6.4319936531     2.1947631530     2.3988033800
   35      H       6.4021746887    -0.3534489224     2.7835618080
   36      H       7.0798141452    -4.1281535823     3.5966291471
   37      H       5.1354075883    -6.0897290862     3.4765055260
   38      H      -5.1659835182     7.6474571198     1.5778569506
   39      C      -6.7138593104     6.1913407001     0.9904299303
   40      H      -5.3748527722     7.4248980910    -0.1367926094
   41      H      -7.5209896473     6.8878679164     1.2498609539
   42      H      -6.8666433696     5.4063307101     1.7416784556
   43      C      -7.1929356892     5.5465048206    -0.3225215204
   44      H      -6.8258822420     6.2074837994    -1.1175300464
   45      C      -8.7813864383     5.7668242576    -0.4233856042
   46      H      -6.8804167922     4.5004459017    -0.4245101342
   47      H      -9.1894733908     5.5539745807    -1.4181886270
   48      H      -9.0118602382     6.8286292528    -0.2753789164
   49      C      -9.6040991315     5.0833289572     0.6693353111
   50      H      -9.7154684056     4.0022120037     0.5194953382
   51      C     -10.9365599578     5.7246417485     1.0470720580
   52      H      -9.0334407942     5.0101025867     1.6034750013
   53      H     -11.5238430646     5.1499402239     1.7737863830
   54      H     -11.5577057112     5.6035262745     0.1505125257
   55      H     -10.8232871312     6.7496358642     1.4195318943
   56      C       5.4083218279     1.1217341304    -2.8614721557
   57      C       5.3999286242     0.0450591155    -1.9822517815
   58      N       4.2855456171     1.4601957520    -3.5177177738
   59      C       4.1713142791    -0.5892113070    -1.6738935121
   60      C       3.1302111556     0.8513021532    -3.2438859506
   61      C       3.0295742040    -0.2486899869    -2.3880194333
   62      C       1.7079724424    -0.9738771773    -2.1839083782
   63      C       1.6892091712    -2.4033043001    -1.9525579076
   64      C       0.4756460685    -0.3431721331    -2.0169477380
   65      N       0.6297283097    -3.1027061093    -1.6045415092
   66      N       0.1933440382     0.9858346168    -1.9573438601
   67      C      -0.6875016733    -1.1307997823    -1.8835085495
   68      C      -0.5880649219    -2.5402561001    -1.7588160444
   69      S      -1.4328216115     1.1350217087    -1.6424065782
   70      N      -1.8350814658    -0.4279152869    -1.6123406938
   71      C      -1.7112641076    -3.3981764797    -1.5531823623
   72      S      -1.5704925777    -4.8756680325    -0.5743478064
   73      C      -3.0071328869    -3.1542079725    -1.9850532625
   74      C      -3.2626986640    -5.1045957865    -0.6572733452
   75      S      -3.7158343249    -2.0852875235    -3.1203207840
   76      C      -3.8304526935    -4.1936211647    -1.5436172968
   77      C      -3.9370634327    -6.2642833512    -0.0132035423
   78      C      -5.3251603883    -2.8510920389    -2.7875009141
   79      C      -5.1341070700    -3.9621968586    -2.0203772545
   80      N      -3.3320884565    -6.8144281738     1.0552981902
   81      S      -5.5011559948    -6.8837588871    -0.3947615557
   82      C      -4.0331383042    -7.8575823589     1.5589761202
   83      C      -5.2339142397    -8.1289542845     0.8884096203
   84      C       6.6799265917     1.8335692153    -3.1855957997
   85      H       6.2603859200    -0.1447352883    -1.3484526600
   86      H       4.1768451650    -1.4025830058    -0.9532716357
   87      H       2.2060419538     1.1939597169    -3.7078332326
   88      H       2.6266152776    -2.9576101520    -1.9476779263
   89      H      -6.2123350076    -2.5318227491    -3.3172690856
   90      H      -5.9523932336    -4.6115023129    -1.7302873006
   91      H      -3.6807904280    -8.3693463444     2.4450814171
   92      H      -6.0490057655    -8.8334252046     0.9866518073
   93      H       7.6028725666     1.3528876420    -2.8396522316
   94      C       6.6836524212     3.2352130577    -2.4792880358
   95      H       6.6792442655     1.9610805820    -4.2755767104
   96      H       6.2331399597     3.1761691571    -1.4811791540
   97      H       5.8601767758     3.7822591579    -2.9555289681
   98      C       7.9685162556     3.9981747353    -2.5344279097
   99      H       8.2264589948     4.1663668241    -3.5877597494
  100      C       9.1991815472     3.3893684115    -1.8172258461
  101      H       7.8819120167     5.0233177102    -2.1528501499
  102      H      10.1017075617     4.0060749863    -1.9170897224
  103      H       9.5948151091     2.4946056396    -2.3146780213
  104      C       8.8818210555     3.1190768213    -0.3208158840
  105      H       7.9997600383     2.4989229859    -0.1223553531
  106      C       8.7469454753     4.3916350736     0.5332198719
  107      H       9.6988225013     2.5265697472     0.1096606015
  108      H       8.6293628784     4.1984413567     1.6060183249
  109      H       7.7886955568     4.8631984011     0.2819150336
  110      H       9.5995808713     5.0703040899     0.4116170436
 ----------------------------------------------------------------

   10   -5663.5122072355      3.58E-06 Convergence criterion met
 Total energy in the final basis set = -5663.5122072355

                    Orbital Energies (a.u.)
 --------------------------------------------------------------

 Alpha MOs
 -- Occupied --
-88.992 -88.987 -88.931 -88.927 -88.925 -88.922 -88.913 -88.911
-14.382 -14.382 -14.382 -14.373 -14.345 -14.343 -14.343 -14.342
-14.334 -14.318 -10.275 -10.271 -10.263 -10.253 -10.252 -10.250
-10.250 -10.249 -10.244 -10.243 -10.242 -10.238 -10.238 -10.237
-10.237 -10.237 -10.235 -10.234 -10.233 -10.232 -10.229 -10.228
-10.225 -10.221 -10.220 -10.219 -10.216 -10.216 -10.211 -10.208
-10.207 -10.206 -10.204 -10.204 -10.201 -10.198 -10.196 -10.191
-10.187 -10.182 -10.179 -10.179 -10.179 -10.178 -10.176 -10.174
-10.173 -10.173 -10.172 -10.171  -8.047  -8.041  -7.992  -7.985
 -7.984  -7.982  -7.972  -7.972  -6.012  -6.006  -6.006  -6.005
 -6.000  -5.999  -5.956  -5.952  -5.950  -5.949  -5.948  -5.946
 -5.946  -5.944  -5.943  -5.942  -5.941  -5.940  -5.937  -5.936
 -5.933  -5.933  -5.929  -5.928  -1.043  -1.026  -0.970  -0.966
 -0.961  -0.959  -0.943  -0.933  -0.919  -0.914  -0.900  -0.891
 -0.851  -0.846  -0.842  -0.823  -0.810  -0.808  -0.804  -0.804
 -0.801  -0.797  -0.795  -0.789  -0.782  -0.778  -0.764  -0.760
 -0.748  -0.747  -0.741  -0.741  -0.731  -0.723  -0.710  -0.709
 -0.692  -0.689  -0.672  -0.670  -0.655  -0.654  -0.649  -0.641
 -0.636  -0.629  -0.625  -0.622  -0.611  -0.608  -0.603  -0.599
 -0.599  -0.593  -0.586  -0.585  -0.577  -0.571  -0.562  -0.552
 -0.548  -0.545  -0.542  -0.541  -0.525  -0.520  -0.517  -0.508
 -0.507  -0.503  -0.501  -0.498  -0.494  -0.484  -0.479  -0.475
 -0.474  -0.469  -0.465  -0.459  -0.457  -0.456  -0.450  -0.449
 -0.445  -0.445  -0.445  -0.439  -0.436  -0.435  -0.433  -0.433
 -0.427  -0.424  -0.423  -0.419  -0.418  -0.413  -0.412  -0.411
 -0.410  -0.405  -0.404  -0.403  -0.401  -0.397  -0.396  -0.395
 -0.393  -0.392  -0.391  -0.391  -0.388  -0.385  -0.383  -0.377
 -0.376  -0.373  -0.371  -0.366  -0.365  -0.363  -0.361  -0.356
 -0.354  -0.353  -0.351  -0.350  -0.346  -0.346  -0.343  -0.342
 -0.336  -0.334  -0.333  -0.329  -0.326  -0.325  -0.321  -0.319
 -0.312  -0.310  -0.308  -0.307  -0.306  -0.298  -0.297  -0.293
 -0.292  -0.292  -0.291  -0.290  -0.284  -0.283  -0.279  -0.277
 -0.271  -0.268  -0.264  -0.259  -0.258  -0.254  -0.252  -0.247
 -0.245  -0.237  -0.233  -0.229  -0.194  -0.192

          Ground-State Mulliken Net Atomic Charges

     Atom                 Charge (a.u.)
  ----------------------------------------
      1 C                     0.275710
      2 C                    -0.105858
      3 N                    -0.477596
      4 C                    -0.049629
      5 C                     0.070390
      6 C                     0.028073
      7 C                    -0.025516
      8 C                     0.076168
      9 C                     0.224395
     10 N                    -0.530172
     11 N                    -0.551351
     12 C                     0.199879
     13 C                     0.352194
     14 S                     0.628770
     15 N                    -0.571662
     16 C                    -0.228045
     17 S                     0.339379
     18 C                    -0.116033
     19 C                    -0.238399
     20 S                     0.301261
     21 C                     0.154151
     22 C                     0.070168
     23 C                    -0.312139
     24 C                    -0.062689
     25 N                    -0.423062
     26 S                     0.254132
     27 C                     0.102580
     28 C                    -0.308114
     29 C                    -0.242912
     30 H                     0.094676
     31 H                     0.115100
     32 H                     0.097626
     33 H                     0.123926
     34 H                     0.120854
     35 H                     0.131015
     36 H                     0.112316
     37 H                     0.142067
     38 H                     0.107876
     39 C                    -0.188694
     40 H                     0.118375
     41 H                     0.097153
     42 H                     0.099135
     43 C                    -0.173739
     44 H                     0.100213
     45 C                    -0.190382
     46 H                     0.103348
     47 H                     0.088299
     48 H                     0.092588
     49 C                    -0.179230
     50 H                     0.088325
     51 C                    -0.319160
     52 H                     0.087228
     53 H                     0.100110
     54 H                     0.102972
     55 H                     0.104113
     56 C                     0.285721
     57 C                    -0.130405
     58 N                    -0.492253
     59 C                    -0.079861
     60 C                     0.091845
     61 C                     0.050599
     62 C                    -0.001075
     63 C                     0.063388
     64 C                     0.268467
     65 N                    -0.494952
     66 N                    -0.587339
     67 C                     0.167814
     68 C                     0.281866
     69 S                     0.624706
     70 N                    -0.538463
     71 C                    -0.242953
     72 S                     0.364099
     73 C                    -0.097133
     74 C                    -0.189629
     75 S                     0.267562
     76 C                     0.127154
     77 C                     0.040648
     78 C                    -0.302577
     79 C                    -0.076524
     80 N                    -0.427510
     81 S                     0.267016
     82 C                     0.139360
     83 C                    -0.322341
     84 C                    -0.222173
     85 H                     0.094543
     86 H                     0.102912
     87 H                     0.110218
     88 H                     0.110981
     89 H                     0.134588
     90 H                     0.102484
     91 H                     0.120811
     92 H                     0.137983
     93 H                     0.103209
     94 C                    -0.192122
     95 H                     0.117805
     96 H                     0.103824
     97 H                     0.113748
     98 C                    -0.177503
     99 H                     0.087504
    100 C                    -0.180121
    101 H                     0.097649
    102 H                     0.088604
    103 H                     0.087972
    104 C                    -0.181793
    105 H                     0.101021
    106 C                    -0.318649
    107 H                     0.085069
    108 H                     0.093743
    109 H                     0.106542
    110 H                     0.103737
  ----------------------------------------
  Sum of atomic charges =     0.000000

                    Cartesian Multipole Moments
 -----------------------------------------------------------------
    Charge (ESU x 10^10)
                 0.0000
    Dipole Moment (Debye)
         X      -2.6432      Y      -2.9631      Z       3.5193
       Tot       5.3058
    Quadrupole Moments (Debye-Ang)
        XX    -396.9397     XY       9.1376     YY    -424.2475
        XZ       6.9442     YZ      -0.4726     ZZ    -445.0872

 Total job time:  117.50s(wall), 1234.44s(cpu)
        *  Thank you very much for using Q-Chem.  Have a nice day.  *
