 Q-Chem 4.4, Q-Chem, Inc., Pleasanton, CA (2016)
 Q-Chem 4.4.2 for Intel X86 Linux

User input:
--------------------------------------------------------------
$comment
SP
$end

$rem
MEM_STATIC 5000
MEM_TOTAL 20000
JOBTYPE SP
EXCHANGE B3LYP
BASIS 6-31g(d,p)
$end

$molecule
0 1
C          -8.526000    -14.757000     -6.261000
C          -8.080000    -13.912000     -5.243000
N          -9.721000    -15.322000     -6.107000
C          -8.877000    -13.533000     -4.160000
C         -10.508000    -14.989000     -5.069000
C         -10.162000    -14.099000     -4.026000
C         -10.954000    -13.867000     -2.851000
C         -10.294000    -14.065000     -1.585000
C         -12.353000    -13.531000     -2.845000
N         -10.925000    -13.781000     -0.460000
N         -13.146000    -13.355000     -3.948000
C         -12.959000    -13.242000     -1.648000
C         -12.221000    -13.413000     -0.445000
S         -14.495000    -12.640000     -3.326000
N         -14.179000    -12.715000     -1.735000
C         -12.782000    -13.249000      0.889000
S         -14.428000    -13.713000      1.388000
C         -12.064000    -12.758000      1.957000
C         -14.028000    -13.405000      3.131000
S         -10.442000    -12.005000      2.136000
C         -12.722000    -12.840000      3.152000
C         -14.919000    -13.673000      4.268000
C         -10.796000    -11.771000      3.860000
C         -11.975000    -12.263000      4.232000
N         -14.417000    -13.591000      5.510000
S         -16.447000    -14.470000      4.205000
C         -15.345000    -13.975000      6.443000
C         -16.529000    -14.369000      5.922000
C          -7.710000    -14.988000     -7.478000
H          -7.063000    -13.542000     -5.331000
H          -8.522000    -12.827000     -3.415000
H         -11.431000    -15.554000     -4.953000
H          -9.270000    -14.430000     -1.512000
H         -10.151000    -11.032000      4.317000
H         -12.447000    -12.048000      5.184000
H         -15.144000    -13.740000      7.479000
H         -17.414000    -14.640000      6.483000
H          -6.644000    -14.789000     -7.318000
C          -8.116000    -13.960000     -8.628000
H          -7.872000    -16.008000     -7.848000
H          -9.188000    -13.963000     -8.860000
H          -7.583000    -14.244000     -9.544000
C          -7.656000    -12.566000     -8.239000
H          -7.892000    -12.471000     -7.172000
C          -8.391000    -11.561000     -9.131000
H          -6.560000    -12.579000     -8.271000
H          -9.454000    -11.786000     -8.983000
H          -8.158000    -11.798000    -10.176000
C          -8.103000    -10.129000     -8.828000
H          -7.027000     -9.917000     -8.821000
C          -8.569000     -9.504000     -7.519000
H          -8.526000     -9.542000     -9.653000
H          -9.609000     -9.853000     -7.479000
H          -8.519000     -8.411000     -7.450000
H          -8.060000     -9.968000     -6.664000
C         -13.965000    -15.780000    -14.772000
C         -13.395000    -16.508000    -13.734000
N         -14.916000    -14.868000    -14.508000
C         -13.715000    -16.174000    -12.395000
C         -15.234000    -14.565000    -13.248000
C         -14.725000    -15.254000    -12.144000
C         -15.193000    -14.940000    -10.731000
C         -15.283000    -15.994000     -9.742000
C         -15.384000    -13.654000    -10.227000
N         -15.516000    -15.814000     -8.459000
N         -15.167000    -12.455000    -10.831000
C         -15.868000    -13.496000     -8.911000
C         -16.005000    -14.621000     -8.058000
S         -15.473000    -11.269000     -9.706000
N         -15.918000    -12.199000     -8.464000
C         -16.423000    -14.535000     -6.695000
S         -15.788000    -15.654000     -5.468000
C         -17.257000    -13.562000     -6.163000
C         -16.555000    -14.753000     -4.234000
S         -18.333000    -12.406000     -6.826000
C         -17.385000    -13.783000     -4.789000
C         -16.468000    -15.141000     -2.800000
C         -18.803000    -11.926000     -5.142000
C         -18.265000    -12.819000     -4.263000
N         -15.386000    -15.842000     -2.415000
S         -17.535000    -14.649000     -1.537000
C         -15.412000    -16.138000     -1.094000
C         -16.530000    -15.642000     -0.409000
C         -13.627000    -16.084000    -16.194000
H         -12.534000    -17.141000    -13.924000
H         -13.229000    -16.726000    -11.595000
H         -15.935000    -13.758000    -13.038000
H         -15.034000    -17.016000    -10.024000
H         -19.554000    -11.167000     -4.970000
H         -18.448000    -12.761000     -3.196000
H         -14.583000    -16.666000     -0.641000
H         -16.896000    -15.647000      0.609000
H         -13.061000    -17.007000    -16.368000
C         -12.703000    -14.949000    -16.761000
H         -14.584000    -16.094000    -16.731000
H         -11.987000    -14.607000    -16.004000
H         -13.335000    -14.052000    -16.749000
C         -12.107000    -15.196000    -18.110000
H         -12.924000    -15.337000    -18.829000
C         -11.115000    -16.377000    -18.254000
H         -11.587000    -14.322000    -18.522000
H         -10.735000    -16.495000    -19.277000
H         -11.595000    -17.361000    -18.177000
C          -9.942000    -16.232000    -17.246000
H         -10.226000    -16.120000    -16.193000
C          -8.964000    -15.092000    -17.579000
H          -9.363000    -17.164000    -17.245000
H          -8.081000    -15.058000    -16.930000
H          -9.460000    -14.144000    -17.336000
H          -8.610000    -15.133000    -18.616000
$end

--------------------------------------------------------------

             Standard Nuclear Orientation (Angstroms)
    I     Atom           X                Y                Z
 ----------------------------------------------------------------
    1      C       1.4956295919    -4.6848242720    -1.4226997816
    2      C       0.4686179444    -5.3318957350    -0.7329095253
    3      N       1.2640390969    -3.4424243257    -1.8395621283
    4      C      -0.7137214858    -4.6947775849    -0.3483410206
    5      C       0.1307139644    -2.8048331062    -1.4978698972
    6      C      -0.9344335886    -3.3616594069    -0.7528395883
    7      C      -2.1968274117    -2.7176090056    -0.5220281585
    8      C      -3.3722831971    -3.4552667931    -0.9115466882
    9      C      -2.3678290506    -1.3840258478    -0.0097319544
   10      N      -4.5726888614    -2.9726736733    -0.6458925485
   11      N      -1.3658646078    -0.5267861422     0.3612685072
   12      C      -3.6375314565    -0.9332446231     0.2514539717
   13      C      -4.7446113538    -1.7458897648    -0.1160728636
   14      S      -2.1707449404     0.6502750476     1.1886768742
   15      N      -3.7122171315     0.2059550164     0.9372704423
   16      C      -6.1366082557    -1.3346889242     0.0040582879
   17      S      -6.7632016697     0.3078211504    -0.2843066689
   18      C      -7.1600695983    -2.2061146420     0.3046794760
   19      C      -8.4750204153    -0.2854482677    -0.1812485307
   20      S      -7.2297375609    -3.9253904665     0.8234964130
   21      C      -8.4059264705    -1.6530632437     0.2062528298
   22      C      -9.6731507528     0.5281313818    -0.4283231107
   23      C      -8.9930348351    -3.7629970381     0.9525665381
   24      C      -9.4446603483    -2.5659490457     0.5870538850
   25      N     -10.8611029727    -0.0898372825    -0.5187457480
   26      S      -9.7059313436     2.1502841313    -1.0127098748
   27      C     -11.8520601210     0.7944409034    -0.8581349346
   28      C     -11.4252530464     2.0631848855    -1.0495962338
   29      C       2.8020359956    -5.3489166557    -1.6520240375
   30      H       0.6310759760    -6.3779267799    -0.4913325377
   31      H      -1.4688387700    -5.2085349791     0.2393129822
   32      H      -0.0358502357    -1.8273509685    -1.9466404820
   33      H      -3.3152190578    -4.4220329897    -1.4107829100
   34      H      -9.4356616999    -4.5415003786     1.5600276540
   35      H     -10.4523973019    -2.2152306539     0.7788241698
   36      H     -12.8770092092     0.4709602191    -0.7408250306
   37      H     -12.0510193854     2.9229738451    -1.2510073404
   38      H       2.7358184576    -6.4421428351    -1.6069822965
   39      C       3.8273096233    -4.9858791395    -0.4853459541
   40      H       3.2273636874    -5.0162367214    -2.6069923175
   41      H       3.9500587562    -3.9071028686    -0.3298100820
   42      H       4.8104893678    -5.3905602322    -0.7562551699
   43      C       3.3857578228    -5.6654469245     0.7989346356
   44      H       2.2963756307    -5.5414408414     0.8317817185
   45      C       4.1236615735    -4.9978651505     1.9632999691
   46      H       3.5285442591    -6.7420049332     0.6471325023
   47      H       3.8864621236    -3.9316934901     1.8657683770
   48      H       5.2012790883    -5.1014463347     1.7886734241
   49      C       3.7473939933    -5.5052345511     3.3147347619
   50      H       3.8330477778    -6.5963680819     3.3844488001
   51      C       2.3560913862    -5.2486209687     3.8801448121
   52      H       4.4806694913    -5.0942316672     4.0200762916
   53      H       2.2374186455    -4.1784655086     3.6664041476
   54      H       2.2128554861    -5.4537803013     4.9475262459
   55      H       1.5927067788    -5.7639965125     3.2826215990
   56      C       9.4691376759     1.5850210032    -1.0001124434
   57      C       8.5495690315     1.0291807326    -1.8820212265
   58      N       9.0450813762     2.3746260400     0.0011573208
   59      C       7.1644070124     1.1789105132    -1.6255369702
   60      C       7.7407719467     2.5337201221     0.2335341382
   61      C       6.7467399724     2.0267914135    -0.6076208525
   62      C       5.2747451955     2.3186179873    -0.3581060681
   63      C       4.3613041494     2.4629029975    -1.4725316112
   64      C       4.6615795706     2.2857261767     0.8937881148
   65      N       3.0516896746     2.5529184082    -1.3746278159
   66      N       5.1951709373     1.9617352241     2.1020166180
   67      C       3.2956154604     2.6234036401     0.9995802717
   68      C       2.5175843057     2.8359859100    -0.1672441799
   69      S       3.9615606141     2.0002242162     3.2167278667
   70      N       2.7523680833     2.4550263501     2.2489998871
   71      C       1.1168693367     3.1141911968    -0.1451445435
   72      S       0.0448362103     2.5307885585    -1.4379327465
   73      C       0.4341857008     3.7559606342     0.8782732805
   74      C      -1.3224287956     3.0532884671    -0.5545153768
   75      S       0.8995873521     4.7187068716     2.2162575799
   76      C      -0.9259039480     3.7891216659     0.5586524222
   77      C      -2.7082674921     2.8918267393    -1.0720578559
   78      C      -0.8536294990     4.9654475729     2.6067773609
   79      C      -1.6065973509     4.4780412796     1.5796412847
   80      N      -2.9304341875     1.8858300002    -1.9374840633
   81      S      -4.1045827059     3.7636694322    -0.5563872802
   82      C      -4.2222136549     1.8333940997    -2.3398387375
   83      C      -5.0504165935     2.8068981968    -1.7640482675
   84      C      10.9362752410     1.4208792831    -1.2221684287
   85      H       8.8707904159     0.2835201115    -2.6023802067
   86      H       6.4597108241     0.7032106929    -2.3023035201
   87      H       7.4030736716     3.0959222612     1.1033839125
   88      H       4.7407407721     2.3825013176    -2.4901623985
   89      H      -1.1551398517     5.5869584642     3.4389322259
   90      H      -2.6879549850     4.5548280605     1.5690839441
   91      H      -4.5498955442     1.0471931178    -3.0074813032
   92      H      -6.0969352536     3.0772403373    -1.8089795617
   93      H      11.2331606947     1.0045042935    -2.1922467222
   94      C      11.5088380192     0.4048681883    -0.1717478842
   95      H      11.3737258924     2.4145508680    -1.0622568624
   96      H      10.8046463735    -0.4162615379     0.0086103674
   97      H      11.3679677099     0.9044577481     0.7950731063
   98      C      12.9252935551    -0.0281503328    -0.3771126210
   99      H      13.5669610288     0.8616864287    -0.3491056375
  100      C      13.2540344232    -0.8321488213    -1.6597181224
  101      H      13.3225308044    -0.6237973553     0.4544083905
  102      H      14.3158999239    -1.0990136287    -1.7376785800
  103      H      13.2012526146    -0.2308235228    -2.5763461637
  104      C      12.3610690622    -2.0996780820    -1.7545887573
  105      H      11.2795162341    -1.9293900753    -1.6975407527
  106      C      12.7065016514    -3.1906553401    -0.7262804628
  107      H      12.4862716194    -2.5433583185    -2.7502484217
  108      H      12.1487329523    -4.1246674116    -0.8625211638
  109      H      12.3463560991    -2.8529537977     0.2535265842
  110      H      13.7740260868    -3.4411557471    -0.7236110074
 ----------------------------------------------------------------

   10   -5663.5183553998      3.57E-06 Convergence criterion met
 Total energy in the final basis set = -5663.5183553998

                    Orbital Energies (a.u.)
 --------------------------------------------------------------

 Alpha MOs
 -- Occupied --
-88.990 -88.983 -88.933 -88.929 -88.928 -88.926 -88.916 -88.902
-14.385 -14.379 -14.377 -14.377 -14.347 -14.346 -14.340 -14.339
-14.325 -14.322 -10.277 -10.272 -10.256 -10.255 -10.254 -10.253
-10.249 -10.247 -10.247 -10.244 -10.240 -10.240 -10.239 -10.238
-10.238 -10.237 -10.236 -10.232 -10.227 -10.226 -10.226 -10.225
-10.224 -10.223 -10.222 -10.220 -10.220 -10.218 -10.212 -10.210
-10.208 -10.208 -10.208 -10.206 -10.205 -10.194 -10.192 -10.189
-10.187 -10.184 -10.180 -10.179 -10.178 -10.177 -10.176 -10.175
-10.171 -10.170 -10.170 -10.169  -8.044  -8.038  -7.994  -7.991
 -7.988  -7.984  -7.976  -7.962  -6.010  -6.004  -6.003  -6.002
 -5.997  -5.996  -5.958  -5.955  -5.954  -5.952  -5.951  -5.951
 -5.948  -5.948  -5.948  -5.945  -5.945  -5.941  -5.941  -5.937
 -5.932  -5.927  -5.923  -5.918  -1.034  -1.029  -0.969  -0.968
 -0.963  -0.956  -0.940  -0.937  -0.923  -0.907  -0.897  -0.895
 -0.855  -0.840  -0.831  -0.828  -0.814  -0.812  -0.808  -0.808
 -0.805  -0.804  -0.794  -0.791  -0.785  -0.783  -0.764  -0.764
 -0.751  -0.749  -0.745  -0.735  -0.734  -0.727  -0.713  -0.710
 -0.695  -0.690  -0.674  -0.672  -0.659  -0.654  -0.645  -0.641
 -0.635  -0.632  -0.628  -0.623  -0.613  -0.611  -0.606  -0.603
 -0.591  -0.590  -0.590  -0.577  -0.575  -0.573  -0.564  -0.551
 -0.551  -0.549  -0.545  -0.536  -0.523  -0.522  -0.520  -0.510
 -0.509  -0.505  -0.503  -0.497  -0.486  -0.485  -0.479  -0.478
 -0.474  -0.469  -0.468  -0.466  -0.461  -0.460  -0.455  -0.450
 -0.449  -0.448  -0.447  -0.443  -0.438  -0.436  -0.433  -0.431
 -0.429  -0.428  -0.423  -0.420  -0.417  -0.417  -0.415  -0.413
 -0.410  -0.410  -0.409  -0.406  -0.400  -0.399  -0.398  -0.396
 -0.394  -0.391  -0.388  -0.387  -0.387  -0.383  -0.381  -0.380
 -0.378  -0.376  -0.376  -0.375  -0.368  -0.361  -0.360  -0.358
 -0.357  -0.353  -0.351  -0.350  -0.348  -0.345  -0.341  -0.340
 -0.339  -0.335  -0.334  -0.330  -0.330  -0.329  -0.322  -0.318
 -0.312  -0.311  -0.310  -0.306  -0.301  -0.300  -0.298  -0.298
 -0.296  -0.294  -0.288  -0.287  -0.286  -0.282  -0.278  -0.277
 -0.273  -0.267  -0.263  -0.261  -0.256  -0.250  -0.249  -0.246
 -0.243  -0.242  -0.235  -0.228  -0.197  -0.190

          Ground-State Mulliken Net Atomic Charges

     Atom                 Charge (a.u.)
  ----------------------------------------
      1 C                     0.315431
      2 C                    -0.134146
      3 N                    -0.493627
      4 C                    -0.078157
      5 C                     0.084133
      6 C                     0.035818
      7 C                    -0.029394
      8 C                     0.076563
      9 C                     0.260402
     10 N                    -0.493019
     11 N                    -0.558004
     12 C                     0.204811
     13 C                     0.257532
     14 S                     0.638581
     15 N                    -0.563021
     16 C                    -0.222350
     17 S                     0.310001
     18 C                    -0.079892
     19 C                    -0.237444
     20 S                     0.244832
     21 C                     0.139614
     22 C                     0.052539
     23 C                    -0.308381
     24 C                    -0.024462
     25 N                    -0.436756
     26 S                     0.258140
     27 C                     0.127936
     28 C                    -0.309591
     29 C                    -0.239082
     30 H                     0.082912
     31 H                     0.100443
     32 H                     0.113951
     33 H                     0.121465
     34 H                     0.135259
     35 H                     0.121515
     36 H                     0.115889
     37 H                     0.132916
     38 H                     0.099221
     39 C                    -0.182244
     40 H                     0.113656
     41 H                     0.108439
     42 H                     0.093195
     43 C                    -0.175350
     44 H                     0.099498
     45 C                    -0.171514
     46 H                     0.083928
     47 H                     0.095209
     48 H                     0.094796
     49 C                    -0.175716
     50 H                     0.087157
     51 C                    -0.314687
     52 H                     0.085332
     53 H                     0.098579
     54 H                     0.104484
     55 H                     0.102252
     56 C                     0.281580
     57 C                    -0.126360
     58 N                    -0.488872
     59 C                    -0.085101
     60 C                     0.089241
     61 C                     0.051131
     62 C                    -0.004594
     63 C                     0.062724
     64 C                     0.273224
     65 N                    -0.493229
     66 N                    -0.580858
     67 C                     0.166756
     68 C                     0.281962
     69 S                     0.615057
     70 N                    -0.522968
     71 C                    -0.236823
     72 S                     0.373910
     73 C                    -0.096887
     74 C                    -0.216931
     75 S                     0.269857
     76 C                     0.137318
     77 C                     0.037437
     78 C                    -0.301346
     79 C                    -0.080061
     80 N                    -0.428248
     81 S                     0.269815
     82 C                     0.137058
     83 C                    -0.311730
     84 C                    -0.222069
     85 H                     0.089397
     86 H                     0.100835
     87 H                     0.112446
     88 H                     0.111562
     89 H                     0.136867
     90 H                     0.105746
     91 H                     0.129572
     92 H                     0.145421
     93 H                     0.104512
     94 C                    -0.186232
     95 H                     0.119574
     96 H                     0.095247
     97 H                     0.114008
     98 C                    -0.177708
     99 H                     0.088067
    100 C                    -0.180663
    101 H                     0.099330
    102 H                     0.089936
    103 H                     0.087520
    104 C                    -0.178445
    105 H                     0.096109
    106 C                    -0.316519
    107 H                     0.086178
    108 H                     0.098077
    109 H                     0.105879
    110 H                     0.102695
  ----------------------------------------
  Sum of atomic charges =     0.000000

                    Cartesian Multipole Moments
 -----------------------------------------------------------------
    Charge (ESU x 10^10)
                 0.0000
    Dipole Moment (Debye)
         X      -2.5451      Y       0.9290      Z       1.4717
       Tot       3.0833
    Quadrupole Moments (Debye-Ang)
        XX    -410.5215     XY     -35.6546     YY    -422.4464
        XZ     -10.4148     YZ       2.3987     ZZ    -441.3450

 Total job time:  103.12s(wall), 1108.20s(cpu)
        *  Thank you very much for using Q-Chem.  Have a nice day.  *
