 Q-Chem 4.4, Q-Chem, Inc., Pleasanton, CA (2016)
 Q-Chem 4.4.2 for Intel X86 Linux

User input:
--------------------------------------------------------------
$comment
SP
$end

$rem
MEM_STATIC 5000
MEM_TOTAL 20000
JOBTYPE SP
EXCHANGE B3LYP
BASIS 6-31g(d,p)
$end

$molecule
0 1
C         -16.299000    -19.484000    -13.906000
C         -16.548000    -18.209000    -13.529000
N         -16.676000    -20.575000    -13.257000
C         -17.262000    -17.935000    -12.303000
C         -17.422000    -20.390000    -12.124000
C         -17.776000    -19.086000    -11.643000
C         -18.656000    -18.930000    -10.441000
C         -18.437000    -17.970000     -9.416000
C         -19.877000    -19.645000    -10.325000
N         -19.162000    -17.900000     -8.294000
N         -20.386000    -20.527000    -11.247000
C         -20.795000    -19.381000     -9.278000
C         -20.363000    -18.476000     -8.220000
S         -21.764000    -21.099000    -10.729000
N         -21.865000    -20.247000     -9.285000
C         -21.187000    -18.460000     -6.977000
S         -22.756000    -19.063000     -6.577000
C         -20.891000    -17.504000     -5.968000
C         -22.900000    -18.189000     -5.062000
S         -19.669000    -16.246000     -5.975000
C         -21.893000    -17.269000     -5.000000
C         -23.972000    -18.339000     -4.216000
C         -20.510000    -15.423000     -4.629000
C         -21.678000    -16.086000     -4.245000
N         -23.827000    -17.933000     -3.015000
S         -25.409000    -19.229000     -4.604000
C         -24.958000    -18.245000     -2.261000
C         -25.954000    -18.808000     -2.996000
C         -15.311000    -19.775000    -14.964000
H         -16.266000    -17.430000    -14.231000
H         -17.465000    -16.934000    -11.935000
H         -17.582000    -21.284000    -11.523000
H         -17.585000    -17.292000     -9.424000
H         -20.070000    -14.501000     -4.271000
H         -22.309000    -15.765000     -3.424000
H         -24.850000    -17.907000     -1.239000
H         -26.972000    -19.071000     -2.741000
H         -14.646000    -18.904000    -14.912000
C         -15.891000    -19.781000    -16.326000
H         -14.821000    -20.733000    -14.749000
H         -16.383000    -18.857000    -16.656000
H         -16.733000    -20.454000    -16.122000
C         -14.973000    -20.420000    -17.491000
H         -14.175000    -19.750000    -17.833000
C         -15.833000    -20.704000    -18.773000
H         -14.535000    -21.382000    -17.199000
H         -16.191000    -19.706000    -19.055000
H         -16.706000    -21.312000    -18.503000
C         -14.974000    -21.321000    -19.901000
H         -14.348000    -20.557000    -20.379000
C         -15.931000    -21.843000    -21.070000
H         -14.279000    -22.124000    -19.624000
H         -16.313000    -22.845000    -20.838000
H         -15.328000    -21.955000    -21.979000
H         -16.639000    -21.009000    -21.156000
C         -13.965000    -15.780000    -14.772000
C         -13.395000    -16.508000    -13.734000
N         -14.916000    -14.868000    -14.508000
C         -13.715000    -16.174000    -12.395000
C         -15.234000    -14.565000    -13.248000
C         -14.725000    -15.254000    -12.144000
C         -15.193000    -14.940000    -10.731000
C         -15.283000    -15.994000     -9.742000
C         -15.384000    -13.654000    -10.227000
N         -15.516000    -15.814000     -8.459000
N         -15.167000    -12.455000    -10.831000
C         -15.868000    -13.496000     -8.911000
C         -16.005000    -14.621000     -8.058000
S         -15.473000    -11.269000     -9.706000
N         -15.918000    -12.199000     -8.464000
C         -16.423000    -14.535000     -6.695000
S         -15.788000    -15.654000     -5.468000
C         -17.257000    -13.562000     -6.163000
C         -16.555000    -14.753000     -4.234000
S         -18.333000    -12.406000     -6.826000
C         -17.385000    -13.783000     -4.789000
C         -16.468000    -15.141000     -2.800000
C         -18.803000    -11.926000     -5.142000
C         -18.265000    -12.819000     -4.263000
N         -15.386000    -15.842000     -2.415000
S         -17.535000    -14.649000     -1.537000
C         -15.412000    -16.138000     -1.094000
C         -16.530000    -15.642000     -0.409000
C         -13.627000    -16.084000    -16.194000
H         -12.534000    -17.141000    -13.924000
H         -13.229000    -16.726000    -11.595000
H         -15.935000    -13.758000    -13.038000
H         -15.034000    -17.016000    -10.024000
H         -19.554000    -11.167000     -4.970000
H         -18.448000    -12.761000     -3.196000
H         -14.583000    -16.666000     -0.641000
H         -16.896000    -15.647000      0.609000
H         -13.061000    -17.007000    -16.368000
C         -12.703000    -14.949000    -16.761000
H         -14.584000    -16.094000    -16.731000
H         -11.987000    -14.607000    -16.004000
H         -13.335000    -14.052000    -16.749000
C         -12.107000    -15.196000    -18.110000
H         -12.924000    -15.337000    -18.829000
C         -11.115000    -16.377000    -18.254000
H         -11.587000    -14.322000    -18.522000
H         -10.735000    -16.495000    -19.277000
H         -11.595000    -17.361000    -18.177000
C          -9.942000    -16.232000    -17.246000
H         -10.226000    -16.120000    -16.193000
C          -8.964000    -15.092000    -17.579000
H          -9.363000    -17.164000    -17.245000
H          -8.081000    -15.058000    -16.930000
H          -9.460000    -14.144000    -17.336000
H          -8.610000    -15.133000    -18.616000
$end

--------------------------------------------------------------

             Standard Nuclear Orientation (Angstroms)
    I     Atom           X                Y                Z
 ----------------------------------------------------------------
    1      C      -4.6788477847     2.4200300886     0.9205005186
    2      C      -4.1367709774     1.5524655033     0.0354923686
    3      N      -4.0098285076     3.2525526067     1.7033992756
    4      C      -2.7021300830     1.4502170375    -0.1034275911
    5      C      -2.6472595178     3.2615133466     1.5701496857
    6      C      -1.9615507569     2.4092406880     0.6425033034
    7      C      -0.4760465488     2.5036599780     0.4754636507
    8      C       0.3815043292     1.3775209913     0.3466091819
    9      C       0.1642695789     3.7552489687     0.2778725196
   10      N       1.7159441491     1.4589550946     0.3013559636
   11      N      -0.4573775942     4.9787877126     0.2178997411
   12      C       1.5408855824     3.8413189655    -0.0479331502
   13      C       2.3200719226     2.6103522383     0.0030821784
   14      S       0.6198792782     6.1099256055    -0.0154169926
   15      N       1.9898506746     5.1416347751    -0.0980743635
   16      C       3.8040204040     2.7579117747    -0.0170197530
   17      S       4.8686167161     4.0664547042    -0.3908112645
   18      C       4.6100458004     1.5906111508    -0.1028411604
   19      C       6.3229165732     3.0888846817    -0.4867580030
   20      S       4.1038049842    -0.0831343351    -0.2377236437
   21      C       5.9563421841     1.7736270826    -0.4904546481
   22      C       7.5687119178     3.6280617484    -0.6981392941
   23      C       5.7445269323    -0.5341057634    -0.7863421448
   24      C       6.5966405013     0.5685832510    -0.8824067229
   25      N       8.5752319502     2.8951301750    -0.4188710840
   26      S       7.8614295635     5.2886572409    -1.1035427844
   27      C       9.7575877990     3.6147003301    -0.5899688300
   28      C       9.5580138915     4.8627565383    -1.0917017837
   29      C      -6.1009141865     2.3122786929     1.3029999115
   30      H      -4.8287105160     1.0194157679    -0.6096794338
   31      H      -2.2101157581     0.7528674448    -0.7744413389
   32      H      -2.1108267254     3.8293795931     2.3289677043
   33      H       0.0113337495     0.3543827229     0.3891982151
   34      H       5.9107302650    -1.5784535421    -1.0177771667
   35      H       7.6413841495     0.4980695443    -1.1630871936
   36      H      10.6209998827     3.0061138314    -0.3564435693
   37      H      10.2541311486     5.6210327850    -1.4248022160
   38      H      -6.3141768645     1.2513799816     1.1224924200
   39      C      -7.0080737334     3.0800585325     0.4203586060
   40      H      -6.2204334423     2.6274659775     2.3472513770
   41      H      -6.9903318471     2.8240366496    -0.6468236750
   42      H      -6.4714842103     4.0361972607     0.4574990960
   43      C      -8.5148694384     3.2975400080     0.9593748501
   44      H      -9.1506978848     2.4115730168     0.8433891737
   45      C      -9.2369314146     4.4186391447     0.1313994713
   46      H      -8.5423631632     3.6260552988     2.0052590688
   47      H      -9.2368345391     4.0107795141    -0.8871006575
   48      H      -8.6230539153     5.3285001305     0.1307651111
   49      C     -10.6812968307     4.6468622541     0.6340691016
   50      H     -11.3455827455     3.8418001243     0.2954613780
   51      C     -11.2751855553     5.9672312489    -0.0432904042
   52      H     -10.8347373074     4.7030918568     1.7193604228
   53      H     -10.9608600240     6.8604843436     0.5108308543
   54      H     -12.3678897049     5.9310576239     0.0411081173
   55      H     -10.9466568073     5.8413397253    -1.0827307276
   56      C      -6.2944829836    -1.4625188140    -0.5737099494
   57      C      -5.7184056221    -1.6027263300     0.6835906216
   58      N      -5.5374428621    -1.5926731591    -1.6763391259
   59      C      -4.3716462228    -2.0301129633     0.7858490500
   60      C      -4.2627900434    -1.9760626689    -1.5825005648
   61      C      -3.5967909295    -2.1249132534    -0.3631127333
   62      C      -2.1153028358    -2.4659047372    -0.3073737314
   63      C      -1.2861026554    -1.9404617914     0.7572735208
   64      C      -1.4897748554    -3.4150330696    -1.1149399234
   65      N      -0.0415047902    -2.2960103076     0.9967300026
   66      N      -2.0342248943    -4.2370065354    -2.0516574777
   67      C      -0.0964698933    -3.6056743271    -0.9990382689
   68      C       0.6317387433    -2.9599331833     0.0328210029
   69      S      -0.8188270207    -5.2225008537    -2.6150986524
   70      N       0.4118864888    -4.6352621700    -1.7513950077
   71      C       2.0288265734    -3.1543173647     0.2569847488
   72      S       2.7097671999    -3.1100091477     1.8987129983
   73      C       2.9673302121    -3.4803042292    -0.7116495909
   74      C       4.2226795912    -3.6311456112     1.2967504723
   75      S       2.9943807103    -3.4365631887    -2.4236764575
   76      C       4.2112469121    -3.6409105646    -0.0952261581
   77      C       5.4026538735    -3.8253124392     2.1824304010
   78      C       4.7252101232    -3.9743792924    -2.3774230000
   79      C       5.1661372903    -3.9296001277    -1.0878059795
   80      N       5.1634184805    -4.1184865630     3.4736179783
   81      S       7.0563455207    -3.8715932910     1.6936727734
   82      C       6.3062760436    -4.2743220969     4.1827899439
   83      C       7.4809811769    -4.1228755920     3.4329254188
   84      C      -7.7201442844    -1.0438751583    -0.7185248143
   85      H      -6.3470394097    -1.6374832801     1.5677407873
   86      H      -3.9496043590    -2.1742178062     1.7768154770
   87      H      -3.6815263417    -2.1732121673    -2.4825086672
   88      H      -1.7269332314    -1.2821755398     1.5044927752
   89      H       5.2940573720    -4.0943866798    -3.2893862857
   90      H       6.1893102763    -4.1662814892    -0.8186573703
   91      H       6.2614256857    -4.5514933996     5.2279686436
   92      H       8.5454537495    -4.1843374899     3.6157520509
   93      H      -8.2130939556    -0.6885727533     0.1943398102
   94      C      -8.5793221380    -2.2777754290    -1.1688508493
   95      H      -7.7257135455    -0.2751060020    -1.5016473895
   96      H      -8.2410737506    -3.1965351605    -0.6747480421
   97      H      -8.1975590619    -2.5254937025    -2.1673845797
   98      C     -10.0621087114    -2.0844628154    -1.1683914060
   99      H     -10.3036906762    -1.2571828646    -1.8477860168
  100      C     -10.7539482313    -1.8220930398     0.1925204867
  101      H     -10.6095163527    -2.9206763415    -1.6212841229
  102      H     -11.8385112588    -1.6797361177     0.1013582898
  103      H     -10.5260090115    -0.8346426825     0.6139116398
  104      C     -10.4324651940    -2.9615443181     1.1981632867
  105      H      -9.3686645587    -3.1690402944     1.3633378250
  106      C     -11.1133959020    -4.3013365552     0.8691296528
  107      H     -10.7797778557    -2.6589726598     2.1939997726
  108      H     -10.9725934714    -5.0731584447     1.6349701364
  109      H     -10.5923581385    -4.7389477421     0.0084409181
  110      H     -12.1919725026    -4.1937324399     0.7034194505
 ----------------------------------------------------------------

   10   -5663.4964887599      4.83E-06 Convergence criterion met
 Total energy in the final basis set = -5663.4964887599

                    Orbital Energies (a.u.)
 --------------------------------------------------------------

 Alpha MOs
 -- Occupied --
-88.992 -88.983 -88.932 -88.928 -88.922 -88.919 -88.916 -88.898
-14.388 -14.379 -14.377 -14.371 -14.348 -14.346 -14.345 -14.334
-14.331 -14.322 -10.276 -10.265 -10.260 -10.257 -10.256 -10.255
-10.250 -10.249 -10.247 -10.243 -10.240 -10.238 -10.238 -10.237
-10.236 -10.236 -10.232 -10.231 -10.231 -10.229 -10.228 -10.228
-10.228 -10.225 -10.223 -10.221 -10.216 -10.215 -10.215 -10.215
-10.213 -10.212 -10.209 -10.208 -10.201 -10.199 -10.193 -10.192
-10.188 -10.182 -10.180 -10.180 -10.179 -10.179 -10.178 -10.176
-10.175 -10.172 -10.171 -10.168  -8.047  -8.038  -7.993  -7.987
 -7.984  -7.979  -7.977  -7.957  -6.012  -6.007  -6.005  -6.003
 -5.998  -5.996  -5.957  -5.954  -5.951  -5.950  -5.948  -5.947
 -5.944  -5.944  -5.943  -5.941  -5.941  -5.939  -5.938  -5.936
 -5.933  -5.922  -5.918  -5.914  -1.032  -1.022  -0.981  -0.968
 -0.966  -0.956  -0.946  -0.935  -0.923  -0.908  -0.898  -0.883
 -0.855  -0.837  -0.832  -0.828  -0.816  -0.810  -0.810  -0.804
 -0.802  -0.801  -0.796  -0.791  -0.786  -0.779  -0.766  -0.763
 -0.752  -0.748  -0.744  -0.735  -0.733  -0.716  -0.713  -0.704
 -0.698  -0.690  -0.675  -0.670  -0.662  -0.649  -0.644  -0.638
 -0.635  -0.632  -0.627  -0.625  -0.614  -0.606  -0.604  -0.603
 -0.596  -0.593  -0.582  -0.578  -0.576  -0.569  -0.568  -0.554
 -0.551  -0.546  -0.545  -0.532  -0.525  -0.521  -0.519  -0.514
 -0.511  -0.507  -0.500  -0.493  -0.488  -0.484  -0.480  -0.473
 -0.470  -0.469  -0.466  -0.463  -0.461  -0.457  -0.456  -0.452
 -0.448  -0.445  -0.444  -0.441  -0.439  -0.437  -0.432  -0.428
 -0.427  -0.425  -0.425  -0.422  -0.418  -0.418  -0.415  -0.413
 -0.410  -0.410  -0.407  -0.403  -0.403  -0.402  -0.398  -0.397
 -0.396  -0.393  -0.390  -0.389  -0.386  -0.384  -0.383  -0.380
 -0.380  -0.377  -0.375  -0.370  -0.362  -0.360  -0.359  -0.355
 -0.354  -0.352  -0.351  -0.348  -0.343  -0.343  -0.341  -0.337
 -0.335  -0.332  -0.331  -0.327  -0.324  -0.324  -0.322  -0.318
 -0.313  -0.312  -0.307  -0.303  -0.301  -0.298  -0.298  -0.296
 -0.296  -0.293  -0.292  -0.288  -0.286  -0.285  -0.282  -0.278
 -0.275  -0.268  -0.266  -0.257  -0.256  -0.251  -0.249  -0.248
 -0.246  -0.238  -0.236  -0.225  -0.198  -0.189

          Ground-State Mulliken Net Atomic Charges

     Atom                 Charge (a.u.)
  ----------------------------------------
      1 C                     0.293174
      2 C                    -0.123676
      3 N                    -0.492413
      4 C                    -0.080304
      5 C                     0.094332
      6 C                     0.016366
      7 C                     0.015008
      8 C                     0.048580
      9 C                     0.201225
     10 N                    -0.496663
     11 N                    -0.524986
     12 C                     0.199470
     13 C                     0.294049
     14 S                     0.610125
     15 N                    -0.574208
     16 C                    -0.195324
     17 S                     0.328686
     18 C                    -0.176785
     19 C                    -0.245929
     20 S                     0.305143
     21 C                     0.174111
     22 C                     0.079857
     23 C                    -0.327370
     24 C                    -0.041352
     25 N                    -0.433806
     26 S                     0.261584
     27 C                     0.121146
     28 C                    -0.309710
     29 C                    -0.223445
     30 H                     0.102797
     31 H                     0.107590
     32 H                     0.110131
     33 H                     0.115870
     34 H                     0.124322
     35 H                     0.112887
     36 H                     0.114964
     37 H                     0.134062
     38 H                     0.095519
     39 C                    -0.187060
     40 H                     0.116868
     41 H                     0.090272
     42 H                     0.106889
     43 C                    -0.186009
     44 H                     0.090359
     45 C                    -0.171765
     46 H                     0.094546
     47 H                     0.092088
     48 H                     0.098918
     49 C                    -0.188645
     50 H                     0.093217
     51 C                    -0.320347
     52 H                     0.092142
     53 H                     0.107737
     54 H                     0.095675
     55 H                     0.107580
     56 C                     0.271806
     57 C                    -0.118930
     58 N                    -0.487110
     59 C                    -0.084454
     60 C                     0.080588
     61 C                     0.057699
     62 C                    -0.007774
     63 C                     0.041761
     64 C                     0.268816
     65 N                    -0.492155
     66 N                    -0.581197
     67 C                     0.167512
     68 C                     0.281847
     69 S                     0.616706
     70 N                    -0.521563
     71 C                    -0.231797
     72 S                     0.379485
     73 C                    -0.092438
     74 C                    -0.173937
     75 S                     0.271647
     76 C                     0.126912
     77 C                     0.043742
     78 C                    -0.293319
     79 C                    -0.109105
     80 N                    -0.426145
     81 S                     0.270628
     82 C                     0.140863
     83 C                    -0.319719
     84 C                    -0.224067
     85 H                     0.094609
     86 H                     0.102321
     87 H                     0.114386
     88 H                     0.120608
     89 H                     0.137404
     90 H                     0.108310
     91 H                     0.123127
     92 H                     0.139948
     93 H                     0.110805
     94 C                    -0.188662
     95 H                     0.119061
     96 H                     0.096293
     97 H                     0.114536
     98 C                    -0.177898
     99 H                     0.088351
    100 C                    -0.182632
    101 H                     0.100502
    102 H                     0.091039
    103 H                     0.088652
    104 C                    -0.178154
    105 H                     0.095174
    106 C                    -0.316896
    107 H                     0.087500
    108 H                     0.098999
    109 H                     0.105564
    110 H                     0.103258
  ----------------------------------------
  Sum of atomic charges =     0.000000

                    Cartesian Multipole Moments
 -----------------------------------------------------------------
    Charge (ESU x 10^10)
                 0.0000
    Dipole Moment (Debye)
         X       3.7272      Y      -2.4397      Z      -1.4359
       Tot       4.6804
    Quadrupole Moments (Debye-Ang)
        XX    -378.7343     XY       1.1876     YY    -433.6224
        XZ     -10.2372     YZ      -2.3202     ZZ    -441.3019

 Total job time:  108.49s(wall), 1180.36s(cpu)
        *  Thank you very much for using Q-Chem.  Have a nice day.  *
