 Q-Chem 4.4, Q-Chem, Inc., Pleasanton, CA (2016)
 Q-Chem 4.4.2 for Intel X86 Linux

User input:
--------------------------------------------------------------
$comment
SP
$end

$rem
MEM_STATIC 5000
MEM_TOTAL 20000
JOBTYPE SP
EXCHANGE B3LYP
BASIS 6-31g(d,p)
$end

$molecule
0 1
C         -16.299000    -19.484000    -13.906000
C         -16.548000    -18.209000    -13.529000
N         -16.676000    -20.575000    -13.257000
C         -17.262000    -17.935000    -12.303000
C         -17.422000    -20.390000    -12.124000
C         -17.776000    -19.086000    -11.643000
C         -18.656000    -18.930000    -10.441000
C         -18.437000    -17.970000     -9.416000
C         -19.877000    -19.645000    -10.325000
N         -19.162000    -17.900000     -8.294000
N         -20.386000    -20.527000    -11.247000
C         -20.795000    -19.381000     -9.278000
C         -20.363000    -18.476000     -8.220000
S         -21.764000    -21.099000    -10.729000
N         -21.865000    -20.247000     -9.285000
C         -21.187000    -18.460000     -6.977000
S         -22.756000    -19.063000     -6.577000
C         -20.891000    -17.504000     -5.968000
C         -22.900000    -18.189000     -5.062000
S         -19.669000    -16.246000     -5.975000
C         -21.893000    -17.269000     -5.000000
C         -23.972000    -18.339000     -4.216000
C         -20.510000    -15.423000     -4.629000
C         -21.678000    -16.086000     -4.245000
N         -23.827000    -17.933000     -3.015000
S         -25.409000    -19.229000     -4.604000
C         -24.958000    -18.245000     -2.261000
C         -25.954000    -18.808000     -2.996000
C         -15.311000    -19.775000    -14.964000
H         -16.266000    -17.430000    -14.231000
H         -17.465000    -16.934000    -11.935000
H         -17.582000    -21.284000    -11.523000
H         -17.585000    -17.292000     -9.424000
H         -20.070000    -14.501000     -4.271000
H         -22.309000    -15.765000     -3.424000
H         -24.850000    -17.907000     -1.239000
H         -26.972000    -19.071000     -2.741000
H         -14.646000    -18.904000    -14.912000
C         -15.891000    -19.781000    -16.326000
H         -14.821000    -20.733000    -14.749000
H         -16.383000    -18.857000    -16.656000
H         -16.733000    -20.454000    -16.122000
C         -14.973000    -20.420000    -17.491000
H         -14.175000    -19.750000    -17.833000
C         -15.833000    -20.704000    -18.773000
H         -14.535000    -21.382000    -17.199000
H         -16.191000    -19.706000    -19.055000
H         -16.706000    -21.312000    -18.503000
C         -14.974000    -21.321000    -19.901000
H         -14.348000    -20.557000    -20.379000
C         -15.931000    -21.843000    -21.070000
H         -14.279000    -22.124000    -19.624000
H         -16.313000    -22.845000    -20.838000
H         -15.328000    -21.955000    -21.979000
H         -16.639000    -21.009000    -21.156000
C         -18.287000     -8.286000    -10.207000
C         -19.302000     -9.035000     -9.575000
N         -17.595000     -8.752000    -11.310000
C         -19.597000    -10.280000    -10.027000
C         -17.928000     -9.999000    -11.675000
C         -18.910000    -10.861000    -11.113000
C         -19.173000    -12.200000    -11.783000
C         -18.788000    -12.546000    -13.099000
C         -19.609000    -13.292000    -10.986000
N         -18.949000    -13.753000    -13.643000
N         -19.728000    -13.246000     -9.621000
C         -19.745000    -14.545000    -11.526000
C         -19.584000    -14.731000    -12.948000
S         -20.345000    -14.698000     -9.232000
N         -20.288000    -15.465000    -10.695000
C         -19.926000    -15.993000    -13.614000
S         -20.913000    -17.362000    -13.069000
C         -19.372000    -16.398000    -14.840000
C         -20.719000    -18.280000    -14.562000
S         -18.213000    -15.530000    -15.734000
C         -19.829000    -17.616000    -15.356000
C         -21.330000    -19.500000    -14.927000
C         -18.284000    -16.819000    -16.953000
C         -19.146000    -17.831000    -16.602000
N         -22.071000    -20.004000    -13.911000
S         -21.974000    -19.940000    -16.519000
C         -23.079000    -20.805000    -14.375000
C         -23.237000    -20.868000    -15.700000
C         -17.949000     -6.872000     -9.856000
H         -19.906000     -8.664000     -8.752000
H         -20.379000    -10.885000     -9.578000
H         -17.335000    -10.417000    -12.487000
H         -18.401000    -11.712000    -13.683000
H         -17.594000    -16.753000    -17.783000
H         -19.282000    -18.720000    -17.207000
H         -23.812000    -21.252000    -13.716000
H         -23.919000    -21.557000    -16.182000
H         -17.594000     -6.804000     -8.821000
C         -19.116000     -5.907000     -9.782000
H         -17.262000     -6.349000    -10.533000
H         -18.803000     -4.890000     -9.513000
H         -19.647000     -6.222000     -8.875000
C         -19.955000     -5.954000    -11.083000
H         -19.403000     -5.749000    -12.008000
C         -21.097000     -4.903000    -10.986000
H         -20.439000     -6.934000    -11.177000
H         -21.454000     -4.747000    -12.011000
H         -20.748000     -3.904000    -10.698000
C         -22.349000     -5.473000    -10.210000
H         -22.843000     -6.287000    -10.755000
C         -23.410000     -4.379000    -10.080000
H         -22.061000     -5.755000     -9.190000
H         -22.918000     -3.557000     -9.544000
H         -24.413000     -4.621000     -9.707000
H         -23.662000     -3.916000    -11.042000
$end

--------------------------------------------------------------

             Standard Nuclear Orientation (Angstroms)
    I     Atom           X                Y                Z
 ----------------------------------------------------------------
    1      C       5.0508481688     0.7087325734     2.4186440675
    2      C       3.8438483126     1.2968666902     2.2543132796
    3      N       5.2831453360    -0.5945270760     2.4527514299
    4      C       2.6501247517     0.4930089083     2.1247573973
    5      C       4.2053287716    -1.4167920745     2.2613833923
    6      C       2.8815301439    -0.9087064202     2.0457467504
    7      C       1.7432705777    -1.8414419774     1.7666239456
    8      C       0.4457794694    -1.7014079476     2.3297343204
    9      C       1.8493424538    -2.8578459785     0.7811323608
   10      N      -0.5388819100    -2.5911707238     2.1618856685
   11      N       2.9485165797    -3.1089153018    -0.0036411326
   12      C       0.7290644715    -3.6336603545     0.3916220318
   13      C      -0.4967894377    -3.4762249840     1.1646092874
   14      S       2.6459986169    -4.3234594144    -0.9668428147
   15      N       1.0617933031    -4.6286699745    -0.4995302452
   16      C      -1.5500117887    -4.5131368928     0.9650663783
   17      S      -1.8016974589    -5.7468196676    -0.2181711865
   18      C      -2.8140906743    -4.3386205818     1.5905914602
   19      C      -3.4597475351    -6.0948195140     0.2396530720
   20      S      -3.3721000259    -3.0021060654     2.5796574394
   21      C      -3.8832054563    -5.1173587138     1.0937881743
   22      C      -4.1965756201    -7.0983222943    -0.3412656341
   23      C      -5.0624529893    -3.5341930130     2.3431910796
   24      C      -5.1576327201    -4.6568832868     1.5175056868
   25      N      -5.2433248761    -7.4849561659     0.2776788259
   26      S      -3.6882054169    -8.0114462923    -1.7252372020
   27      C      -5.8208835309    -8.5690209582    -0.3828138134
   28      C      -5.1955140015    -8.8814846059    -1.5492140108
   29      C       6.2154681646     1.4971507613     2.8683617862
   30      H       3.8403426024     2.3764737211     2.1376712251
   31      H       1.6525611875     0.9084557485     2.0203310674
   32      H       4.3881499948    -2.4731585710     2.4529642508
   33      H       0.1979699541    -0.9091161503     3.0343733430
   34      H      -5.8315251397    -2.9380234422     2.8174883180
   35      H      -6.0927454516    -5.1523713645     1.2823488365
   36      H      -6.7103756539    -8.9088733503     0.1306996866
   37      H      -5.4454299414    -9.5880827086    -2.3294570141
   38      H       5.7443101863     2.3231039332     3.4155194575
   39      C       6.9772323662     2.1092782271     1.7563836988
   40      H       6.8687362297     0.8623090304     3.4801671571
   41      H       6.4238654236     2.7888709005     1.0955669124
   42      H       7.0934925188     1.2054675022     1.1455492282
   43      C       8.4382787185     2.6901350221     2.1254622001
   44      H       8.4046998500     3.6595682590     2.6370671833
   45      C       9.2684818154     2.9558424220     0.8201107549
   46      H       9.0295439502     1.9871711082     2.7244606656
   47      H       8.6661167270     3.7070403196     0.2942305224
   48      H       9.2872835254     2.0471232869     0.2048311199
   49      C      10.6742006732     3.5087510162     1.1505658639
   50      H      10.6210037688     4.5655611501     1.4410455194
   51      C      11.5703042837     3.5021588555    -0.1730084116
   52      H      11.2309187920     3.0200640237     1.9603886591
   53      H      12.0170525905     2.5127846680    -0.3320891066
   54      H      12.4107340831     4.1893442569    -0.0184510553
   55      H      10.8612368277     3.8925687790    -0.9139668682
   56      C      -5.7569479091     5.7107150632     1.3224396564
   57      C      -5.9176790728     4.4317056218     0.7488977296
   58      N      -4.5167089531     6.2958165272     1.5015837571
   59      C      -4.8226117024     3.7150331363     0.3903422906
   60      C      -3.4880804258     5.5114135109     1.1469596452
   61      C      -3.5146180504     4.2063533015     0.5818706220
   62      C      -2.2002459580     3.5663690176     0.1649340334
   63      C      -0.9814529564     4.2554789707    -0.0337317456
   64      C      -2.0811880018     2.1516218432     0.2105918452
   65      N       0.1830975309     3.6695949469    -0.3152776090
   66      N      -3.0540279080     1.3152044918     0.6938004246
   67      C      -0.8806733287     1.5396114443    -0.0430078223
   68      C       0.2388990641     2.3261575468    -0.5018148467
   69      S      -2.4582827241    -0.1732414598     0.4293569995
   70      N      -0.9322261754     0.1880621811    -0.0926756522
   71      C       1.4763144911     1.7100964228    -0.9941924988
   72      S       1.8141914827     0.0533663810    -1.5293931221
   73      C       2.7201459130     2.3634651176    -0.9973138073
   74      C       3.5012874604     0.3747364189    -1.9291898966
   75      S       3.0096496307     3.9373132790    -0.4184091846
   76      C       3.7970251825     1.6465732986    -1.5311922194
   77      C       4.4390114624    -0.4902675021    -2.5353152241
   78      C       4.7047630312     3.7341316622    -0.9060881670
   79      C       4.9548082181     2.4933254967    -1.4429926873
   80      N       3.9220693697    -1.7293629635    -2.7163298930
   81      S       5.6408550167    -0.0701760295    -3.7689664008
   82      C       4.5300473278    -2.3792720647    -3.7560134808
   83      C       5.4163342066    -1.6785701552    -4.4688040548
   84      C      -6.8916773386     6.6240233727     1.6617006971
   85      H      -6.8820775662     3.9802171692     0.5347022042
   86      H      -4.9016420808     2.7327392450    -0.0657310703
   87      H      -2.5010126113     5.9189060048     1.3599479009
   88      H      -1.0748496502     5.3404063678    -0.0094294679
   89      H       5.3906601728     4.5311655378    -0.6538222113
   90      H       5.9442235347     2.1792482175    -1.7548496962
   91      H       4.2132983365    -3.3588730007    -4.0898264265
   92      H       6.0424949173    -2.1210084972    -5.2332254556
   93      H      -7.5371124581     6.1731503737     2.4245906271
   94      C      -7.9178905624     6.8458818297     0.5679661569
   95      H      -6.6279711443     7.6520006291     1.9401765547
   96      H      -8.7269480977     7.5178361373     0.8818487991
   97      H      -8.4398704799     5.8824138677     0.5122754758
   98      C      -7.2352378482     7.2989916018    -0.7463427132
   99      H      -6.6189316902     8.2027515922    -0.6705891692
  100      C      -8.3304157754     7.5769922457    -1.8147410237
  101      H      -6.6129977488     6.4859988053    -1.1404898577
  102      H      -7.8487341278     8.1802204095    -2.5935276264
  103      H      -9.1302285215     8.2375781189    -1.4588310978
  104      C      -8.7736562146     6.2528980972    -2.5529094320
  105      H      -7.9694183307     5.8272799757    -3.1658593817
  106      C      -9.8998985520     6.5705399696    -3.5378656942
  107      H      -9.1818131492     5.5384220929    -1.8277887828
  108      H     -10.7042473951     7.0065720297    -2.9312826569
  109      H     -10.2392602434     5.8128056796    -4.2550646820
  110      H      -9.6475880048     7.3914039786    -4.2203894422
 ----------------------------------------------------------------

   10   -5663.4767557268      2.87E-06 Convergence criterion met
 Total energy in the final basis set = -5663.4767557268

                    Orbital Energies (a.u.)
 --------------------------------------------------------------

 Alpha MOs
 -- Occupied --
-88.986 -88.981 -88.934 -88.926 -88.924 -88.922 -88.911 -88.905
-14.387 -14.382 -14.374 -14.368 -14.354 -14.349 -14.347 -14.336
-14.334 -14.322 -10.272 -10.269 -10.266 -10.258 -10.252 -10.252
-10.248 -10.248 -10.243 -10.243 -10.242 -10.241 -10.238 -10.235
-10.233 -10.233 -10.231 -10.231 -10.229 -10.228 -10.228 -10.227
-10.227 -10.225 -10.224 -10.224 -10.222 -10.217 -10.216 -10.215
-10.209 -10.209 -10.208 -10.206 -10.205 -10.199 -10.199 -10.192
-10.182 -10.181 -10.180 -10.180 -10.180 -10.178 -10.177 -10.177
-10.175 -10.173 -10.168 -10.168  -8.041  -8.036  -7.994  -7.986
 -7.984  -7.982  -7.971  -7.964  -6.006  -6.001  -6.000  -5.999
 -5.996  -5.994  -5.958  -5.955  -5.951  -5.950  -5.949  -5.947
 -5.947  -5.945  -5.943  -5.943  -5.941  -5.939  -5.935  -5.932
 -5.929  -5.928  -5.925  -5.921  -1.036  -1.019  -0.983  -0.969
 -0.960  -0.958  -0.936  -0.935  -0.918  -0.912  -0.901  -0.881
 -0.849  -0.842  -0.831  -0.828  -0.812  -0.811  -0.810  -0.804
 -0.803  -0.803  -0.802  -0.791  -0.784  -0.780  -0.773  -0.764
 -0.756  -0.746  -0.741  -0.735  -0.724  -0.718  -0.714  -0.706
 -0.700  -0.692  -0.677  -0.671  -0.652  -0.645  -0.645  -0.638
 -0.637  -0.629  -0.626  -0.621  -0.614  -0.604  -0.604  -0.598
 -0.597  -0.586  -0.584  -0.580  -0.580  -0.572  -0.568  -0.565
 -0.547  -0.546  -0.541  -0.533  -0.526  -0.520  -0.518  -0.513
 -0.507  -0.501  -0.500  -0.496  -0.490  -0.485  -0.481  -0.471
 -0.470  -0.468  -0.467  -0.462  -0.459  -0.456  -0.452  -0.449
 -0.445  -0.444  -0.443  -0.442  -0.440  -0.439  -0.436  -0.432
 -0.430  -0.429  -0.425  -0.424  -0.419  -0.417  -0.414  -0.412
 -0.412  -0.409  -0.405  -0.404  -0.402  -0.401  -0.398  -0.396
 -0.393  -0.391  -0.390  -0.387  -0.385  -0.384  -0.383  -0.383
 -0.379  -0.377  -0.377  -0.363  -0.359  -0.357  -0.356  -0.355
 -0.351  -0.349  -0.348  -0.346  -0.343  -0.339  -0.337  -0.337
 -0.336  -0.334  -0.331  -0.329  -0.326  -0.325  -0.323  -0.320
 -0.315  -0.308  -0.307  -0.306  -0.303  -0.301  -0.298  -0.297
 -0.295  -0.293  -0.291  -0.288  -0.287  -0.284  -0.281  -0.278
 -0.276  -0.269  -0.266  -0.261  -0.259  -0.257  -0.253  -0.247
 -0.245  -0.240  -0.233  -0.227  -0.197  -0.192

          Ground-State Mulliken Net Atomic Charges

     Atom                 Charge (a.u.)
  ----------------------------------------
      1 C                     0.296257
      2 C                    -0.124319
      3 N                    -0.493845
      4 C                    -0.071104
      5 C                     0.095686
      6 C                     0.019733
      7 C                     0.024512
      8 C                     0.058869
      9 C                     0.208651
     10 N                    -0.508648
     11 N                    -0.514125
     12 C                     0.208996
     13 C                     0.288338
     14 S                     0.619576
     15 N                    -0.580393
     16 C                    -0.191081
     17 S                     0.332637
     18 C                    -0.168029
     19 C                    -0.245894
     20 S                     0.276571
     21 C                     0.174741
     22 C                     0.079187
     23 C                    -0.326048
     24 C                    -0.038845
     25 N                    -0.433701
     26 S                     0.261944
     27 C                     0.121488
     28 C                    -0.309336
     29 C                    -0.215055
     30 H                     0.101628
     31 H                     0.108148
     32 H                     0.110007
     33 H                     0.109866
     34 H                     0.131949
     35 H                     0.117920
     36 H                     0.116986
     37 H                     0.135057
     38 H                     0.089769
     39 C                    -0.190176
     40 H                     0.118584
     41 H                     0.090736
     42 H                     0.103103
     43 C                    -0.184540
     44 H                     0.091364
     45 C                    -0.171707
     46 H                     0.095328
     47 H                     0.085799
     48 H                     0.096686
     49 C                    -0.187594
     50 H                     0.094242
     51 C                    -0.320628
     52 H                     0.093877
     53 H                     0.107712
     54 H                     0.096816
     55 H                     0.105298
     56 C                     0.265971
     57 C                    -0.108978
     58 N                    -0.481060
     59 C                    -0.061841
     60 C                     0.058691
     61 C                     0.064510
     62 C                     0.018828
     63 C                     0.077766
     64 C                     0.199624
     65 N                    -0.535709
     66 N                    -0.541252
     67 C                     0.192835
     68 C                     0.284631
     69 S                     0.643035
     70 N                    -0.558075
     71 C                    -0.219738
     72 S                     0.362062
     73 C                    -0.142799
     74 C                    -0.222160
     75 S                     0.291144
     76 C                     0.184891
     77 C                     0.040878
     78 C                    -0.312843
     79 C                    -0.082333
     80 N                    -0.424551
     81 S                     0.276709
     82 C                     0.127298
     83 C                    -0.301976
     84 C                    -0.232916
     85 H                     0.096980
     86 H                     0.109769
     87 H                     0.088418
     88 H                     0.115619
     89 H                     0.130799
     90 H                     0.109528
     91 H                     0.116363
     92 H                     0.138896
     93 H                     0.103054
     94 C                    -0.183372
     95 H                     0.120627
     96 H                     0.094776
     97 H                     0.088863
     98 C                    -0.174180
     99 H                     0.097790
    100 C                    -0.181028
    101 H                     0.102770
    102 H                     0.086057
    103 H                     0.089591
    104 C                    -0.173706
    105 H                     0.098387
    106 C                    -0.320202
    107 H                     0.096681
    108 H                     0.099133
    109 H                     0.095834
    110 H                     0.096923
  ----------------------------------------
  Sum of atomic charges =     0.000000

                    Cartesian Multipole Moments
 -----------------------------------------------------------------
    Charge (ESU x 10^10)
                 0.0000
    Dipole Moment (Debye)
         X      -1.0086      Y      -1.1051      Z      -4.0917
       Tot       4.3566
    Quadrupole Moments (Debye-Ang)
        XX    -406.8203     XY      14.4120     YY    -431.7143
        XZ     -10.4838     YZ      20.6963     ZZ    -442.8342

 Total job time:  108.02s(wall), 1164.43s(cpu)
        *  Thank you very much for using Q-Chem.  Have a nice day.  *
