 Q-Chem 4.4, Q-Chem, Inc., Pleasanton, CA (2016)
 Q-Chem 4.4.2 for Intel X86 Linux

User input:
--------------------------------------------------------------
$comment
SP
$end

$rem
MEM_STATIC 5000
MEM_TOTAL 20000
JOBTYPE SP
EXCHANGE B3LYP
BASIS 6-31g(d,p)
$end

$molecule
0 1
C           3.269000     -3.900000     -9.310000
C           3.239000     -3.084000     -8.196000
N           2.834000     -3.485000    -10.478000
C           2.603000     -1.838000     -8.249000
C           2.203000     -2.304000    -10.637000
C           1.931000     -1.475000     -9.521000
C           1.166000     -0.223000     -9.594000
C           1.596000      0.969000     -9.007000
C          -0.077000     -0.144000    -10.246000
N           1.009000      2.170000     -9.060000
N          -0.770000     -1.130000    -10.834000
C          -0.734000      1.105000    -10.275000
C          -0.184000      2.313000     -9.719000
S          -2.239000     -0.526000    -11.280000
N          -1.982000      0.993000    -10.780000
C          -0.887000      3.608000     -9.646000
S          -2.526000      3.952000    -10.226000
C          -0.444000      4.747000     -8.964000
C          -2.393000      5.643000     -9.671000
S           1.050000      4.976000     -8.037000
C          -1.244000      5.838000     -9.026000
C          -3.303000      6.713000    -10.054000
C           0.352000      6.491000     -7.553000
C          -0.870000      6.816000     -8.164000
N          -4.076000      6.368000    -11.113000
S          -3.741000      8.209000     -9.287000
C          -4.886000      7.341000    -11.556000
C          -4.790000      8.378000    -10.678000
C           4.142000     -5.144000     -9.293000
H           3.659000     -3.414000     -7.250000
H           2.479000     -1.166000     -7.405000
H           1.975000     -2.101000    -11.682000
H           2.527000      0.898000     -8.446000
H           0.924000      7.147000     -6.910000
H          -1.465000      7.698000     -7.953000
H          -5.547000      7.156000    -12.393000
H          -5.373000      9.286000    -10.749000
H           5.023000     -4.967000     -9.922000
C           3.451000     -6.441000     -9.742000
H           4.506000     -5.340000     -8.277000
H           3.579000     -6.691000    -10.802000
H           2.381000     -6.373000     -9.512000
C           3.981000     -7.615000     -8.890000
H           5.067000     -7.674000     -9.033000
C           3.377000     -8.986000     -9.270000
H           3.713000     -7.351000     -7.859000
H           2.301000     -9.013000     -9.058000
H           3.802000     -9.745000     -8.602000
C           3.500000     -9.326000    -10.763000
H           2.790000     -8.702000    -11.319000
C           3.208000    -10.791000    -11.056000
H           4.546000     -9.069000    -10.970000
H           3.266000    -11.044000    -12.122000
H           2.194000    -11.056000    -10.735000
H           3.946000    -11.441000    -10.570000
C         -12.476000     22.108000    -13.906000
C         -12.734000     21.074000    -14.822000
N         -11.436000     22.088000    -12.990000
C         -11.877000     19.947000    -14.761000
C         -10.627000     20.989000    -12.942000
C         -10.765000     19.898000    -13.836000
C          -9.761000     18.785000    -13.760000
C          -8.445000     19.066000    -13.416000
C          -9.991000     17.407000    -14.126000
N          -7.478000     18.158000    -13.169000
N         -11.155000     16.901000    -14.577000
C          -9.009000     16.473000    -13.864000
C          -7.766000     16.824000    -13.405000
S         -10.936000     15.257000    -14.581000
N          -9.358000     15.176000    -14.153000
C          -6.655000     15.872000    -13.162000
S          -6.468000     14.269000    -14.018000
C          -5.584000     16.120000    -12.271000
C          -5.051000     13.957000    -13.028000
S          -5.318000     17.419000    -11.202000
C          -4.722000     15.095000    -12.268000
C          -4.457000     12.669000    -12.938000
C          -3.902000     16.400000    -10.629000
C          -3.720000     15.242000    -11.363000
N          -4.764000     11.779000    -13.924000
S          -3.283000     12.073000    -11.729000
C          -3.944000     10.652000    -13.720000
C          -3.101000     10.641000    -12.679000
C         -13.315000     23.353000    -13.881000
H         -13.475000     21.090000    -15.616000
H         -11.945000     19.208000    -15.554000
H          -9.908000     20.987000    -12.125000
H          -8.047000     20.034000    -13.114000
H          -3.257000     16.830000     -9.874000
H          -2.916000     14.534000    -11.200000
H          -4.097000      9.903000    -14.487000
H          -2.382000      9.887000    -12.387000
H         -12.712000     24.213000    -13.564000
C         -14.549000     23.175000    -12.986000
H         -13.745000     23.448000    -14.886000
H         -14.271000     22.916000    -11.957000
H         -15.158000     22.373000    -13.420000
C         -15.363000     24.472000    -12.949000
H         -14.670000     25.224000    -12.553000
C         -16.623000     24.413000    -12.034000
H         -15.652000     24.805000    -13.953000
H         -17.043000     25.422000    -11.941000
H         -16.319000     23.971000    -11.077000
C         -17.656000     23.434000    -12.699000
H         -17.814000     23.608000    -13.771000
C         -19.083000     23.518000    -12.066000
H         -17.393000     22.372000    -12.622000
H         -19.498000     24.527000    -12.182000
H         -19.073000     23.216000    -11.012000
H         -19.701000     22.779000    -12.592000
$end

--------------------------------------------------------------

             Standard Nuclear Orientation (Angstroms)
    I     Atom           X                Y                Z
 ----------------------------------------------------------------
    1      C     -15.3478787421     0.1313606947    -0.0167942972
    2      C     -14.7829671550     0.8807553821    -1.0302214042
    3      N     -14.6195573893    -0.3727295638     0.9533165306
    4      C     -13.3916476002     0.9978464033    -1.1319100922
    5      C     -13.2722368661    -0.3187346622     0.9494489289
    6      C     -12.5756347158     0.2451669140    -0.1475658643
    7      C     -11.1121015268     0.2562120281    -0.2740830974
    8      C     -10.3846511134     1.3980930887    -0.6165105197
    9      C     -10.3368544191    -0.9005582323    -0.0810326204
   10      N      -9.0563212136     1.5310871671    -0.7038675597
   11      N     -10.7565017880    -2.1463826804     0.1835548512
   12      C      -8.9356838618    -0.7910354414    -0.2122455296
   13      C      -8.2503142375     0.4448380062    -0.4838800260
   14      S      -9.4464503311    -3.1478674309     0.1336902844
   15      N      -8.3410697876    -2.0033169374    -0.1688787523
   16      C      -6.8004059150     0.5737510598    -0.7241096677
   17      S      -5.6101809511    -0.7394136188    -0.7196305694
   18      C      -6.1374956052     1.7289051735    -1.1540665198
   19      C      -4.3029782377     0.4122415884    -1.1070661764
   20      S      -6.8110799358     3.3313445973    -1.5037492940
   21      C      -4.7957869604     1.6327764430    -1.3112357911
   22      C      -2.8814939427     0.1157435712    -1.0014237384
   23      C      -5.2301670679     3.7078661303    -2.1166367547
   24      C      -4.2602754396     2.7073313674    -1.9420789774
   25      N      -2.6495919712    -1.0138008480    -0.2884119008
   26      S      -1.4844237229     0.7795130840    -1.7924697769
   27      C      -1.3530723059    -1.2995507256    -0.0974622604
   28      C      -0.6303832916    -0.4110745782    -0.8348900359
   29      C     -16.8510142202     0.1926952386     0.1994828590
   30      H     -15.4014087255     1.3461050218    -1.7925833502
   31      H     -12.8670542305     1.5125718003    -1.9313821442
   32      H     -12.8451736903    -0.7278445729     1.8634861956
   33      H     -10.9851286375     2.2814961711    -0.8299320208
   34      H      -5.0399570710     4.7050743249    -2.4912898924
   35      H      -3.2362729766     2.7537627543    -2.2966675868
   36      H      -1.0697369890    -2.1870996328     0.4536212501
   37      H       0.4475142425    -0.4312597732    -0.9192906509
   38      H     -17.0554299893     0.7859034470     1.0991768153
   39      C     -17.5564540650    -1.1673034251     0.3180124340
   40      H     -17.3361185783     0.7045530449    -0.6406619784
   41      H     -17.6929494089    -1.5304521960     1.3436712424
   42      H     -16.9946886894    -1.9118237013    -0.2586445014
   43      C     -18.9398223722    -1.0781163098    -0.3627355260
   44      H     -19.5134801258    -0.2885947760     0.1381621976
   45      C     -19.7612586008    -2.3849362537    -0.2832298246
   46      H     -18.7175715215    -0.8285221630    -1.4081006877
   47      H     -19.2754251006    -3.1887984383    -0.8499929128
   48      H     -20.7123688233    -2.2244556718    -0.8053077187
   49      C     -19.9145301107    -2.9358378026     1.1425307892
   50      H     -18.9516400858    -3.3572388439     1.4553821313
   51      C     -20.9838267024    -4.0147789761     1.2416708074
   52      H     -20.1891493201    -2.0360321615     1.7063996552
   53      H     -21.0871394589    -4.4371476400     2.2489742304
   54      H     -20.7472448692    -4.8570027165     0.5812541152
   55      H     -21.9736151377    -3.6066650672     1.0027107883
   56      C      15.3921172473    -0.5003766838     0.2960306572
   57      C      14.7579519209    -1.5284495191     1.0141369056
   58      N      14.7335096249     0.6088202186    -0.2108956011
   59      C      13.3570976255    -1.4057338163     1.1897703292
   60      C      13.3823266355     0.7035607923    -0.0379367822
   61      C      12.6365133720    -0.2512242190     0.6973925033
   62      C      11.1722473670     0.0005744274     0.9097212771
   63      C      10.7098449449     1.3028049234     1.0494808399
   64      C      10.1562159891    -1.0074164275     1.1030465877
   65      N       9.4167359841     1.6848270435     1.0993838980
   66      N      10.3643813734    -2.3382055533     1.1037360667
   67      C       8.8313576198    -0.6220483621     1.1426162187
   68      C       8.4499855405     0.6945282531     1.1532159099
   69      S       8.8481439561    -3.0102769857     1.0961806670
   70      N       7.9338114424    -1.6587540145     1.2273702731
   71      C       7.0478442188     1.1673882382     1.2536009110
   72      S       5.6963686581     0.2203590221     2.0371591237
   73      C       6.6065289431     2.4311422010     0.7946970552
   74      C       4.5896738639     1.5032903175     1.5738590873
   75      S       7.4431509935     3.6504262978    -0.0504821187
   76      C       5.2982393786     2.5918693073     1.0318114008
   77      C       3.1784313227     1.3428899575     1.6243191136
   78      C       5.7873349018     4.4366321475    -0.1595666386
   79      C       4.8030410526     3.7531626479     0.5309976680
   80      N       2.7013497250     0.3275887843     2.3989814122
   81      S       1.9207101323     2.3557300076     0.8578561724
   82      C       1.2998883005     0.4662329078     2.4277682599
   83      C       0.7306665999     1.4627907962     1.7368919826
   84      C      16.8735288030    -0.5207711110     0.0519510184
   85      H      15.2475687147    -2.3627365774     1.5081141314
   86      H      12.8642042164    -2.0916889407     1.8724969616
   87      H      12.9126106551     1.5348211598    -0.5602653178
   88      H      11.2995347428     2.2135185614     0.9520200185
   89      H       5.7326739332     5.4113655879    -0.6263180699
   90      H       3.7737444593     4.0814752191     0.6147137279
   91      H       0.8374042924    -0.2843312186     3.0566251868
   92      H      -0.3127837062     1.7406908556     1.6681605071
   93      H      17.2664040086     0.5025084727     0.0045593905
   94      C      17.2178447317    -1.3112793277    -1.2176978703
   95      H      17.3036525388    -1.1336519191     0.8540237625
   96      H      16.7200104433    -0.8962060525    -2.1026166222
   97      H      16.8932306114    -2.3466697645    -1.0594786671
   98      C      18.7296899961    -1.2812080448    -1.4618159038
   99      H      18.9746292587    -0.2166657567    -1.5583740446
  100      C      19.1861945848    -2.0248951454    -2.7528771173
  101      H      19.2930319815    -1.6590587920    -0.6002472064
  102      H      20.2472909318    -1.8112038293    -2.9304737498
  103      H      18.5283197958    -1.7060615916    -3.5709082456
  104      C      18.9525727607    -3.5624642656    -2.5313888693
  105      H      19.3234614566    -3.9392863548    -1.5696868945
  106      C      19.6525088793    -4.4552279502    -3.6070916318
  107      H      17.9018081428    -3.8745138342    -2.5696090794
  108      H      20.7389961781    -4.3039184373    -3.5867746211
  109      H      19.2483362003    -4.2678530598    -4.6089674206
  110      H      19.3985983951    -5.4946101866    -3.3622753076
 ----------------------------------------------------------------

   10   -5663.5016751583      4.75E-06 Convergence criterion met
 Total energy in the final basis set = -5663.5016751583

                    Orbital Energies (a.u.)
 --------------------------------------------------------------

 Alpha MOs
 -- Occupied --
-88.992 -88.986 -88.942 -88.930 -88.928 -88.922 -88.918 -88.914
-14.392 -14.386 -14.378 -14.371 -14.350 -14.350 -14.346 -14.338
-14.334 -14.320 -10.272 -10.271 -10.267 -10.260 -10.259 -10.253
-10.252 -10.249 -10.245 -10.242 -10.240 -10.237 -10.237 -10.236
-10.234 -10.234 -10.231 -10.231 -10.230 -10.230 -10.228 -10.227
-10.227 -10.227 -10.226 -10.226 -10.222 -10.222 -10.219 -10.217
-10.217 -10.216 -10.205 -10.204 -10.203 -10.201 -10.196 -10.194
-10.184 -10.183 -10.181 -10.181 -10.180 -10.177 -10.175 -10.175
-10.172 -10.172 -10.171 -10.170  -8.047  -8.041  -8.003  -7.991
 -7.985  -7.980  -7.978  -7.974  -6.012  -6.007  -6.006  -6.005
 -6.001  -5.999  -5.967  -5.964  -5.960  -5.955  -5.952  -5.949
 -5.948  -5.946  -5.944  -5.942  -5.942  -5.941  -5.939  -5.938
 -5.937  -5.935  -5.934  -5.930  -1.037  -1.030  -0.973  -0.957
 -0.953  -0.953  -0.939  -0.926  -0.924  -0.922  -0.904  -0.894
 -0.847  -0.846  -0.830  -0.828  -0.814  -0.813  -0.808  -0.807
 -0.806  -0.805  -0.794  -0.794  -0.785  -0.785  -0.768  -0.767
 -0.757  -0.752  -0.745  -0.744  -0.727  -0.721  -0.713  -0.710
 -0.695  -0.693  -0.677  -0.675  -0.653  -0.650  -0.646  -0.642
 -0.635  -0.631  -0.624  -0.623  -0.611  -0.608  -0.604  -0.601
 -0.596  -0.595  -0.588  -0.587  -0.581  -0.576  -0.563  -0.553
 -0.550  -0.548  -0.540  -0.539  -0.526  -0.525  -0.524  -0.521
 -0.506  -0.504  -0.500  -0.499  -0.488  -0.484  -0.480  -0.476
 -0.474  -0.471  -0.471  -0.468  -0.463  -0.463  -0.455  -0.453
 -0.449  -0.447  -0.440  -0.438  -0.435  -0.433  -0.432  -0.431
 -0.426  -0.424  -0.422  -0.419  -0.419  -0.414  -0.413  -0.412
 -0.410  -0.410  -0.408  -0.407  -0.404  -0.403  -0.400  -0.398
 -0.396  -0.394  -0.393  -0.391  -0.391  -0.389  -0.388  -0.383
 -0.379  -0.378  -0.375  -0.374  -0.366  -0.364  -0.361  -0.359
 -0.355  -0.353  -0.351  -0.350  -0.348  -0.347  -0.343  -0.342
 -0.342  -0.336  -0.333  -0.332  -0.330  -0.326  -0.324  -0.316
 -0.315  -0.314  -0.307  -0.303  -0.303  -0.302  -0.302  -0.300
 -0.299  -0.297  -0.294  -0.293  -0.288  -0.284  -0.281  -0.276
 -0.274  -0.273  -0.272  -0.267  -0.263  -0.257  -0.257  -0.247
 -0.243  -0.241  -0.234  -0.230  -0.194  -0.191

          Ground-State Mulliken Net Atomic Charges

     Atom                 Charge (a.u.)
  ----------------------------------------
      1 C                     0.292773
      2 C                    -0.128836
      3 N                    -0.477390
      4 C                    -0.072371
      5 C                     0.094433
      6 C                     0.001032
      7 C                     0.032492
      8 C                     0.068094
      9 C                     0.261586
     10 N                    -0.541008
     11 N                    -0.579346
     12 C                     0.174555
     13 C                     0.324769
     14 S                     0.604040
     15 N                    -0.559005
     16 C                    -0.228066
     17 S                     0.365031
     18 C                    -0.133819
     19 C                    -0.248598
     20 S                     0.300474
     21 C                     0.204487
     22 C                     0.039096
     23 C                    -0.310901
     24 C                    -0.086030
     25 N                    -0.423338
     26 S                     0.286195
     27 C                     0.144502
     28 C                    -0.322879
     29 C                    -0.221694
     30 H                     0.088363
     31 H                     0.104690
     32 H                     0.114464
     33 H                     0.104299
     34 H                     0.122913
     35 H                     0.099343
     36 H                     0.130334
     37 H                     0.130761
     38 H                     0.121550
     39 C                    -0.166284
     40 H                     0.091888
     41 H                     0.110364
     42 H                     0.096977
     43 C                    -0.192476
     44 H                     0.089926
     45 C                    -0.172276
     46 H                     0.087974
     47 H                     0.085422
     48 H                     0.085647
     49 C                    -0.172787
     50 H                     0.104842
     51 C                    -0.318760
     52 H                     0.091055
     53 H                     0.098130
     54 H                     0.101779
     55 H                     0.101482
     56 C                     0.263610
     57 C                    -0.112241
     58 N                    -0.487362
     59 C                    -0.073356
     60 C                     0.065428
     61 C                     0.043604
     62 C                     0.047943
     63 C                     0.039527
     64 C                     0.245306
     65 N                    -0.512229
     66 N                    -0.568002
     67 C                     0.206051
     68 C                     0.252162
     69 S                     0.607377
     70 N                    -0.549076
     71 C                    -0.223480
     72 S                     0.360911
     73 C                    -0.089450
     74 C                    -0.205698
     75 S                     0.280109
     76 C                     0.159015
     77 C                     0.044940
     78 C                    -0.319565
     79 C                    -0.079953
     80 N                    -0.440013
     81 S                     0.257661
     82 C                     0.119247
     83 C                    -0.303393
     84 C                    -0.218551
     85 H                     0.099855
     86 H                     0.113396
     87 H                     0.109946
     88 H                     0.115615
     89 H                     0.123911
     90 H                     0.118999
     91 H                     0.111033
     92 H                     0.149152
     93 H                     0.117188
     94 C                    -0.172847
     95 H                     0.095926
     96 H                     0.107528
     97 H                     0.095203
     98 C                    -0.176931
     99 H                     0.086645
    100 C                    -0.169747
    101 H                     0.088020
    102 H                     0.093412
    103 H                     0.096580
    104 C                    -0.180018
    105 H                     0.090841
    106 C                    -0.321262
    107 H                     0.098178
    108 H                     0.101438
    109 H                     0.101734
    110 H                     0.095787
  ----------------------------------------
  Sum of atomic charges =     0.000000

                    Cartesian Multipole Moments
 -----------------------------------------------------------------
    Charge (ESU x 10^10)
                 0.0000
    Dipole Moment (Debye)
         X       1.4616      Y       0.3002      Z      -2.1010
       Tot       2.5769
    Quadrupole Moments (Debye-Ang)
        XX    -442.4403     XY     -35.8345     YY    -425.4458
        XZ      20.8476     YZ     -12.7238     ZZ    -449.3255

 Total job time:  92.92s(wall), 995.48s(cpu)
        *  Thank you very much for using Q-Chem.  Have a nice day.  *
