 Q-Chem 4.4, Q-Chem, Inc., Pleasanton, CA (2016)
 Q-Chem 4.4.2 for Intel X86 Linux

User input:
--------------------------------------------------------------
$comment
SP
$end

$rem
MEM_STATIC 5000
MEM_TOTAL 20000
JOBTYPE SP
EXCHANGE B3LYP
BASIS 6-31g(d,p)
$end

$molecule
0 1
C          -5.436000     22.111000      8.151000
C          -5.229000     21.679000      6.847000
N          -5.138000     23.345000      8.641000
C          -4.614000     22.520000      5.972000
C          -4.573000     24.180000      7.801000
C          -4.284000     23.818000      6.403000
C          -3.508000     24.685000      5.433000
C          -3.513000     24.410000      4.021000
C          -2.903000     25.956000      5.812000
N          -2.908000     25.160000      3.086000
N          -2.786000     26.481000      7.045000
C          -2.235000     26.711000      4.807000
C          -2.238000     26.301000      3.432000
S          -1.752000     27.778000      6.874000
N          -1.503000     27.768000      5.269000
C          -1.535000     27.108000      2.359000
S          -0.907000     28.711000      2.382000
C          -1.166000     26.507000      1.129000
C          -0.198000     28.621000      0.767000
S          -1.457000     24.903000      0.528000
C          -0.555000     27.359000      0.271000
C           0.354000     29.722000      0.018000
C          -0.522000     25.361000     -0.865000
C          -0.053000     26.656000     -0.887000
N           0.823000     30.745000      0.699000
S           0.217000     29.855000     -1.712000
C           1.326000     31.679000     -0.158000
C           1.253000     31.271000     -1.492000
C          -6.198000     21.262000      9.154000
H          -5.665000     20.741000      6.516000
H          -4.436000     22.150000      4.966000
H          -4.280000     25.107000      8.293000
H          -3.933000     23.509000      3.575000
H          -0.353000     24.582000     -1.597000
H           0.481000     27.060000     -1.739000
H           1.828000     32.499000      0.338000
H           1.680000     31.701000     -2.388000
H          -6.788000     21.906000      9.817000
C          -5.177000     20.437000     10.039000
H          -6.927000     20.653000      8.604000
H          -4.248000     20.140000      9.537000
H          -5.666000     19.497000     10.325000
C          -4.877000     21.141000     11.447000
H          -4.266000     22.023000     11.221000
C          -3.998000     20.228000     12.334000
H          -5.799000     21.498000     11.923000
H          -3.196000     19.797000     11.723000
H          -4.518000     19.382000     12.801000
C          -3.304000     21.024000     13.394000
H          -2.607000     21.776000     13.006000
C          -2.734000     20.145000     14.518000
H          -4.122000     21.573000     13.877000
H          -2.090000     20.703000     15.208000
H          -2.000000     19.441000     14.106000
H          -3.487000     19.617000     15.116000
C         -11.006000     13.463000      2.821000
C          -9.902000     12.919000      2.027000
N         -11.013000     14.724000      3.276000
C          -8.840000     13.840000      1.711000
C          -9.985000     15.560000      2.922000
C          -8.825000     15.184000      2.204000
C          -7.741000     16.157000      1.976000
C          -6.833000     16.102000      0.829000
C          -7.198000     16.958000      3.045000
N          -5.733000     16.911000      0.766000
N          -7.729000     16.968000      4.244000
C          -6.036000     17.694000      2.966000
C          -5.334000     17.682000      1.787000
S          -6.765000     17.876000      5.179000
N          -5.624000     18.278000      4.070000
C          -4.144000     18.479000      1.639000
S          -3.773000     20.066000      2.338000
C          -2.978000     18.008000      1.015000
C          -1.994000     19.885000      2.034000
S          -2.717000     16.477000      0.150000
C          -1.789000     18.740000      1.283000
C          -0.942000     20.717000      2.578000
C          -0.968000     16.832000      0.166000
C          -0.639000     18.028000      0.826000
N           0.361000     20.470000      2.456000
S          -1.262000     22.187000      3.348000
C           1.185000     21.342000      3.164000
C           0.473000     22.348000      3.720000
C         -12.123000     12.567000      3.376000
H          -9.805000     11.852000      1.851000
H          -8.000000     13.550000      1.088000
H          -9.990000     16.584000      3.292000
H          -7.045000     15.440000     -0.010000
H          -0.229000     16.187000     -0.288000
H           0.338000     18.432000      1.065000
H           2.263000     21.262000      3.128000
H           0.785000     23.205000      4.302000
H         -12.079000     11.545000      2.979000
C         -13.496000     13.192000      3.119000
H         -11.873000     12.403000      4.431000
H         -13.648000     13.278000      2.036000
H         -13.651000     14.130000      3.666000
C         -14.508000     12.239000      3.709000
H         -14.306000     11.262000      3.254000
C         -15.928000     12.621000      3.177000
H         -14.400000     12.191000      4.799000
H         -16.059000     12.370000      2.117000
H         -16.000000     13.699000      3.370000
C         -17.073000     11.926000      3.932000
H         -17.054000     10.877000      3.612000
C         -18.447000     12.653000      3.900000
H         -16.749000     11.940000      4.980000
H         -19.280000     12.181000      4.437000
H         -18.734000     12.823000      2.855000
H         -18.423000     13.603000      4.448000
$end

--------------------------------------------------------------

             Standard Nuclear Orientation (Angstroms)
    I     Atom           X                Y                Z
 ----------------------------------------------------------------
    1      C      -0.3966669708    -4.6416598408     0.6490814969
    2      C      -0.4786458754    -3.2754411653     0.4111424498
    3      N       0.6982692665    -5.3094907420     1.1038083640
    4      C       0.6391969306    -2.5173875560     0.5751948395
    5      C       1.7768204237    -4.5876345167     1.2979757952
    6      C       1.8092017218    -3.1358032764     1.0528095226
    7      C       3.0570705984    -2.2797202190     1.1214394398
    8      C       2.9734915206    -0.8441286889     1.1599815792
    9      C       4.3836603794    -2.8276821643     1.3763987692
   10      N       4.0203381413    -0.0126700044     1.2846355347
   11      N       4.7475018860    -4.1216507803     1.4299485473
   12      C       5.4804590496    -1.9246820941     1.4652669328
   13      C       5.2903320586    -0.5034248923     1.4141426390
   14      S       6.4148823768    -4.1088937946     1.4468470178
   15      N       6.7135873048    -2.5126778656     1.4784076608
   16      C       6.4556493086     0.4599747103     1.5175056536
   17      S       8.0865834980     0.2098411658     2.0094496338
   18      C       6.3377971464     1.7895765213     1.0394555601
   19      C       8.6130850218     1.8537477356     1.6361222506
   20      S       4.9716664698     2.6274553789     0.3683788175
   21      C       7.4600409570     2.5288737113     1.2109125357
   22      C       9.8805547321     2.4418901012     1.9904033414
   23      C       6.0427826247     3.9755044467     0.1236097559
   24      C       7.3400866971     3.8113429957     0.5566492017
   25      N      10.9018578102     1.6295121980     2.1554280820
   26      S      10.0592281700     4.1171289482     2.4274486570
   27      C      12.0196057160     2.3486342638     2.4609065156
   28      C      11.7832570455     3.7254008563     2.4594726838
   29      C      -1.6249248220    -5.5324325375     0.5758650121
   30      H      -1.4462878043    -2.8199433078     0.2222197167
   31      H       0.5590568059    -1.4564138791     0.3548940967
   32      H       2.6311515160    -5.2076566503     1.5680367859
   33      H       2.0552477115    -0.2805081937     0.9978790056
   34      H       5.6152430469     4.8327394778    -0.3799615012
   35      H       8.0671856142     4.6136135528     0.5123195508
   36      H      12.9220293620     1.7533817301     2.5024514824
   37      H      12.4674154777     4.5610112512     2.5205260010
   38      H      -1.5594878216    -6.3223788108     1.3335640845
   39      C      -1.7045941309    -6.2147543191    -0.8504521992
   40      H      -2.5016782028    -4.9306170921     0.8477908824
   41      H      -1.3041440586    -5.6217120519    -1.6818333446
   42      H      -2.7647705864    -6.3696239177    -1.0882720694
   43      C      -1.1039270155    -7.7004403360    -0.8544616888
   44      H      -0.0176259037    -7.5886475508    -0.7556018506
   45      C      -1.3409168290    -8.3780410172    -2.2247434646
   46      H      -1.4511774316    -8.2772728867     0.0120199076
   47      H      -1.1135416081    -7.6626184572    -3.0239662556
   48      H      -2.3648304417    -8.7282178807    -2.4069029496
   49      C      -0.3893124643    -9.5146544148    -2.4282406820
   50      H       0.6656414341    -9.2174384093    -2.4525700542
   51      C      -0.8161236751   -10.4479352963    -3.5718035296
   52      H      -0.5235514408   -10.1240774364    -1.5258009455
   53      H      -0.0452319340   -11.1839393148    -3.8291437875
   54      H      -0.8610446501    -9.8877171410    -4.5142756642
   55      H      -1.7527408949   -10.9915687550    -3.3968525477
   56      C     -10.0777215597     1.7187566183     0.4393471127
   57      C      -9.7310293521     2.6491629827    -0.6373777873
   58      N      -9.1500584262     1.0645626281     1.1525555912
   59      C      -8.3231202090     2.8675731573    -0.8519234475
   60      C      -7.8256286247     1.3324327032     0.9177635049
   61      C      -7.3210546523     2.1635984332    -0.1103749272
   62      C      -5.8673809424     2.2880242312    -0.3227895357
   63      C      -5.2327227699     3.4759030524    -0.8965934309
   64      C      -5.0075207126     1.1335894325    -0.4072388157
   65      N      -3.9112003740     3.4653779671    -1.2457606968
   66      N      -5.4452217601    -0.0778580761    -0.1613227182
   67      C      -3.7020122184     1.1540697537    -0.8470218624
   68      C      -3.1604097004     2.3553584295    -1.2298550242
   69      S      -4.2259075296    -1.0950318549    -0.4878427190
   70      N      -3.0953604325    -0.0065306663    -0.9678369102
   71      C      -1.7837261272     2.4353788601    -1.6440434719
   72      S      -0.3896961120     1.5080394526    -1.0596352756
   73      C      -1.3576066239     3.1897514522    -2.7486326087
   74      C       0.6153398057     1.9329323791    -2.5085613624
   75      S      -2.2961843959     4.3055652423    -3.7656568718
   76      C      -0.0707098920     2.8704929336    -3.2617990532
   77      C       1.8677237184     1.3180852356    -2.8937386273
   78      C      -0.9256413749     4.3262122711    -4.9086649767
   79      C       0.1434749516     3.4987722307    -4.5257939019
   80      N       2.5059860081     1.5487811339    -4.0396455397
   81      S       2.7310147943     0.3026245265    -1.8546197377
   82      C       3.6308508312     0.7535579199    -4.2468246164
   83      C       3.9095218386     0.0034309011    -3.1569769549
   84      C     -11.5231866037     1.2578555252     0.6775297929
   85      H     -10.4783697691     3.0017254454    -1.3416902257
   86      H      -7.9617949364     3.5738794684    -1.5924667901
   87      H      -7.0719348514     0.8007209897     1.4963214968
   88      H      -5.7989353238     4.3989365121    -1.0170989331
   89      H      -0.9178938258     4.9184577251    -5.8127928978
   90      H       1.0465241814     3.2501268632    -5.0712694467
   91      H       4.2489326615     0.8601768847    -5.1279530107
   92      H       4.7132538941    -0.6928186067    -2.9575567804
   93      H     -12.2483323287     1.8179425600     0.0737954217
   94      C     -11.8777654306     1.3351339550     2.1641719488
   95      H     -11.5917491311     0.2587369612     0.2308954067
   96      H     -11.8053652254     2.3798354764     2.4908919228
   97      H     -11.3012400425     0.6349851022     2.7810090916
   98      C     -13.3046630155     0.8547053113     2.2808107100
   99      H     -13.8904420704     1.4731121198     1.5903080539
  100      C     -13.8508243453     1.2399808857     3.6945357658
  101      H     -13.3759620748    -0.2054590921     2.0105591940
  102      H     -14.0278635867     2.3180953847     3.7949759674
  103      H     -13.0808827168     0.8702253041     4.3837292790
  104      C     -15.1772211830     0.5477727842     4.0489287301
  105      H     -15.9461291106     1.0350574031     3.4369677026
  106      C     -15.4746427962     0.3867104376     5.5665018929
  107      H     -15.0611108256    -0.4694790367     3.6549831529
  108      H     -16.4124779909    -0.1102709198     5.8467101690
  109      H     -15.4255994232     1.3730048154     6.0441127678
  110      H     -14.7765969691    -0.3067305234     6.0515293733
 ----------------------------------------------------------------

    9   -5663.5004281698      8.26E-06 Convergence criterion met
 Total energy in the final basis set = -5663.5004281698

                    Orbital Energies (a.u.)
 --------------------------------------------------------------

 Alpha MOs
 -- Occupied --
-88.990 -88.988 -88.931 -88.930 -88.925 -88.918 -88.913 -88.909
-14.392 -14.388 -14.384 -14.382 -14.353 -14.353 -14.339 -14.336
-14.333 -14.327 -10.270 -10.267 -10.267 -10.261 -10.259 -10.258
-10.256 -10.252 -10.249 -10.248 -10.244 -10.244 -10.244 -10.239
-10.238 -10.236 -10.236 -10.235 -10.233 -10.233 -10.230 -10.230
-10.229 -10.227 -10.226 -10.224 -10.224 -10.222 -10.222 -10.220
-10.219 -10.213 -10.211 -10.207 -10.205 -10.200 -10.198 -10.194
-10.188 -10.184 -10.183 -10.176 -10.176 -10.176 -10.175 -10.175
-10.173 -10.170 -10.170 -10.168  -8.046  -8.043  -7.992  -7.989
 -7.984  -7.980  -7.972  -7.969  -6.011  -6.009  -6.006  -6.004
 -6.003  -6.001  -5.955  -5.953  -5.952  -5.950  -5.949  -5.948
 -5.945  -5.944  -5.944  -5.941  -5.940  -5.937  -5.937  -5.933
 -5.933  -5.929  -5.928  -5.925  -1.056  -1.032  -0.973  -0.963
 -0.959  -0.952  -0.943  -0.933  -0.922  -0.917  -0.904  -0.904
 -0.849  -0.838  -0.833  -0.826  -0.814  -0.810  -0.809  -0.807
 -0.801  -0.796  -0.795  -0.793  -0.783  -0.777  -0.768  -0.764
 -0.752  -0.745  -0.741  -0.735  -0.724  -0.720  -0.710  -0.706
 -0.694  -0.688  -0.679  -0.673  -0.659  -0.650  -0.649  -0.643
 -0.641  -0.629  -0.628  -0.621  -0.610  -0.608  -0.603  -0.592
 -0.592  -0.589  -0.582  -0.578  -0.576  -0.576  -0.569  -0.567
 -0.553  -0.543  -0.541  -0.540  -0.525  -0.523  -0.519  -0.511
 -0.508  -0.505  -0.502  -0.501  -0.488  -0.484  -0.483  -0.480
 -0.474  -0.474  -0.471  -0.469  -0.466  -0.462  -0.452  -0.448
 -0.445  -0.437  -0.435  -0.434  -0.433  -0.432  -0.431  -0.430
 -0.429  -0.427  -0.425  -0.423  -0.418  -0.414  -0.412  -0.411
 -0.411  -0.408  -0.402  -0.401  -0.399  -0.399  -0.397  -0.395
 -0.394  -0.393  -0.393  -0.392  -0.390  -0.387  -0.385  -0.382
 -0.380  -0.375  -0.374  -0.372  -0.369  -0.362  -0.358  -0.357
 -0.356  -0.354  -0.353  -0.351  -0.348  -0.345  -0.344  -0.341
 -0.341  -0.338  -0.334  -0.333  -0.332  -0.331  -0.319  -0.317
 -0.316  -0.310  -0.308  -0.305  -0.305  -0.300  -0.299  -0.299
 -0.297  -0.295  -0.293  -0.290  -0.286  -0.285  -0.281  -0.276
 -0.275  -0.271  -0.266  -0.263  -0.255  -0.252  -0.252  -0.251
 -0.245  -0.243  -0.231  -0.226  -0.196  -0.192

          Ground-State Mulliken Net Atomic Charges

     Atom                 Charge (a.u.)
  ----------------------------------------
      1 C                     0.256132
      2 C                    -0.114637
      3 N                    -0.461747
      4 C                    -0.067711
      5 C                     0.085395
      6 C                     0.007103
      7 C                     0.046324
      8 C                     0.052776
      9 C                     0.252926
     10 N                    -0.516801
     11 N                    -0.575929
     12 C                     0.169160
     13 C                     0.285307
     14 S                     0.604395
     15 N                    -0.536414
     16 C                    -0.216032
     17 S                     0.362734
     18 C                    -0.123820
     19 C                    -0.205987
     20 S                     0.308044
     21 C                     0.098198
     22 C                     0.062865
     23 C                    -0.305396
     24 C                    -0.075544
     25 N                    -0.421599
     26 S                     0.274387
     27 C                     0.126868
     28 C                    -0.314475
     29 C                    -0.232024
     30 H                     0.092839
     31 H                     0.111303
     32 H                     0.134175
     33 H                     0.116573
     34 H                     0.124915
     35 H                     0.112077
     36 H                     0.119538
     37 H                     0.129810
     38 H                     0.120425
     39 C                    -0.188210
     40 H                     0.087894
     41 H                     0.099898
     42 H                     0.092147
     43 C                    -0.179822
     44 H                     0.114234
     45 C                    -0.164473
     46 H                     0.094036
     47 H                     0.089045
     48 H                     0.088945
     49 C                    -0.174966
     50 H                     0.095711
     51 C                    -0.325763
     52 H                     0.092536
     53 H                     0.096481
     54 H                     0.096700
     55 H                     0.104468
     56 C                     0.261049
     57 C                    -0.130198
     58 N                    -0.477623
     59 C                    -0.092378
     60 C                     0.082554
     61 C                     0.068588
     62 C                     0.004086
     63 C                     0.051937
     64 C                     0.238077
     65 N                    -0.515668
     66 N                    -0.537143
     67 C                     0.225209
     68 C                     0.280213
     69 S                     0.588582
     70 N                    -0.561915
     71 C                    -0.201483
     72 S                     0.306534
     73 C                    -0.127061
     74 C                    -0.245590
     75 S                     0.275818
     76 C                     0.175233
     77 C                     0.077675
     78 C                    -0.315946
     79 C                    -0.052306
     80 N                    -0.470613
     81 S                     0.275490
     82 C                     0.140673
     83 C                    -0.320047
     84 C                    -0.225402
     85 H                     0.101157
     86 H                     0.093096
     87 H                     0.112976
     88 H                     0.120550
     89 H                     0.131134
     90 H                     0.132392
     91 H                     0.123238
     92 H                     0.132916
     93 H                     0.093107
     94 C                    -0.160933
     95 H                     0.121953
     96 H                     0.098178
     97 H                     0.124612
     98 C                    -0.180582
     99 H                     0.084963
    100 C                    -0.178779
    101 H                     0.095548
    102 H                     0.091507
    103 H                     0.090719
    104 C                    -0.175342
    105 H                     0.090664
    106 C                    -0.320834
    107 H                     0.089450
    108 H                     0.100070
    109 H                     0.101506
    110 H                     0.103377
  ----------------------------------------
  Sum of atomic charges =     0.000000

                    Cartesian Multipole Moments
 -----------------------------------------------------------------
    Charge (ESU x 10^10)
                 0.0000
    Dipole Moment (Debye)
         X       0.2612      Y       2.4932      Z      -2.1053
       Tot       3.2736
    Quadrupole Moments (Debye-Ang)
        XX    -391.5155     XY       9.5863     YY    -437.6484
        XZ       9.2291     YZ      -1.3489     ZZ    -445.4314

 Total job time:  87.94s(wall), 946.31s(cpu)
        *  Thank you very much for using Q-Chem.  Have a nice day.  *
