 Q-Chem 4.4, Q-Chem, Inc., Pleasanton, CA (2016)
 Q-Chem 4.4.2 for Intel X86 Linux

User input:
--------------------------------------------------------------
$comment
SP
$end

$rem
MEM_STATIC 5000
MEM_TOTAL 20000
JOBTYPE SP
EXCHANGE B3LYP
BASIS 6-31g(d,p)
$end

$molecule
0 1
C          11.427000     11.518000      1.449000
C          10.377000     11.744000      0.525000
N          11.340000     11.901000      2.782000
C           9.201000     12.327000      0.957000
C          10.222000     12.398000      3.228000
C           9.093000     12.593000      2.372000
C           7.810000     12.947000      3.021000
C           6.889000     13.748000      2.305000
C           7.274000     12.284000      4.159000
N           5.629000     14.095000      2.743000
N           7.806000     11.252000      4.756000
C           6.036000     12.648000      4.635000
C           5.235000     13.575000      3.934000
S           6.713000     10.669000      5.770000
N           5.630000     11.805000      5.639000
C           3.943000     14.128000      4.487000
S           2.557000     14.603000      3.388000
C           3.673000     14.310000      5.762000
C           1.525000     15.028000      4.776000
S           4.542000     14.133000      7.210000
C           2.372000     14.927000      5.858000
C           0.189000     15.642000      4.630000
C           3.183000     14.999000      7.983000
C           2.062000     15.206000      7.225000
N          -0.502000     15.355000      3.554000
S          -0.634000     16.641000      5.825000
C          -1.663000     16.039000      3.487000
C          -1.789000     17.002000      4.520000
C          12.736000     10.896000      1.138000
H          10.531000     11.496000     -0.522000
H           8.435000     12.553000      0.221000
H          10.117000     12.579000      4.297000
H           7.166000     14.012000      1.285000
H           3.173000     15.252000      9.034000
H           1.167000     15.584000      7.705000
H          -2.275000     15.824000      2.621000
H          -2.598000     17.650000      4.830000
H          13.040000     11.155000      0.116000
C          12.669000      9.360000      1.154000
H          13.524000     11.152000      1.858000
H          11.911000      8.914000      0.498000
H          12.332000      9.090000      2.163000
C          14.051000      8.662000      0.977000
H          14.646000      9.175000      0.211000
C          13.822000      7.226000      0.468000
H          14.655000      8.683000      1.893000
H          13.445000      7.268000     -0.561000
H          13.146000      6.589000      1.051000
C          15.136000      6.506000      0.316000
H          15.753000      6.975000     -0.460000
C          14.937000      5.090000     -0.092000
H          15.739000      6.542000      1.232000
H          15.877000      4.523000     -0.093000
H          14.435000      4.958000     -1.059000
H          14.275000      4.594000      0.628000
C         -11.006000     13.463000      2.821000
C          -9.902000     12.919000      2.027000
N         -11.013000     14.724000      3.276000
C          -8.840000     13.840000      1.711000
C          -9.985000     15.560000      2.922000
C          -8.825000     15.184000      2.204000
C          -7.741000     16.157000      1.976000
C          -6.833000     16.102000      0.829000
C          -7.198000     16.958000      3.045000
N          -5.733000     16.911000      0.766000
N          -7.729000     16.968000      4.244000
C          -6.036000     17.694000      2.966000
C          -5.334000     17.682000      1.787000
S          -6.765000     17.876000      5.179000
N          -5.624000     18.278000      4.070000
C          -4.144000     18.479000      1.639000
S          -3.773000     20.066000      2.338000
C          -2.978000     18.008000      1.015000
C          -1.994000     19.885000      2.034000
S          -2.717000     16.477000      0.150000
C          -1.789000     18.740000      1.283000
C          -0.942000     20.717000      2.578000
C          -0.968000     16.832000      0.166000
C          -0.639000     18.028000      0.826000
N           0.361000     20.470000      2.456000
S          -1.262000     22.187000      3.348000
C           1.185000     21.342000      3.164000
C           0.473000     22.348000      3.720000
C         -12.123000     12.567000      3.376000
H          -9.805000     11.852000      1.851000
H          -8.000000     13.550000      1.088000
H          -9.990000     16.584000      3.292000
H          -7.045000     15.440000     -0.010000
H          -0.229000     16.187000     -0.288000
H           0.338000     18.432000      1.065000
H           2.263000     21.262000      3.128000
H           0.785000     23.205000      4.302000
H         -12.079000     11.545000      2.979000
C         -13.496000     13.192000      3.119000
H         -11.873000     12.403000      4.431000
H         -13.648000     13.278000      2.036000
H         -13.651000     14.130000      3.666000
C         -14.508000     12.239000      3.709000
H         -14.306000     11.262000      3.254000
C         -15.928000     12.621000      3.177000
H         -14.400000     12.191000      4.799000
H         -16.059000     12.370000      2.117000
H         -16.000000     13.699000      3.370000
C         -17.073000     11.926000      3.932000
H         -17.054000     10.877000      3.612000
C         -18.447000     12.653000      3.900000
H         -16.749000     11.940000      4.980000
H         -19.280000     12.181000      4.437000
H         -18.734000     12.823000      2.855000
H         -18.423000     13.603000      4.448000
$end

--------------------------------------------------------------

             Standard Nuclear Orientation (Angstroms)
    I     Atom           X                Y                Z
 ----------------------------------------------------------------
    1      C     -12.0284606548     0.7369173372    -1.3301511980
    2      C     -10.9803489272     0.8143212971    -2.2803208846
    3      N     -11.8220675030     0.2929291117    -0.0296038815
    4      C      -9.6929561915     0.4801473752    -1.9055719902
    5      C     -10.6098807732     0.0284961500     0.3660317345
    6      C      -9.4897592636     0.1490217211    -0.5149923234
    7      C      -8.1428320200     0.0465886480     0.0915556680
    8      C      -7.0873233359    -0.4781116827    -0.6914443197
    9      C      -7.7359220375     0.7331876913     1.2683797925
   10      N      -5.7701794612    -0.5644704833    -0.2945473925
   11      N      -8.4667158781     1.5773791053     1.9449433291
   12      C      -6.4354089336     0.6227993075     1.7021955036
   13      C      -5.4685379614    -0.0522087841     0.9264019747
   14      S      -7.5025583609     2.3188451729     2.9857902692
   15      N      -6.1987932060     1.4645907082     2.7599767830
   16      C      -4.0713878857    -0.3395991815     1.4226483100
   17      S      -2.6454065875    -0.4174688283     0.2759418719
   18      C      -3.7327509078    -0.5433655832     2.6778189162
   19      C      -1.5070506595    -0.6953328676     1.6172585224
   20      S      -4.5791388705    -0.6638096519     4.1448958205
   21      C      -2.3252370218    -0.8598051266     2.7135495205
   22      C      -0.0727522109    -0.9845398295     1.4114545044
   23      C      -3.0412642568    -1.2556412709     4.8370251491
   24      C      -1.9235819115    -1.1552549716     4.0529570617
   25      N       0.5075642205    -0.4779586898     0.3511553069
   26      S       0.9837514618    -1.8540154087     2.5210342477
   27      C       1.7889681559    -0.8796477999     0.2210945009
   28      C       2.1536293422    -1.8584821405     1.1798643131
   29      C     -13.4508036572     1.0711039394    -1.5798424043
   30      H     -11.2142577012     1.0925785031    -3.3046687810
   31      H      -8.9164948245     0.4813975653    -2.6649363182
   32      H     -10.4379747758    -0.1970352700     1.4177593165
   33      H      -7.3269328051    -0.7270086112    -1.7246251467
   34      H      -2.9465017311    -1.5711430747     5.8666797881
   35      H      -0.9541965612    -1.3560134284     4.4937484915
   36      H       2.3140184877    -0.4750250291    -0.6340824178
   37      H       3.0943296875    -2.3293751727     1.4325055857
   38      H     -13.7178944532     0.8211850869    -2.6143394192
   39      C     -13.7254045001     2.5786075203    -1.4530814851
   40      H     -14.1423478179     0.5973275921    -0.8711939395
   41      H     -13.1034403256     3.2260899228    -2.0837502604
   42      H     -13.4289424211     2.8474685062    -0.4311352996
   43      C     -15.2320530105     2.9612788051    -1.5627626314
   44      H     -15.7194622099     2.3820081843    -2.3570093313
   45      C     -15.3410493388     4.4434814920    -1.9687342994
   46      H     -15.7909147583     2.7436803405    -0.6437210355
   47      H     -14.9926098507     4.5569092687    -3.0023967505
   48      H     -14.8072029603     5.1738807812    -1.3489287472
   49      C     -16.7856007433     4.8610034422    -2.0526786908
   50      H     -17.3044796052     4.3202964690    -2.8534450086
   51      C     -16.9166254846     6.3101770990    -2.3590269068
   52      H     -17.3401640076     4.6290414824    -1.1347384775
   53      H     -17.9585573994     6.6520103136    -2.3078611142
   54      H     -16.4831891343     6.6164508171    -3.3196758228
   55      H     -16.3614082602     6.8909946622    -1.6126725727
   56      C      10.3069370911     3.7541045816    -0.3650156302
   57      C       9.0883952421     4.0911065282    -1.1044569398
   58      N      10.6057104595     2.4983856739    -0.0029389820
   59      C       8.2485794832     2.9802486484    -1.4741125389
   60      C       9.7791549206     1.4803585389    -0.4047134132
   61      C       8.5453464973     1.6363196538    -1.0799118323
   62      C       7.6980328251     0.4639857352    -1.3653268358
   63      C       6.7691710481     0.3932571962    -2.4946236404
   64      C       7.3756800954    -0.5089463374    -0.3510769161
   65      N       5.8744675783    -0.6344230430    -2.6033849711
   66      N       7.9285215782    -0.4820706945     0.8377485525
   67      C       6.4039256856    -1.4783723581    -0.4697679328
   68      C       5.6845093582    -1.5427977417    -1.6365063430
   69      S       7.2158156744    -1.6437863686     1.7155024970
   70      N       6.1621464622    -2.2134638979     0.5936225106
   71      C       4.6970774555    -2.5730779774    -1.8281149895
   72      S       4.7063522669    -4.2467445351    -1.2419706119
   73      C       3.4389598930    -2.3324870508    -2.4025966734
   74      C       2.9237861372    -4.4466799193    -1.5112322606
   75      S       2.8214768578    -0.8428761940    -3.1509824005
   76      C       2.4495605849    -3.3277185812    -2.1746225300
   77      C       2.0976898440    -5.5274365830    -1.0168700977
   78      C       1.1957371954    -1.5791781534    -3.1404005998
   79      C       1.1582385846    -2.8605977233    -2.5652356319
   80      N       0.7694955254    -5.5694689018    -1.1053864028
   81      S       2.7565495477    -6.9380915608    -0.3594840435
   82      C       0.1790242320    -6.6494719447    -0.4530359762
   83      C       1.1112771934    -7.5069087180     0.0200629520
   84      C      11.2124881672     4.8366095161     0.2405339675
   85      H       8.7525674384     5.1190699177    -1.2013329229
   86      H       7.3483651338     3.1174535900    -2.0645512986
   87      H      10.0211221095     0.4604592977    -0.1101655947
   88      H       6.8060170452     1.1415217486    -3.2857314283
   89      H       0.3199671128    -1.0857689575    -3.5376865520
   90      H       0.3020089435    -3.4876206563    -2.3448290913
   91      H      -0.8904772984    -6.8095967488    -0.4705437867
   92      H       1.0130841774    -8.4495614835     0.5418683710
   93      H      10.9322049537     5.8477096857    -0.0806307366
   94      C      12.6822318433     4.5525293442    -0.0772001709
   95      H      10.9615255246     4.8683633539     1.3075065284
   96      H      12.8196139498     4.5766832231    -1.1652864483
   97      H      13.0562321442     3.6376305288     0.3983646852
   98      C      13.4737679706     5.6646617576     0.5686210537
   99      H      13.0478471751     6.6007283562     0.1881886694
  100      C      14.9279044027     5.6461250958    -0.0062629597
  101      H      13.3878879397     5.6128891256     1.6604141728
  102      H      14.9707771938     5.9917366598    -1.0466843025
  103      H      15.2422691420     4.6007305286     0.1070596314
  104      C      15.9107964844     6.5257693833     0.7838155700
  105      H      15.6510206943     7.5634463213     0.5411118179
  106      C      17.4103149669     6.1273731129     0.6830498406
  107      H      15.6269509180     6.3684072038     1.8317396317
  108      H      18.1324912397     6.7354678841     1.2431607048
  109      H      17.6989484408     6.0973527815    -0.3748175884
  110      H      17.6125211080     5.1608229569     1.1608295728
 ----------------------------------------------------------------

    9   -5663.4773113880      8.27E-06 Convergence criterion met
 Total energy in the final basis set = -5663.4773113880

                    Orbital Energies (a.u.)
 --------------------------------------------------------------

 Alpha MOs
 -- Occupied --
-88.992 -88.990 -88.928 -88.919 -88.919 -88.913 -88.912 -88.908
-14.388 -14.382 -14.381 -14.370 -14.353 -14.351 -14.336 -14.333
-14.330 -14.326 -10.268 -10.264 -10.261 -10.259 -10.256 -10.252
-10.251 -10.250 -10.249 -10.246 -10.243 -10.239 -10.236 -10.236
-10.235 -10.233 -10.233 -10.231 -10.231 -10.229 -10.228 -10.227
-10.224 -10.223 -10.222 -10.222 -10.221 -10.221 -10.221 -10.219
-10.218 -10.216 -10.213 -10.210 -10.206 -10.204 -10.197 -10.196
-10.188 -10.183 -10.180 -10.180 -10.176 -10.176 -10.175 -10.175
-10.174 -10.173 -10.171 -10.167  -8.049  -8.046  -7.987  -7.982
 -7.979  -7.973  -7.972  -7.966  -6.013  -6.011  -6.008  -6.007
 -6.005  -6.003  -5.951  -5.948  -5.946  -5.943  -5.943  -5.942
 -5.940  -5.939  -5.938  -5.936  -5.936  -5.934  -5.933  -5.931
 -5.929  -5.928  -5.927  -5.923  -1.057  -1.056  -0.963  -0.963
 -0.959  -0.947  -0.938  -0.932  -0.922  -0.912  -0.905  -0.903
 -0.837  -0.836  -0.833  -0.830  -0.814  -0.812  -0.811  -0.809
 -0.798  -0.796  -0.794  -0.793  -0.789  -0.777  -0.770  -0.768
 -0.752  -0.743  -0.742  -0.741  -0.719  -0.713  -0.710  -0.710
 -0.694  -0.691  -0.679  -0.671  -0.659  -0.655  -0.648  -0.645
 -0.641  -0.629  -0.626  -0.622  -0.609  -0.607  -0.598  -0.593
 -0.591  -0.587  -0.581  -0.579  -0.576  -0.575  -0.567  -0.567
 -0.552  -0.543  -0.543  -0.536  -0.526  -0.525  -0.513  -0.511
 -0.509  -0.507  -0.502  -0.501  -0.488  -0.484  -0.484  -0.480
 -0.479  -0.474  -0.474  -0.469  -0.469  -0.465  -0.452  -0.445
 -0.445  -0.444  -0.435  -0.432  -0.431  -0.429  -0.428  -0.428
 -0.427  -0.426  -0.423  -0.423  -0.420  -0.419  -0.414  -0.412
 -0.410  -0.407  -0.404  -0.402  -0.401  -0.399  -0.398  -0.396
 -0.393  -0.393  -0.391  -0.389  -0.386  -0.384  -0.381  -0.380
 -0.376  -0.374  -0.374  -0.371  -0.368  -0.366  -0.362  -0.356
 -0.354  -0.353  -0.352  -0.350  -0.346  -0.342  -0.342  -0.341
 -0.339  -0.333  -0.333  -0.331  -0.328  -0.322  -0.321  -0.319
 -0.317  -0.317  -0.308  -0.308  -0.305  -0.303  -0.299  -0.299
 -0.295  -0.294  -0.289  -0.285  -0.283  -0.281  -0.279  -0.276
 -0.273  -0.268  -0.267  -0.263  -0.255  -0.252  -0.246  -0.244
 -0.244  -0.235  -0.231  -0.225  -0.196  -0.190

          Ground-State Mulliken Net Atomic Charges

     Atom                 Charge (a.u.)
  ----------------------------------------
      1 C                     0.268572
      2 C                    -0.119854
      3 N                    -0.480629
      4 C                    -0.058520
      5 C                     0.117190
      6 C                     0.001505
      7 C                     0.031011
      8 C                     0.048840
      9 C                     0.235227
     10 N                    -0.495626
     11 N                    -0.553979
     12 C                     0.177639
     13 C                     0.254586
     14 S                     0.617731
     15 N                    -0.518732
     16 C                    -0.230813
     17 S                     0.299078
     18 C                    -0.039820
     19 C                    -0.183321
     20 S                     0.272254
     21 C                     0.077313
     22 C                     0.054013
     23 C                    -0.298164
     24 C                    -0.078481
     25 N                    -0.411424
     26 S                     0.247398
     27 C                     0.130596
     28 C                    -0.322364
     29 C                    -0.223522
     30 H                     0.093270
     31 H                     0.106732
     32 H                     0.111305
     33 H                     0.106315
     34 H                     0.114085
     35 H                     0.119095
     36 H                     0.121533
     37 H                     0.142589
     38 H                     0.094094
     39 C                    -0.188981
     40 H                     0.123967
     41 H                     0.093196
     42 H                     0.110593
     43 C                    -0.176935
     44 H                     0.091486
     45 C                    -0.170088
     46 H                     0.098469
     47 H                     0.093584
     48 H                     0.093009
     49 C                    -0.171244
     50 H                     0.090317
     51 C                    -0.316949
     52 H                     0.089781
     53 H                     0.095928
     54 H                     0.098238
     55 H                     0.096317
     56 C                     0.261443
     57 C                    -0.129994
     58 N                    -0.477748
     59 C                    -0.092736
     60 C                     0.082161
     61 C                     0.068705
     62 C                     0.003922
     63 C                     0.051649
     64 C                     0.241493
     65 N                    -0.514484
     66 N                    -0.537454
     67 C                     0.229764
     68 C                     0.276282
     69 S                     0.589264
     70 N                    -0.565515
     71 C                    -0.196804
     72 S                     0.309034
     73 C                    -0.135980
     74 C                    -0.240884
     75 S                     0.262488
     76 C                     0.182392
     77 C                     0.092886
     78 C                    -0.307273
     79 C                    -0.044841
     80 N                    -0.466817
     81 S                     0.246067
     82 C                     0.143072
     83 C                    -0.314905
     84 C                    -0.225461
     85 H                     0.101652
     86 H                     0.093854
     87 H                     0.112857
     88 H                     0.121173
     89 H                     0.138801
     90 H                     0.137517
     91 H                     0.126546
     92 H                     0.131351
     93 H                     0.093302
     94 C                    -0.160733
     95 H                     0.121917
     96 H                     0.098236
     97 H                     0.124377
     98 C                    -0.180882
     99 H                     0.085114
    100 C                    -0.178480
    101 H                     0.095500
    102 H                     0.091532
    103 H                     0.090486
    104 C                    -0.175391
    105 H                     0.090730
    106 C                    -0.320750
    107 H                     0.089419
    108 H                     0.100003
    109 H                     0.101507
    110 H                     0.103227
  ----------------------------------------
  Sum of atomic charges =     0.000000

                    Cartesian Multipole Moments
 -----------------------------------------------------------------
    Charge (ESU x 10^10)
                 0.0000
    Dipole Moment (Debye)
         X      -0.2261      Y       0.6742      Z       1.0326
       Tot       1.2538
    Quadrupole Moments (Debye-Ang)
        XX    -442.4468     XY      -2.4873     YY    -416.5794
        XZ      18.0940     YZ     -16.6009     ZZ    -429.0292

 Total job time:  89.14s(wall), 951.37s(cpu)
        *  Thank you very much for using Q-Chem.  Have a nice day.  *
