 Q-Chem 4.4, Q-Chem, Inc., Pleasanton, CA (2016)
 Q-Chem 4.4.2 for Intel X86 Linux

User input:
--------------------------------------------------------------
$comment
SP
$end

$rem
MEM_STATIC 5000
MEM_TOTAL 20000
JOBTYPE SP
EXCHANGE B3LYP
BASIS 6-31g(d,p)
$end

$molecule
0 1
C          14.308000      7.777000     -3.066000
C          13.109000      8.488000     -2.997000
N          15.553000      8.360000     -3.050000
C          13.190000      9.879000     -2.859000
C          15.577000      9.693000     -2.938000
C          14.486000     10.515000     -2.972000
C          14.599000     12.091000     -3.141000
C          15.553000     12.579000     -4.037000
C          13.792000     13.049000     -2.559000
N          15.742000     13.892000     -4.274000
N          12.769000     12.744000     -1.738000
C          13.883000     14.441000     -2.782000
C          14.895000     14.827000     -3.762000
S          12.128000     14.145000     -1.266000
N          13.044000     15.243000     -2.143000
C          14.916000     16.260000     -4.295000
S          13.642000     17.538000     -4.280000
C          15.970000     16.751000     -4.989000
C          14.623000     18.668000     -5.213000
S          17.615000     16.280000     -5.035000
C          15.752000     18.033000     -5.584000
C          14.343000     20.063000     -5.277000
C          17.904000     17.654000     -6.136000
C          16.837000     18.512000     -6.333000
N          15.349000     20.934000     -5.476000
S          12.810000     20.699000     -4.963000
C          14.883000     22.249000     -5.307000
C          13.534000     22.291000     -5.018000
C          14.205000      6.301000     -3.462000
H          12.211000      7.887000     -3.107000
H          12.289000     10.480000     -2.941000
H          16.523000     10.232000     -2.933000
H          16.094000     11.810000     -4.587000
H          18.888000     17.673000     -6.584000
H          16.966000     19.511000     -6.733000
H          15.622000     23.039000     -5.286000
H          12.896000     23.141000     -4.818000
H          15.184000      5.837000     -3.289000
C          13.797000      6.130000     -4.959000
H          13.520000      5.746000     -2.810000
H          14.609000      6.452000     -5.622000
H          13.012000      6.860000     -5.194000
C          13.510000      4.670000     -5.434000
H          14.427000      4.108000     -5.217000
C          13.109000      4.352000     -6.836000
H          12.718000      4.272000     -4.787000
H          12.020000      4.486000     -6.846000
H          13.324000      3.286000     -6.983000
C          13.835000      5.188000     -7.986000
H          13.361000      6.176000     -7.957000
C          13.602000      4.547000     -9.343000
H          14.897000      5.407000     -7.818000
H          14.211000      3.656000     -9.539000
H          14.043000      5.241000    -10.070000
H          12.522000      4.449000     -9.508000
C           0.692000     13.408000    -14.675000
C           1.613000     14.301000    -15.261000
N           1.056000     12.814000    -13.513000
C           2.902000     14.440000    -14.739000
C           2.199000     13.101000    -12.877000
C           3.180000     13.900000    -13.507000
C           4.521000     14.079000    -12.861000
C           5.762000     13.991000    -13.596000
C           4.687000     14.241000    -11.522000
N           7.019000     13.988000    -13.119000
N           3.630000     14.332000    -10.654000
C           5.941000     14.296000    -10.961000
C           7.100000     14.150000    -11.770000
S           4.248000     14.477000     -9.191000
N           5.808000     14.414000     -9.673000
C           8.468000     14.173000    -11.146000
S           9.093000     15.326000     -9.895000
C           9.539000     13.481000    -11.708000
C          10.771000     14.913000    -10.231000
S           9.526000     12.251000    -12.945000
C          10.795000     13.903000    -11.209000
C          11.889000     15.696000     -9.699000
C          11.351000     12.618000    -13.051000
C          11.820000     13.253000    -11.903000
N          13.087000     15.522000    -10.148000
S          11.574000     16.977000     -8.583000
C          13.948000     16.366000     -9.608000
C          13.352000     17.217000     -8.637000
C          -0.622000     13.052000    -15.188000
H           1.420000     14.766000    -16.224000
H           3.592000     15.163000    -15.164000
H           2.410000     12.620000    -11.923000
H           5.677000     13.843000    -14.672000
H          11.871000     12.149000    -13.876000
H          12.868000     13.448000    -11.708000
H          15.011000     16.242000     -9.768000
H          13.972000     17.934000     -8.116000
H          -0.495000     12.992000    -16.276000
C          -1.705000     14.106000    -14.771000
H          -0.885000     12.042000    -14.852000
H          -1.506000     14.444000    -13.746000
H          -2.689000     13.645000    -14.918000
C          -1.719000     15.361000    -15.653000
H          -0.852000     16.028000    -15.568000
C          -2.994000     16.173000    -15.450000
H          -1.734000     15.065000    -16.710000
H          -3.089000     16.573000    -14.433000
H          -3.800000     15.441000    -15.579000
C          -3.077000     17.466000    -16.242000
H          -3.917000     18.079000    -15.891000
C          -3.349000     17.164000    -17.717000
H          -2.182000     18.063000    -16.027000
H          -4.302000     16.643000    -17.871000
H          -2.474000     16.628000    -18.105000
H          -3.368000     18.106000    -18.278000
$end

--------------------------------------------------------------

             Standard Nuclear Orientation (Angstroms)
    I     Atom           X                Y                Z
 ----------------------------------------------------------------
    1      C      -6.8568985962    -6.0111653734    -1.5814132625
    2      C      -5.8950384946    -5.3723063275    -2.3653566689
    3      N      -7.8331274364    -5.3545334121    -0.8700893426
    4      C      -5.9634878447    -3.9771662480    -2.4622320788
    5      C      -7.8436541188    -4.0210569584    -0.9784347924
    6      C      -6.9011237634    -3.2663776529    -1.6181352497
    7      C      -6.8026486782    -1.6889449472    -1.4534697808
    8      C      -7.0093900448    -1.1572428493    -0.1784690410
    9      C      -6.4460197095    -0.7729520312    -2.4237840373
   10      N      -6.9464218774     0.1612888101     0.0923967434
   11      N      -6.1290461638    -1.1271733132    -3.6838039001
   12      C      -6.3082168978     0.6187600991    -2.2242302063
   13      C      -6.5174345862     1.0509569744    -0.8447470350
   14      S      -5.8154308713     0.2393862946    -4.4779237188
   15      N      -5.9685210443     1.3779259935    -3.2555981677
   16      C      -6.1371542981     2.4750875649    -0.4382277071
   17      S      -5.0510415337     3.6746350399    -1.2369954569
   18      C      -6.5438886574     3.0185803188     0.7334445113
   19      C      -5.2212840696     4.8482249691     0.0681689607
   20      S      -7.8639559702     2.6462801534     1.7575523554
   21      C      -5.9434394003     4.2768295965     1.0517877927
   22      C      -4.8797852818     6.2229408146    -0.0803434026
   23      C      -7.3651220438     4.0196558663     2.7815649846
   24      C      -6.3431029413     4.8094348040     2.2864001800
   25      N      -5.5202839078     7.1497324394     0.6552494157
   26      S      -3.7993718244     6.7703623212    -1.2577207656
   27      C      -5.1722238890     8.4367106899     0.2108585897
   28      C      -4.2582236525     8.4019186734    -0.8228140293
   29      C      -6.6224782313    -7.4960524455    -1.2878856225
   30      H      -5.1426543537    -6.0274453194    -2.7947935162
   31      H      -5.1574952759    -3.4323662997    -2.9452382852
   32      H      -8.5757668656    -3.4263895381    -0.4345197392
   33      H      -7.1607705347    -1.9000670919     0.6037317592
   34      H      -7.8882637064     4.0912750435     3.7252357399
   35      H      -6.1529479613     5.8087001962     2.6605014492
   36      H      -5.7334673054     9.2697379749     0.6130194654
   37      H      -3.8166934614     9.2149131603    -1.3828453273
   38      H      -7.5373698895    -7.8981765364    -0.8351876333
   39      C      -5.4161867009    -7.7119831910    -0.3209581915
   40      H      -6.4907057942    -8.0819248966    -2.2053514234
   41      H      -5.6565470169    -7.3512228715     0.6863530367
   42      H      -4.6052606059    -7.0336141298    -0.6151762827
   43      C      -4.9862474639    -9.1930120974    -0.0733705688
   44      H      -5.8829980937    -9.6960491852     0.3095315026
   45      C      -3.8502448605    -9.5539238959     0.8248330600
   46      H      -4.7567385040    -9.6286545441    -1.0540939222
   47      H      -2.9623786024    -9.4854908472     0.1837500500
   48      H      -3.9957807522   -10.6070883081     1.0965940304
   49      C      -3.7035595139    -8.6920599954     2.1605523517
   50      H      -3.2844462637    -7.7338912244     1.8320440720
   51      C      -2.7473734658    -9.3646806649     3.1300412255
   52      H      -4.6435917411    -8.4075768447     2.6498761185
   53      H      -3.1703060448   -10.2202776015     3.6706519133
   54      H      -2.6308864322    -8.6557176735     3.9597690411
   55      H      -1.7878423902    -9.5294279607     2.6246824981
   56      C      11.2822760605    -1.3672756117    -0.4513120920
   57      C      10.9409200363    -0.4289990632     0.5447798632
   58      N      10.2669481930    -1.9221953441    -1.1561166124
   59      C       9.6040421938    -0.2058521211     0.8857917051
   60      C       8.9879956360    -1.5584791784    -0.9970414481
   61      C       8.6192719879    -0.7110465368     0.0723335046
   62      C       7.1693152738    -0.4431371949     0.3434204126
   63      C       6.6040999695    -0.4669294572     1.6730878853
   64      C       6.2505813150    -0.2528717875    -0.6396604527
   65      N       5.3116077862    -0.3880556667     2.0347920204
   66      N       6.5893049882    -0.2132219990    -1.9673080594
   67      C       4.9139228256    -0.1151179895    -0.3487481400
   68      C       4.4551871995    -0.2027381628     0.9932512380
   69      S       5.2331112052    -0.0111472522    -2.7816926244
   70      N       4.2630417878     0.0126261412    -1.4670469873
   71      C       2.9878057558    -0.0892243585     1.3018534331
   72      S       1.8086669811     1.1164139660     0.6376975925
   73      C       2.4223468385    -0.7236416296     2.4061722001
   74      C       0.6374678439     0.7999428595     1.9133494336
   75      S       3.0974509025    -1.9693125714     3.4239032095
   76      C       1.1415803280    -0.2203245382     2.7392338326
   77      C      -0.5317123893     1.6557780967     2.1292212218
   78      C       1.7157435505    -1.4952586215     4.5826558345
   79      C       0.6937565182    -0.8174114104     3.9214783515
   80      N      -1.2369727877     1.5475555282     3.2053144548
   81      S      -0.8687798241     2.9310383729     1.0130945389
   82      C      -2.2011102737     2.4490058916     3.2608405788
   83      C      -2.2507733506     3.2762431911     2.1052151944
   84      C      12.6216430417    -1.8083834596    -0.8091122544
   85      H      11.6935810825     0.0101682040     1.1939920481
   86      H       9.3430270644     0.5511616028     1.6194505659
   87      H       8.2253202458    -2.0126642128    -1.6279457226
   88      H       7.3025182220    -0.6347130853     2.4922127834
   89      H       1.7613405755    -1.9437340955     5.5664122376
   90      H      -0.2524113426    -0.5573449872     4.3813542421
   91      H      -2.9666550954     2.3866317701     4.0230712492
   92      H      -3.0172990793     4.0362456875     2.0361897454
   93      H      13.1619297110    -1.8758125934     0.1432619509
   94      C      13.3032065387    -0.8153865473    -1.8126671017
   95      H      12.5764366795    -2.8275384880    -1.2109137141
   96      H      12.5542402777    -0.4518490885    -2.5277615401
   97      H      14.1544963773    -1.3364519914    -2.2667402388
   98      C      13.9086500357     0.4241281788    -1.1417077768
   99      H      13.1997153503     1.1429392102    -0.7121436803
  100      C      14.8577114341     1.1611129910    -2.0810234046
  101      H      14.5312394153     0.1130780188    -0.2927553268
  102      H      14.3530468400     1.5688266129    -2.9655556255
  103      H      15.5401117297     0.3804631039    -2.4374172744
  104      C      15.4672919613     2.4356790519    -1.5243413255
  105      H      15.9680327224     3.0021337241    -2.3199277725
  106      C      16.5439412395     2.0974413813    -0.4912708487
  107      H      14.6547817104     3.0881074891    -1.1810874450
  108      H      17.3711095978     1.5182471718    -0.9198645662
  109      H      16.0413993519     1.6094209168     0.3529759621
  110      H      16.9452521546     3.0287160987    -0.0739904273
 ----------------------------------------------------------------

    9   -5663.4661423926      7.69E-06 Convergence criterion met
 Total energy in the final basis set = -5663.4661423926

                    Orbital Energies (a.u.)
 --------------------------------------------------------------

 Alpha MOs
 -- Occupied --
-88.991 -88.987 -88.932 -88.927 -88.924 -88.921 -88.910 -88.904
-14.392 -14.386 -14.369 -14.369 -14.355 -14.355 -14.346 -14.335
-14.334 -14.321 -10.276 -10.270 -10.264 -10.264 -10.259 -10.256
-10.246 -10.245 -10.242 -10.241 -10.240 -10.240 -10.238 -10.237
-10.237 -10.235 -10.232 -10.230 -10.228 -10.228 -10.227 -10.227
-10.227 -10.225 -10.225 -10.224 -10.222 -10.222 -10.218 -10.216
-10.208 -10.207 -10.207 -10.204 -10.201 -10.197 -10.197 -10.197
-10.188 -10.187 -10.184 -10.183 -10.180 -10.178 -10.178 -10.176
-10.176 -10.172 -10.171 -10.171  -8.046  -8.043  -7.995  -7.988
 -7.983  -7.980  -7.971  -7.964  -6.012  -6.008  -6.006  -6.004
 -6.003  -6.001  -5.958  -5.955  -5.952  -5.952  -5.949  -5.947
 -5.945  -5.944  -5.944  -5.941  -5.939  -5.936  -5.935  -5.932
 -5.928  -5.927  -5.926  -5.920  -1.044  -1.043  -0.980  -0.967
 -0.957  -0.954  -0.937  -0.935  -0.918  -0.913  -0.902  -0.897
 -0.846  -0.841  -0.833  -0.828  -0.814  -0.812  -0.808  -0.806
 -0.806  -0.802  -0.797  -0.790  -0.788  -0.788  -0.768  -0.761
 -0.753  -0.746  -0.746  -0.739  -0.720  -0.714  -0.714  -0.710
 -0.700  -0.693  -0.676  -0.671  -0.658  -0.651  -0.648  -0.644
 -0.636  -0.631  -0.626  -0.624  -0.613  -0.609  -0.603  -0.599
 -0.597  -0.590  -0.588  -0.584  -0.581  -0.572  -0.563  -0.555
 -0.553  -0.548  -0.538  -0.536  -0.531  -0.521  -0.516  -0.507
 -0.503  -0.501  -0.500  -0.496  -0.492  -0.487  -0.477  -0.475
 -0.474  -0.473  -0.471  -0.468  -0.460  -0.460  -0.450  -0.447
 -0.444  -0.443  -0.441  -0.440  -0.436  -0.432  -0.430  -0.429
 -0.428  -0.427  -0.425  -0.423  -0.419  -0.419  -0.415  -0.412
 -0.410  -0.407  -0.407  -0.404  -0.398  -0.398  -0.397  -0.396
 -0.396  -0.395  -0.393  -0.389  -0.389  -0.389  -0.388  -0.386
 -0.382  -0.377  -0.373  -0.368  -0.368  -0.363  -0.358  -0.356
 -0.354  -0.352  -0.352  -0.348  -0.345  -0.342  -0.341  -0.340
 -0.340  -0.338  -0.337  -0.333  -0.331  -0.327  -0.327  -0.323
 -0.321  -0.309  -0.308  -0.307  -0.305  -0.301  -0.299  -0.297
 -0.293  -0.293  -0.292  -0.290  -0.285  -0.283  -0.283  -0.280
 -0.278  -0.272  -0.269  -0.261  -0.258  -0.255  -0.245  -0.245
 -0.238  -0.237  -0.236  -0.226  -0.198  -0.188

          Ground-State Mulliken Net Atomic Charges

     Atom                 Charge (a.u.)
  ----------------------------------------
      1 C                     0.249788
      2 C                    -0.093727
      3 N                    -0.476357
      4 C                    -0.071268
      5 C                     0.071284
      6 C                     0.045715
      7 C                     0.046282
      8 C                     0.059281
      9 C                     0.200546
     10 N                    -0.515539
     11 N                    -0.534365
     12 C                     0.238237
     13 C                     0.270550
     14 S                     0.590873
     15 N                    -0.572963
     16 C                    -0.214897
     17 S                     0.298568
     18 C                    -0.080949
     19 C                    -0.242637
     20 S                     0.282250
     21 C                     0.130581
     22 C                     0.071750
     23 C                    -0.308238
     24 C                    -0.049333
     25 N                    -0.448140
     26 S                     0.282088
     27 C                     0.124813
     28 C                    -0.313145
     29 C                    -0.232728
     30 H                     0.100350
     31 H                     0.110416
     32 H                     0.096708
     33 H                     0.122468
     34 H                     0.126072
     35 H                     0.137945
     36 H                     0.123753
     37 H                     0.133292
     38 H                     0.116818
     39 C                    -0.182734
     40 H                     0.101447
     41 H                     0.108848
     42 H                     0.088804
     43 C                    -0.182547
     44 H                     0.093423
     45 C                    -0.173919
     46 H                     0.082977
     47 H                     0.091521
     48 H                     0.095892
     49 C                    -0.183784
     50 H                     0.100427
     51 C                    -0.314993
     52 H                     0.095837
     53 H                     0.105186
     54 H                     0.096840
     55 H                     0.107598
     56 C                     0.277504
     57 C                    -0.125969
     58 N                    -0.488383
     59 C                    -0.084171
     60 C                     0.117351
     61 C                     0.039278
     62 C                     0.024235
     63 C                     0.049488
     64 C                     0.182183
     65 N                    -0.479029
     66 N                    -0.557073
     67 C                     0.292392
     68 C                     0.241918
     69 S                     0.610256
     70 N                    -0.587517
     71 C                    -0.217710
     72 S                     0.292349
     73 C                    -0.098459
     74 C                    -0.231682
     75 S                     0.245954
     76 C                     0.173879
     77 C                     0.091856
     78 C                    -0.285211
     79 C                    -0.075325
     80 N                    -0.419455
     81 S                     0.265565
     82 C                     0.117714
     83 C                    -0.315097
     84 C                    -0.229441
     85 H                     0.084123
     86 H                     0.102525
     87 H                     0.113644
     88 H                     0.102519
     89 H                     0.128310
     90 H                     0.128904
     91 H                     0.118671
     92 H                     0.128796
     93 H                     0.096743
     94 C                    -0.172948
     95 H                     0.120356
     96 H                     0.116307
     97 H                     0.096755
     98 C                    -0.177613
     99 H                     0.090602
    100 C                    -0.166855
    101 H                     0.090198
    102 H                     0.085443
    103 H                     0.085492
    104 C                    -0.182330
    105 H                     0.090810
    106 C                    -0.312296
    107 H                     0.093379
    108 H                     0.106807
    109 H                     0.102763
    110 H                     0.094526
  ----------------------------------------
  Sum of atomic charges =     0.000000

                    Cartesian Multipole Moments
 -----------------------------------------------------------------
    Charge (ESU x 10^10)
                 0.0000
    Dipole Moment (Debye)
         X       1.4241      Y       3.1074      Z      -0.7513
       Tot       3.4998
    Quadrupole Moments (Debye-Ang)
        XX    -449.7469     XY      -6.9200     YY    -411.4684
        XZ       0.8056     YZ      -2.7329     ZZ    -429.3718

 Total job time:  84.59s(wall), 906.73s(cpu)
        *  Thank you very much for using Q-Chem.  Have a nice day.  *
