 Q-Chem 4.4, Q-Chem, Inc., Pleasanton, CA (2016)
 Q-Chem 4.4.2 for Intel X86 Linux

User input:
--------------------------------------------------------------
$comment
SP
$end

$rem
MEM_STATIC 5000
MEM_TOTAL 20000
JOBTYPE SP
EXCHANGE B3LYP
BASIS 6-31g(d,p)
$end

$molecule
0 1
C           1.881000     19.603000     10.990000
C           3.262000     19.890000     11.033000
N           1.274000     18.867000     10.017000
C           4.061000     19.367000      9.974000
C           2.009000     18.528000      8.971000
C           3.456000     18.636000      8.947000
C           4.249000     18.107000      7.830000
C           5.451000     17.358000      8.074000
C           3.897000     18.088000      6.446000
N           6.313000     16.885000      7.147000
N           2.753000     18.551000      5.970000
C           4.766000     17.536000      5.425000
C           6.051000     17.064000      5.799000
S           2.736000     18.317000      4.322000
N           4.190000     17.589000      4.180000
C           7.107000     16.580000      4.924000
S           8.389000     15.450000      5.392000
C           7.349000     16.994000      3.582000
C           9.360000     15.859000      3.980000
S           6.436000     17.826000      2.390000
C           8.615000     16.623000      3.112000
C          10.737000     15.368000      3.807000
C           7.801000     17.938000      1.359000
C           8.844000     17.174000      1.825000
N          11.237000     15.402000      2.615000
S          11.740000     14.868000      5.081000
C          12.489000     14.919000      2.555000
C          12.998000     14.692000      3.867000
C           0.876000     20.133000     12.021000
H           3.644000     20.434000     11.892000
H           5.141000     19.483000      9.939000
H           1.435000     18.002000      8.210000
H           5.661000     17.181000      9.128000
H           7.725000     18.398000      0.382000
H           9.732000     16.906000      1.265000
H          12.992000     14.975000      1.599000
H          14.041000     14.491000      4.073000
H           1.237000     21.141000     12.259000
C           0.958000     19.260000     13.317000
H          -0.181000     20.220000     11.742000
H           0.539000     19.807000     14.171000
H           1.999000     19.108000     13.630000
C           0.389000     17.885000     13.086000
H          -0.699000     17.972000     12.979000
C           0.751000     16.796000     14.160000
H           0.578000     17.379000     12.130000
H           1.835000     16.629000     14.206000
H           0.321000     15.852000     13.804000
C           0.335000     17.093000     15.673000
H           0.879000     17.957000     16.073000
C           0.542000     15.839000     16.597000
H          -0.678000     17.513000     15.683000
H           1.575000     15.708000     16.941000
H           0.223000     14.963000     16.019000
H          -0.140000     15.914000     17.454000
C         -11.006000     13.463000      2.821000
C          -9.902000     12.919000      2.027000
N         -11.013000     14.724000      3.276000
C          -8.840000     13.840000      1.711000
C          -9.985000     15.560000      2.922000
C          -8.825000     15.184000      2.204000
C          -7.741000     16.157000      1.976000
C          -6.833000     16.102000      0.829000
C          -7.198000     16.958000      3.045000
N          -5.733000     16.911000      0.766000
N          -7.729000     16.968000      4.244000
C          -6.036000     17.694000      2.966000
C          -5.334000     17.682000      1.787000
S          -6.765000     17.876000      5.179000
N          -5.624000     18.278000      4.070000
C          -4.144000     18.479000      1.639000
S          -3.773000     20.066000      2.338000
C          -2.978000     18.008000      1.015000
C          -1.994000     19.885000      2.034000
S          -2.717000     16.477000      0.150000
C          -1.789000     18.740000      1.283000
C          -0.942000     20.717000      2.578000
C          -0.968000     16.832000      0.166000
C          -0.639000     18.028000      0.826000
N           0.361000     20.470000      2.456000
S          -1.262000     22.187000      3.348000
C           1.185000     21.342000      3.164000
C           0.473000     22.348000      3.720000
C         -12.123000     12.567000      3.376000
H          -9.805000     11.852000      1.851000
H          -8.000000     13.550000      1.088000
H          -9.990000     16.584000      3.292000
H          -7.045000     15.440000     -0.010000
H          -0.229000     16.187000     -0.288000
H           0.338000     18.432000      1.065000
H           2.263000     21.262000      3.128000
H           0.785000     23.205000      4.302000
H         -12.079000     11.545000      2.979000
C         -13.496000     13.192000      3.119000
H         -11.873000     12.403000      4.431000
H         -13.648000     13.278000      2.036000
H         -13.651000     14.130000      3.666000
C         -14.508000     12.239000      3.709000
H         -14.306000     11.262000      3.254000
C         -15.928000     12.621000      3.177000
H         -14.400000     12.191000      4.799000
H         -16.059000     12.370000      2.117000
H         -16.000000     13.699000      3.370000
C         -17.073000     11.926000      3.932000
H         -17.054000     10.877000      3.612000
C         -18.447000     12.653000      3.900000
H         -16.749000     11.940000      4.980000
H         -19.280000     12.181000      4.437000
H         -18.734000     12.823000      2.855000
H         -18.423000     13.603000      4.448000
$end

--------------------------------------------------------------

             Standard Nuclear Orientation (Angstroms)
    I     Atom           X                Y                Z
 ----------------------------------------------------------------
    1      C      -3.5148266740    -5.9166828069    -1.6963022761
    2      C      -4.9130999986    -5.7817148572    -1.8304453428
    3      N      -2.7009250765    -4.9918118498    -1.1140206414
    4      C      -5.4961132311    -4.5858206964    -1.3172750718
    5      C      -3.2442110610    -3.8306242681    -0.7888349419
    6      C      -4.6775180955    -3.6076944574    -0.7443125386
    7      C      -5.2461430039    -2.3549775608    -0.2307513538
    8      C      -6.3741520927    -2.3723626816     0.6595487378
    9      C      -4.7118272760    -1.0374908480    -0.3666059247
   10      N      -7.0427165432    -1.3012545671     1.1410578059
   11      N      -3.5763322346    -0.7629761428    -0.9870684035
   12      C      -5.3654326191     0.1328907712     0.1859453587
   13      C      -6.6249381840    -0.0201523299     0.8216406799
   14      S      -3.3111141353     0.8778925307    -0.8967447841
   15      N      -4.6377597828     1.2761600079    -0.0332296755
   16      C      -7.4900980682     1.0280890142     1.3390432884
   17      S      -8.6823547739     0.8273286306     2.6342912246
   18      C      -7.5965482424     2.3590071696     0.8407971406
   19      C      -9.4961916897     2.3318436930     2.2124264341
   20      S      -6.6354195167     3.3479171467    -0.1814286808
   21      C      -8.7359095267     3.0295639509     1.3028647405
   22      C     -10.7706083024     2.7333232872     2.8303385902
   23      C      -7.8533777022     4.5530913238    -0.2349362618
   24      C      -8.8529606458     4.2948447423     0.6721710317
   25      N     -11.1066521012     3.9792864209     2.7486658595
   26      S     -11.8701095165     1.6533419822     3.5401431132
   27      C     -12.2741619692     4.2507886459     3.3549663212
   28      C     -12.9245567114     3.0438348342     3.7450985754
   29      C      -2.7261624666    -7.1148434598    -2.2406420760
   30      H      -5.4678538164    -6.6128900529    -2.2560472643
   31      H      -6.5677371126    -4.4050100649    -1.3205571824
   32      H      -2.5157759682    -3.1248793915    -0.3931336851
   33      H      -6.7015435518    -3.3707583899     0.9465432365
   34      H      -7.7012581460     5.4750275290    -0.7815606980
   35      H      -9.6203177235     4.9931375563     0.9844501718
   36      H     -12.6473972268     5.2626500288     3.2718219623
   37      H     -13.9550574769     3.0033446908     4.0723824285
   38      H      -3.2311565801    -7.3679895626    -3.1808159940
   39      C      -2.8787181268    -8.3223079181    -1.2571659184
   40      H      -1.6587647171    -6.9963922177    -2.4626563720
   41      H      -2.6449367064    -9.2631776635    -1.7711662779
   42      H      -3.9273360649    -8.4721171523    -0.9695696507
   43      C      -2.1270865411    -8.0803974424     0.0251274494
   44      H      -1.0522635711    -8.1361942391    -0.1855958301
   45      C      -2.5001366276    -9.0137351558     1.2334963275
   46      H      -2.1256443853    -7.0745127475     0.4654533524
   47      H      -3.5534873155    -8.8927487149     1.5178827008
   48      H      -1.9188905379    -8.6583690327     2.0929379496
   49      C      -2.3285146346   -10.5875278840     1.0233622272
   50      H      -3.0184945248   -10.9645169255     0.2590069344
   51      C      -2.5096248446   -11.3834944475     2.3660376614
   52      H      -1.3821169650   -10.7711642782     0.5006021237
   53      H      -3.5569848183   -11.5665062771     2.6346074951
   54      H      -2.0157659406   -10.7977901901     3.1510694479
   55      H      -1.9622741748   -12.3322435493     2.2920080300
   56      C      10.9803171054     0.7326013257     2.3267261027
   57      C      10.0640673963     1.7118770368     2.9155329916
   58      N      10.7787590107     0.1951345925     1.1152398893
   59      C       8.9537701638     2.1118653007     2.0889796393
   60      C       9.7169533680     0.6336644229     0.3660694381
   61      C       8.7157627128     1.5342811470     0.8008185474
   62      C       7.5659302579     1.8469303553    -0.0674583659
   63      C       6.8327630713     3.1129040432    -0.0138440217
   64      C       6.7945277721     0.8136372447    -0.7127912665
   65      N       5.6642144339     3.2762758064    -0.7039554252
   66      N       7.1549945353    -0.4467094041    -0.6774071229
   67      C       5.5756483055     1.0067130024    -1.3253560367
   68      C       5.0444609836     2.2718790537    -1.3389167028
   69      S       5.9747860114    -1.2949630300    -1.3954312356
   70      N       4.9538223851    -0.0648380996    -1.7666345887
   71      C       3.8001572882     2.5328600566    -2.0147940806
   72      S       3.1557867627     1.7859317267    -3.4884615111
   73      C       2.7915529839     3.3480974601    -1.4773200502
   74      C       1.4671306678     2.3527313581    -3.1461213721
   75      S       2.8297403906     4.3453293073    -0.0061377485
   76      C       1.5000094996     3.2027056215    -2.0536408304
   77      C       0.2616766831     1.9083497375    -3.8126569420
   78      C       1.0650156920     4.5548199906    -0.1708872299
   79      C       0.5129100101     3.8674464735    -1.2649411426
   80      N      -0.9752844498     2.2320252149    -3.4400132233
   81      S       0.3014251939     1.0007053348    -5.2377189386
   82      C      -1.9830595047     1.5903853478    -4.1564709818
   83      C      -1.4746174927     0.8701296026    -5.1815731142
   84      C      12.1097439090     0.0870564471     3.1429349638
   85      H      10.1169484837     1.9733163759     3.9680191257
   86      H       8.2446721207     2.8670245893     2.4126205114
   87      H       9.5525347042     0.1968012866    -0.6176063739
   88      H       7.2313390094     3.9567805381     0.5484003050
   89      H       0.4741222484     5.1532521375     0.5080721974
   90      H      -0.5277876627     3.7430932780    -1.5412573322
   91      H      -3.0296716959     1.7854566571    -3.9658664027
   92      H      -1.9599040579     0.2807904923    -5.9481847256
   93      H      12.2391743154     0.5560101508     4.1264791640
   94      C      13.4222617440     0.1014274364     2.3562371771
   95      H      11.7413372150    -0.9075118708     3.4213795160
   96      H      13.7071068724     1.1430361615     2.1630959943
   97      H      13.3917500667    -0.5256702409     1.4568509749
   98      C      14.4503304171    -0.5597312208     3.2430274755
   99      H      14.4268056817    -0.0140553431     4.1938389307
  100      C      15.8744022102    -0.2637497758     2.6687779546
  101      H      14.2034020645    -1.6171654507     3.3944449059
  102      H      16.1748864390     0.7814636522     2.8136921292
  103      H      15.7933532627    -0.5391633091     1.6094878839
  104      C      16.9810510615    -1.1246641515     3.2998324352
  105      H      17.1279060092    -0.7334378100     4.3140008503
  106      C      18.2524388509    -1.3396400660     2.4310473956
  107      H      16.5199593083    -2.1140640689     3.4091859840
  108      H      19.0552548542    -1.9561752787     2.8557976709
  109      H      18.6552118071    -0.3606455432     2.1435797102
  110      H      18.0442474504    -1.9429848887     1.5388527051
 ----------------------------------------------------------------

    9   -5663.5069250883      8.06E-06 Convergence criterion met
 Total energy in the final basis set = -5663.5069250883

                    Orbital Energies (a.u.)
 --------------------------------------------------------------

 Alpha MOs
 -- Occupied --
-88.986 -88.982 -88.936 -88.927 -88.925 -88.920 -88.911 -88.908
-14.383 -14.382 -14.378 -14.369 -14.351 -14.346 -14.339 -14.338
-14.331 -14.325 -10.269 -10.267 -10.262 -10.258 -10.256 -10.253
-10.252 -10.250 -10.245 -10.245 -10.243 -10.243 -10.242 -10.238
-10.237 -10.237 -10.236 -10.234 -10.233 -10.232 -10.230 -10.229
-10.229 -10.228 -10.227 -10.224 -10.220 -10.220 -10.218 -10.217
-10.215 -10.214 -10.211 -10.210 -10.205 -10.204 -10.197 -10.191
-10.187 -10.185 -10.180 -10.178 -10.176 -10.175 -10.175 -10.174
-10.173 -10.173 -10.172 -10.170  -8.042  -8.036  -7.997  -7.985
 -7.984  -7.983  -7.970  -7.969  -6.007  -6.002  -6.001  -5.999
 -5.996  -5.994  -5.961  -5.958  -5.955  -5.950  -5.948  -5.947
 -5.946  -5.944  -5.943  -5.941  -5.940  -5.940  -5.935  -5.933
 -5.931  -5.929  -5.926  -5.925  -1.052  -1.022  -0.986  -0.965
 -0.956  -0.942  -0.937  -0.931  -0.918  -0.914  -0.902  -0.894
 -0.852  -0.836  -0.830  -0.825  -0.815  -0.812  -0.807  -0.801
 -0.800  -0.796  -0.794  -0.791  -0.775  -0.774  -0.767  -0.760
 -0.751  -0.746  -0.740  -0.736  -0.726  -0.718  -0.709  -0.706
 -0.693  -0.689  -0.677  -0.668  -0.657  -0.646  -0.646  -0.639
 -0.639  -0.629  -0.627  -0.624  -0.610  -0.608  -0.602  -0.594
 -0.593  -0.590  -0.586  -0.581  -0.577  -0.575  -0.566  -0.558
 -0.551  -0.546  -0.540  -0.536  -0.523  -0.519  -0.511  -0.510
 -0.505  -0.505  -0.502  -0.497  -0.486  -0.482  -0.482  -0.478
 -0.474  -0.472  -0.471  -0.468  -0.457  -0.451  -0.446  -0.444
 -0.444  -0.442  -0.438  -0.436  -0.434  -0.432  -0.432  -0.431
 -0.429  -0.428  -0.426  -0.421  -0.420  -0.419  -0.413  -0.412
 -0.410  -0.410  -0.402  -0.400  -0.397  -0.396  -0.396  -0.395
 -0.392  -0.392  -0.391  -0.390  -0.386  -0.382  -0.380  -0.380
 -0.379  -0.376  -0.374  -0.372  -0.367  -0.364  -0.360  -0.355
 -0.352  -0.351  -0.350  -0.347  -0.346  -0.341  -0.341  -0.340
 -0.337  -0.336  -0.332  -0.330  -0.327  -0.323  -0.318  -0.314
 -0.314  -0.312  -0.307  -0.302  -0.301  -0.298  -0.296  -0.296
 -0.293  -0.292  -0.288  -0.285  -0.284  -0.282  -0.281  -0.275
 -0.274  -0.268  -0.262  -0.262  -0.255  -0.252  -0.250  -0.249
 -0.244  -0.242  -0.229  -0.229  -0.195  -0.189

          Ground-State Mulliken Net Atomic Charges

     Atom                 Charge (a.u.)
  ----------------------------------------
      1 C                     0.261298
      2 C                    -0.112277
      3 N                    -0.460003
      4 C                    -0.086068
      5 C                     0.096393
      6 C                     0.024855
      7 C                     0.039226
      8 C                     0.060221
      9 C                     0.224001
     10 N                    -0.515183
     11 N                    -0.580442
     12 C                     0.233269
     13 C                     0.278003
     14 S                     0.608885
     15 N                    -0.571149
     16 C                    -0.231247
     17 S                     0.310461
     18 C                    -0.129346
     19 C                    -0.235781
     20 S                     0.303970
     21 C                     0.170170
     22 C                     0.071828
     23 C                    -0.324090
     24 C                    -0.055813
     25 N                    -0.411416
     26 S                     0.290568
     27 C                     0.119007
     28 C                    -0.321582
     29 C                    -0.219538
     30 H                     0.096805
     31 H                     0.103443
     32 H                     0.115868
     33 H                     0.107729
     34 H                     0.132371
     35 H                     0.119040
     36 H                     0.120142
     37 H                     0.131076
     38 H                     0.090897
     39 C                    -0.182748
     40 H                     0.118918
     41 H                     0.094235
     42 H                     0.089808
     43 C                    -0.176610
     44 H                     0.087541
     45 C                    -0.183832
     46 H                     0.115753
     47 H                     0.089899
     48 H                     0.087781
     49 C                    -0.182904
     50 H                     0.090202
     51 C                    -0.321333
     52 H                     0.091416
     53 H                     0.107365
     54 H                     0.105889
     55 H                     0.102221
     56 C                     0.261395
     57 C                    -0.130613
     58 N                    -0.478073
     59 C                    -0.092794
     60 C                     0.082274
     61 C                     0.069593
     62 C                     0.004292
     63 C                     0.050883
     64 C                     0.240550
     65 N                    -0.516337
     66 N                    -0.538473
     67 C                     0.226227
     68 C                     0.280487
     69 S                     0.591177
     70 N                    -0.556035
     71 C                    -0.196995
     72 S                     0.317083
     73 C                    -0.128212
     74 C                    -0.242767
     75 S                     0.276263
     76 C                     0.174951
     77 C                     0.091596
     78 C                    -0.315271
     79 C                    -0.055395
     80 N                    -0.477202
     81 S                     0.254258
     82 C                     0.139584
     83 C                    -0.313626
     84 C                    -0.225454
     85 H                     0.100762
     86 H                     0.093113
     87 H                     0.113214
     88 H                     0.119633
     89 H                     0.131805
     90 H                     0.130054
     91 H                     0.126908
     92 H                     0.133882
     93 H                     0.092842
     94 C                    -0.160788
     95 H                     0.121905
     96 H                     0.098012
     97 H                     0.124475
     98 C                    -0.180561
     99 H                     0.084869
    100 C                    -0.178518
    101 H                     0.095490
    102 H                     0.091258
    103 H                     0.090577
    104 C                    -0.175050
    105 H                     0.090508
    106 C                    -0.320771
    107 H                     0.089354
    108 H                     0.099813
    109 H                     0.101378
    110 H                     0.103280
  ----------------------------------------
  Sum of atomic charges =     0.000000

                    Cartesian Multipole Moments
 -----------------------------------------------------------------
    Charge (ESU x 10^10)
                 0.0000
    Dipole Moment (Debye)
         X      -3.5706      Y       0.3950      Z       0.4812
       Tot       3.6244
    Quadrupole Moments (Debye-Ang)
        XX    -390.9584     XY      -7.3317     YY    -431.8514
        XZ      11.3046     YZ      17.9377     ZZ    -426.7368

 Total job time:  84.58s(wall), 887.62s(cpu)
        *  Thank you very much for using Q-Chem.  Have a nice day.  *
