 Q-Chem 4.4, Q-Chem, Inc., Pleasanton, CA (2016)
 Q-Chem 4.4.2 for Intel X86 Linux

User input:
--------------------------------------------------------------
$comment
SP
$end

$rem
MEM_STATIC 5000
MEM_TOTAL 20000
JOBTYPE SP
EXCHANGE B3LYP
BASIS 6-31g(d,p)
$end

$molecule
0 1
C           3.595000    -18.116000     -6.109000
C           3.152000    -18.434000     -4.811000
N           2.898000    -17.358000     -6.946000
C           1.887000    -17.885000     -4.488000
C           1.719000    -16.843000     -6.607000
C           1.077000    -17.123000     -5.336000
C          -0.243000    -16.634000     -4.898000
C          -0.490000    -15.249000     -4.961000
C          -1.274000    -17.414000     -4.444000
N          -1.691000    -14.726000     -4.548000
N          -1.297000    -18.740000     -4.437000
C          -2.527000    -16.819000     -4.046000
C          -2.692000    -15.462000     -4.038000
S          -2.874000    -19.134000     -4.011000
N          -3.519000    -17.692000     -3.603000
C          -3.773000    -14.715000     -3.391000
S          -4.858000    -15.327000     -2.090000
C          -4.178000    -13.445000     -3.779000
C          -5.549000    -13.761000     -1.954000
S          -3.626000    -12.350000     -5.094000
C          -5.155000    -12.911000     -3.011000
C          -6.595000    -13.546000     -1.007000
C          -4.929000    -11.211000     -4.633000
C          -5.628000    -11.676000     -3.523000
N          -6.939000    -12.301000     -0.784000
S          -7.093000    -14.626000      0.230000
C          -7.642000    -12.182000      0.403000
C          -7.682000    -13.296000      1.147000
C           4.933000    -18.573000     -6.630000
H           3.579000    -19.200000     -4.170000
H           1.524000    -18.153000     -3.499000
H           1.262000    -16.167000     -7.329000
H           0.309000    -14.535000     -5.153000
H          -5.041000    -10.339000     -5.264000
H          -6.400000    -11.034000     -3.112000
H          -8.066000    -11.194000      0.523000
H          -7.994000    -13.544000      2.153000
H           5.090000    -19.573000     -6.207000
C           6.001000    -17.641000     -6.016000
H           5.019000    -18.617000     -7.723000
H           6.966000    -17.978000     -6.413000
H           6.079000    -17.652000     -4.921000
C           5.858000    -16.145000     -6.410000
H           6.048000    -16.088000     -7.489000
C           6.813000    -15.207000     -5.627000
H           4.852000    -15.726000     -6.285000
H           7.813000    -15.565000     -5.902000
H           6.595000    -15.187000     -4.552000
C           6.593000    -13.729000     -5.962000
H           5.531000    -13.506000     -5.804000
C           6.912000    -13.321000     -7.383000
H           7.138000    -13.192000     -5.177000
H           7.973000    -13.552000     -7.537000
H           6.809000    -12.231000     -7.448000
H           6.256000    -13.860000     -8.077000
C           5.243000    -21.699000     -3.794000
C           6.227000    -22.674000     -4.072000
N           5.577000    -20.495000     -3.299000
C           7.602000    -22.242000     -3.921000
C           6.868000    -20.158000     -3.181000
C           7.962000    -20.975000     -3.419000
C           9.428000    -20.627000     -3.305000
C          10.451000    -21.540000     -3.024000
C           9.957000    -19.352000     -3.490000
N          11.780000    -21.300000     -2.886000
N           9.179000    -18.266000     -3.723000
C          11.325000    -19.026000     -3.488000
C          12.223000    -20.031000     -3.074000
S          10.156000    -16.987000     -3.815000
N          11.553000    -17.643000     -3.605000
C          13.617000    -19.844000     -2.662000
S          14.428000    -20.802000     -1.422000
C          14.604000    -19.067000     -3.218000
C          16.018000    -20.172000     -1.781000
S          14.386000    -18.048000     -4.601000
C          15.914000    -19.222000     -2.769000
C          17.240000    -20.426000     -1.068000
C          16.128000    -17.963000     -4.676000
C          16.827000    -18.532000     -3.630000
N          17.327000    -21.584000     -0.504000
S          18.549000    -19.303000     -0.841000
C          18.536000    -21.591000      0.234000
C          19.376000    -20.527000      0.049000
C           3.788000    -22.098000     -3.752000
H           6.120000    -23.637000     -4.563000
H           8.332000    -22.997000     -4.195000
H           7.003000    -19.161000     -2.763000
H          10.168000    -22.584000     -2.898000
H          16.612000    -17.407000     -5.468000
H          17.902000    -18.477000     -3.506000
H          18.725000    -22.516000      0.761000
H          20.349000    -20.366000      0.494000
H           3.597000    -23.018000     -3.186000
C           3.210000    -22.436000     -5.198000
H           3.127000    -21.345000     -3.303000
H           3.638000    -23.395000     -5.518000
H           3.481000    -21.572000     -5.817000
C           1.653000    -22.534000     -5.230000
H           1.293000    -23.366000     -4.612000
C           1.079000    -22.625000     -6.675000
H           1.210000    -21.712000     -4.654000
H           1.549000    -23.453000     -7.219000
H           1.105000    -21.676000     -7.225000
C          -0.366000    -23.101000     -6.593000
H          -0.698000    -23.582000     -7.521000
C          -1.370000    -22.024000     -6.231000
H          -0.476000    -23.983000     -5.951000
H          -1.186000    -21.040000     -6.682000
H          -1.463000    -21.747000     -5.174000
H          -2.391000    -22.348000     -6.465000
$end

--------------------------------------------------------------

             Standard Nuclear Orientation (Angstroms)
    I     Atom           X                Y                Z
 ----------------------------------------------------------------
    1      C       1.0355394071    -1.1271561926     2.2344125062
    2      C       1.3554841448    -1.2012469591     0.8653533683
    3      N       1.9163757459    -0.7842167936     3.1657888603
    4      C       2.7073942524    -0.8931868639     0.5765748394
    5      C       3.1762330286    -0.4844311237     2.8607066103
    6      C       3.6990630192    -0.5751072827     1.5099913793
    7      C       5.0868722995    -0.3071460269     1.0910078871
    8      C       5.6640591198     0.9230126796     1.4608293727
    9      C       5.8860881561    -1.1624582154     0.3788477402
   10      N       6.9453395953     1.2438926121     1.0841923960
   11      N       5.5864636999    -2.4129898245     0.0544253612
   12      C       7.2356442469    -0.7895358772     0.0294693100
   13      C       7.7247357792     0.4509035755     0.3308618070
   14      S       7.0095494520    -3.0372629384    -0.5849110301
   15      N       7.9747473020    -1.7261511465    -0.6908920654
   16      C       8.9381343194     1.0687315678    -0.2087042727
   17      S       9.8092701993     0.5720055788    -1.7049514349
   18      C       9.6487831771     2.0728769946     0.4348321777
   19      C      10.8559795455     1.9208223759    -1.5221242145
   20      S       9.4120963541     2.8983595120     2.0145511278
   21      C      10.7066084343     2.5446082045    -0.2637266179
   22      C      11.8988316704     2.1217668322    -2.4756601452
   23      C      10.9405658435     3.7872817487     1.7295085396
   24      C      11.4778159790     3.4691033773     0.4857035646
   25      N      12.5289539812     3.2699727476    -2.4240941763
   26      S      12.0887431471     1.3031366737    -3.9717722047
   27      C      13.2098625237     3.5194572984    -3.6036958106
   28      C      12.9597075114     2.6497020321    -4.5921695061
   29      C      -0.3598824781    -1.3817719334     2.7428440028
   30      H       0.7394590312    -1.6627669585     0.0988820058
   31      H       2.9696274658    -0.9796371683    -0.4748404385
   32      H       3.8015420491    -0.1347800491     3.6815852584
   33      H       5.0672576910     1.7290410404     1.8841582474
   34      H      11.2765774376     4.4230795273     2.5381780601
   35      H      12.3719818284     3.9995547497     0.1756103926
   36      H      13.8577866726     4.3817683052    -3.5204250189
   37      H      13.1769086368     2.5980041853    -5.6509589109
   38      H      -0.7653843265    -2.1799439883     2.1087559791
   39      C      -1.1848468013    -0.1065360527     2.4609729081
   40      H      -0.4265858551    -1.6782688333     3.7971785076
   41      H      -2.1925245063    -0.3024710013     2.8464571994
   42      H      -1.2905849180     0.1762648351     1.4054762911
   43      C      -0.6732937963     1.1685906437     3.1862772796
   44      H      -0.8166983422     0.9943950949     4.2599071260
   45      C      -1.3914486606     2.4661020998     2.7327625476
   46      H       0.4008551395     1.3638760211     3.0800243503
   47      H      -2.4412202932     2.2890988329     2.9981648140
   48      H      -1.2021057241     2.7052993759     1.6789680157
   49      C      -0.8110672069     3.7215155068     3.3901844407
   50      H       0.2690040169     3.7279569022     3.2006015832
   51      C      -0.9858387490     3.8209493230     4.8891953894
   52      H      -1.2289608521     4.5485977849     2.8045917439
   53      H      -2.0669815687     3.8077612166     5.0729187612
   54      H      -0.6198335047     4.8061235062     5.2028926794
   55      H      -0.4630628448     2.9894664116     5.3768781982
   56      C      -1.4900726926    -3.5376575739    -0.7191928520
   57      C      -2.6739677831    -4.2993300761    -0.5991411386
   58      N      -1.5342294695    -2.2044890333    -0.8832319365
   59      C      -3.9063866607    -3.5404747922    -0.5261180726
   60      C      -2.7074112125    -1.5624930103    -0.8080009296
   61      C      -3.9606463414    -2.1403492033    -0.6797319462
   62      C      -5.3007720768    -1.4489714108    -0.5832137544
   63      C      -6.5214453579    -2.0028722376    -0.9859663022
   64      C      -5.4997785788    -0.1753739769    -0.0559216260
   65      N      -7.7555171374    -1.4383760546    -0.9499676576
   66      N      -4.4759276602     0.6093510911     0.3622946628
   67      C      -6.7473980109     0.4447318654     0.1354379754
   68      C      -7.8725024244    -0.1908535754    -0.4284735479
   69      S      -5.1107589575     2.0126007003     0.8384393448
   70      N      -6.6299944763     1.7681202294     0.5971972721
   71      C      -9.1893336385     0.4075594316    -0.6647073868
   72      S     -10.2393496668     0.0039358922    -2.0239863790
   73      C      -9.9440519798     1.2243382296     0.1417085235
   74      C     -11.6194552992     0.8699731164    -1.3921881757
   75      S      -9.4507384522     1.7850636744     1.7040153881
   76      C     -11.2633339027     1.4912012764    -0.2188539845
   77      C     -12.8840301721     1.0899698015    -2.0391973329
   78      C     -11.1176097022     2.2447402665     1.9441230028
   79      C     -11.9597593149     2.1325479253     0.8556952797
   80      N     -13.2635169161     0.1626399372    -2.8532477821
   81      S     -13.8866750050     2.5026776037    -1.8807706792
   82      C     -14.4561760343     0.6182370548    -3.4667373862
   83      C     -15.0079865838     1.7645621159    -2.9633836618
   84      C      -0.1768969853    -4.2352604807    -0.9778620350
   85      H      -2.7915748978    -5.3529050559    -0.3623979684
   86      H      -4.7906720907    -4.1523628421    -0.3790354673
   87      H      -2.6068797661    -0.4888893433    -0.9636498753
   88      H      -6.5034773748    -3.0177721516    -1.3803725852
   89      H     -11.4322383213     2.6792535476     2.8837309214
   90      H     -12.9920439836     2.4614232813     0.8397151995
   91      H     -14.8771171818    -0.0759325863    -4.1808886723
   92      H     -15.9236714407     2.2504893246    -3.2733368690
   93      H      -0.2290813002    -5.0018722766    -1.7606903378
   94      C       0.3378425257    -5.0489298770     0.2918739018
   95      H       0.6356045626    -3.5654676814    -1.2889083993
   96      H      -0.3019147373    -5.9333355326     0.4093570103
   97      H       0.3001826217    -4.3300027223     1.1194145219
   98      C       1.8248280034    -5.5054028442     0.1678431828
   99      H       1.9565891138    -6.2148516965    -0.6586369052
  100      C       2.3955979339    -6.0856158952     1.4957575256
  101      H       2.4394772689    -4.6889082746    -0.2312205943
  102      H       1.7525069541    -6.8935298916     1.8647141166
  103      H       2.6144337979    -5.3254629958     2.2560570943
  104      C       3.6793898248    -6.8432882898     1.1808989488
  105      H       3.9078880906    -7.6049204001     1.9361962884
  106      C       4.9053271972    -5.9691480187     1.0021663397
  107      H       3.5559697032    -7.5365217790     0.3404331238
  108      H       4.9769493819    -5.1150369066     1.6883714626
  109      H       5.0362582842    -5.4641802645     0.0375464054
  110      H       5.8227253009    -6.5663023634     1.0650981126
 ----------------------------------------------------------------

   10   -5663.5015428839      4.40E-06 Convergence criterion met
 Total energy in the final basis set = -5663.5015428839

                    Orbital Energies (a.u.)
 --------------------------------------------------------------

 Alpha MOs
 -- Occupied --
-88.997 -88.984 -88.928 -88.928 -88.921 -88.920 -88.909 -88.904
-14.395 -14.389 -14.383 -14.377 -14.353 -14.342 -14.341 -14.337
-14.334 -14.318 -10.268 -10.264 -10.263 -10.259 -10.258 -10.254
-10.254 -10.253 -10.242 -10.240 -10.240 -10.240 -10.239 -10.237
-10.235 -10.231 -10.231 -10.229 -10.229 -10.227 -10.226 -10.226
-10.226 -10.226 -10.226 -10.225 -10.225 -10.220 -10.219 -10.218
-10.210 -10.209 -10.206 -10.206 -10.204 -10.201 -10.197 -10.190
-10.188 -10.187 -10.179 -10.178 -10.176 -10.174 -10.173 -10.171
-10.169 -10.166 -10.166 -10.164  -8.053  -8.040  -7.990  -7.987
 -7.983  -7.980  -7.970  -7.963  -6.018  -6.012  -6.012  -6.005
 -5.999  -5.997  -5.954  -5.952  -5.950  -5.948  -5.947  -5.947
 -5.944  -5.944  -5.943  -5.940  -5.940  -5.936  -5.935  -5.931
 -5.927  -5.927  -5.924  -5.919  -1.050  -1.030  -0.974  -0.974
 -0.961  -0.950  -0.947  -0.936  -0.919  -0.914  -0.908  -0.907
 -0.849  -0.842  -0.836  -0.828  -0.816  -0.814  -0.810  -0.805
 -0.801  -0.800  -0.800  -0.788  -0.787  -0.781  -0.772  -0.768
 -0.750  -0.746  -0.744  -0.735  -0.729  -0.722  -0.712  -0.703
 -0.699  -0.689  -0.676  -0.668  -0.659  -0.651  -0.650  -0.645
 -0.640  -0.635  -0.630  -0.625  -0.612  -0.606  -0.602  -0.594
 -0.594  -0.593  -0.584  -0.580  -0.579  -0.569  -0.569  -0.551
 -0.549  -0.549  -0.541  -0.534  -0.530  -0.524  -0.521  -0.515
 -0.514  -0.509  -0.501  -0.496  -0.489  -0.487  -0.481  -0.477
 -0.475  -0.475  -0.472  -0.468  -0.466  -0.453  -0.448  -0.447
 -0.442  -0.441  -0.440  -0.439  -0.438  -0.435  -0.433  -0.432
 -0.428  -0.427  -0.425  -0.424  -0.421  -0.419  -0.418  -0.416
 -0.410  -0.405  -0.403  -0.401  -0.399  -0.399  -0.397  -0.394
 -0.393  -0.390  -0.389  -0.386  -0.385  -0.383  -0.380  -0.379
 -0.379  -0.378  -0.375  -0.369  -0.365  -0.363  -0.361  -0.358
 -0.356  -0.353  -0.352  -0.347  -0.346  -0.344  -0.342  -0.339
 -0.337  -0.334  -0.334  -0.330  -0.329  -0.324  -0.323  -0.320
 -0.313  -0.312  -0.311  -0.305  -0.304  -0.300  -0.298  -0.297
 -0.293  -0.292  -0.290  -0.287  -0.285  -0.284  -0.283  -0.281
 -0.277  -0.271  -0.264  -0.260  -0.258  -0.256  -0.252  -0.246
 -0.245  -0.238  -0.236  -0.233  -0.199  -0.191

          Ground-State Mulliken Net Atomic Charges

     Atom                 Charge (a.u.)
  ----------------------------------------
      1 C                     0.255298
      2 C                    -0.110589
      3 N                    -0.464285
      4 C                    -0.087716
      5 C                     0.068682
      6 C                     0.033292
      7 C                     0.001976
      8 C                     0.065640
      9 C                     0.295284
     10 N                    -0.527868
     11 N                    -0.563396
     12 C                     0.121768
     13 C                     0.299040
     14 S                     0.599246
     15 N                    -0.535851
     16 C                    -0.206798
     17 S                     0.328856
     18 C                    -0.111966
     19 C                    -0.214375
     20 S                     0.259588
     21 C                     0.173831
     22 C                     0.050860
     23 C                    -0.305766
     24 C                    -0.061756
     25 N                    -0.426046
     26 S                     0.258259
     27 C                     0.125785
     28 C                    -0.317363
     29 C                    -0.219035
     30 H                     0.130255
     31 H                     0.090616
     32 H                     0.098296
     33 H                     0.128015
     34 H                     0.137158
     35 H                     0.121339
     36 H                     0.113270
     37 H                     0.145328
     38 H                     0.100556
     39 C                    -0.190229
     40 H                     0.108433
     41 H                     0.088990
     42 H                     0.111796
     43 C                    -0.172096
     44 H                     0.089850
     45 C                    -0.172103
     46 H                     0.100018
     47 H                     0.082583
     48 H                     0.087656
     49 C                    -0.181846
     50 H                     0.091196
     51 C                    -0.308757
     52 H                     0.082707
     53 H                     0.096496
     54 H                     0.099398
     55 H                     0.113322
     56 C                     0.283228
     57 C                    -0.109464
     58 N                    -0.492825
     59 C                    -0.109120
     60 C                     0.084527
     61 C                     0.075201
     62 C                     0.090797
     63 C                     0.038863
     64 C                     0.188422
     65 N                    -0.499212
     66 N                    -0.558194
     67 C                     0.191126
     68 C                     0.245231
     69 S                     0.639233
     70 N                    -0.515013
     71 C                    -0.212004
     72 S                     0.346081
     73 C                    -0.130857
     74 C                    -0.219784
     75 S                     0.281501
     76 C                     0.140899
     77 C                     0.062267
     78 C                    -0.297951
     79 C                    -0.080409
     80 N                    -0.415583
     81 S                     0.271472
     82 C                     0.097992
     83 C                    -0.296739
     84 C                    -0.248252
     85 H                     0.102288
     86 H                     0.099597
     87 H                     0.116944
     88 H                     0.104570
     89 H                     0.121237
     90 H                     0.115836
     91 H                     0.111293
     92 H                     0.140135
     93 H                     0.112875
     94 C                    -0.191344
     95 H                     0.112230
     96 H                     0.095075
     97 H                     0.113360
     98 C                    -0.183362
     99 H                     0.086692
    100 C                    -0.167161
    101 H                     0.107435
    102 H                     0.089843
    103 H                     0.106520
    104 C                    -0.183431
    105 H                     0.086676
    106 C                    -0.323178
    107 H                     0.089526
    108 H                     0.111844
    109 H                     0.103003
    110 H                     0.093225
  ----------------------------------------
  Sum of atomic charges =     0.000000

                    Cartesian Multipole Moments
 -----------------------------------------------------------------
    Charge (ESU x 10^10)
                 0.0000
    Dipole Moment (Debye)
         X      -1.7043      Y       0.2822      Z      -1.6964
       Tot       2.4212
    Quadrupole Moments (Debye-Ang)
        XX    -377.4641     XY     -17.7570     YY    -423.3777
        XZ     -22.5612     YZ       1.4258     ZZ    -436.8391

 Total job time:  98.16s(wall), 1079.82s(cpu)
        *  Thank you very much for using Q-Chem.  Have a nice day.  *
