 Q-Chem 4.4, Q-Chem, Inc., Pleasanton, CA (2016)
 Q-Chem 4.4.2 for Intel X86 Linux

User input:
--------------------------------------------------------------
$comment
SP
$end

$rem
MEM_STATIC 5000
MEM_TOTAL 20000
JOBTYPE SP
EXCHANGE B3LYP
BASIS 6-31g(d,p)
$end

$molecule
0 1
C          19.454000    -26.748000     13.438000
C          20.682000    -26.136000     13.225000
N          18.330000    -26.474000     12.625000
C          20.907000    -25.319000     12.060000
C          18.607000    -25.655000     11.509000
C          19.843000    -25.141000     11.127000
C          19.994000    -24.178000      9.952000
C          18.934000    -23.354000      9.523000
C          21.181000    -24.106000      9.205000
N          19.078000    -22.406000      8.532000
N          22.237000    -24.914000      9.366000
C          21.353000    -23.105000      8.258000
C          20.298000    -22.154000      8.012000
S          23.350000    -24.294000      8.328000
N          22.495000    -23.176000      7.542000
C          20.299000    -21.072000      7.056000
S          21.219000    -20.991000      5.555000
C          19.425000    -20.002000      7.098000
C          20.347000    -19.551000      4.936000
S          18.474000    -19.476000      8.486000
C          19.521000    -19.160000      5.979000
C          20.625000    -18.716000      3.825000
C          18.030000    -18.089000      7.441000
C          18.633000    -18.112000      6.209000
N          21.910000    -18.557000      3.601000
S          19.491000    -17.960000      2.757000
C          22.121000    -17.828000      2.428000
C          20.906000    -17.498000      1.827000
C          19.096000    -27.710000     14.652000
H          21.439000    -26.392000     13.961000
H          21.874000    -24.829000     12.004000
H          17.759000    -25.359000     10.892000
H          17.984000    -23.217000     10.039000
H          17.194000    -17.465000      7.729000
H          18.514000    -17.357000      5.441000
H          23.128000    -17.763000      2.037000
H          20.785000    -17.134000      0.816000
H          18.437000    -28.507000     14.287000
C          18.420000    -26.995000     15.911000
H          19.998000    -28.245000     14.973000
H          19.081000    -26.388000     16.543000
H          18.180000    -27.826000     16.585000
C          17.173000    -26.168000     15.522000
H          17.010000    -25.560000     16.420000
C          16.007000    -27.059000     15.103000
H          17.422000    -25.407000     14.772000
H          15.840000    -27.754000     15.936000
H          16.458000    -27.658000     14.302000
C          14.856000    -26.145000     14.694000
H          14.014000    -26.847000     14.725000
C          14.951000    -25.502000     13.271000
H          14.654000    -25.488000     15.549000
H          14.658000    -26.301000     12.579000
H          15.951000    -25.148000     12.992000
H          14.220000    -24.684000     13.272000
C           5.243000    -21.699000     -3.794000
C           6.227000    -22.674000     -4.072000
N           5.577000    -20.495000     -3.299000
C           7.602000    -22.242000     -3.921000
C           6.868000    -20.158000     -3.181000
C           7.962000    -20.975000     -3.419000
C           9.428000    -20.627000     -3.305000
C          10.451000    -21.540000     -3.024000
C           9.957000    -19.352000     -3.490000
N          11.780000    -21.300000     -2.886000
N           9.179000    -18.266000     -3.723000
C          11.325000    -19.026000     -3.488000
C          12.223000    -20.031000     -3.074000
S          10.156000    -16.987000     -3.815000
N          11.553000    -17.643000     -3.605000
C          13.617000    -19.844000     -2.662000
S          14.428000    -20.802000     -1.422000
C          14.604000    -19.067000     -3.218000
C          16.018000    -20.172000     -1.781000
S          14.386000    -18.048000     -4.601000
C          15.914000    -19.222000     -2.769000
C          17.240000    -20.426000     -1.068000
C          16.128000    -17.963000     -4.676000
C          16.827000    -18.532000     -3.630000
N          17.327000    -21.584000     -0.504000
S          18.549000    -19.303000     -0.841000
C          18.536000    -21.591000      0.234000
C          19.376000    -20.527000      0.049000
C           3.788000    -22.098000     -3.752000
H           6.120000    -23.637000     -4.563000
H           8.332000    -22.997000     -4.195000
H           7.003000    -19.161000     -2.763000
H          10.168000    -22.584000     -2.898000
H          16.612000    -17.407000     -5.468000
H          17.902000    -18.477000     -3.506000
H          18.725000    -22.516000      0.761000
H          20.349000    -20.366000      0.494000
H           3.597000    -23.018000     -3.186000
C           3.210000    -22.436000     -5.198000
H           3.127000    -21.345000     -3.303000
H           3.638000    -23.395000     -5.518000
H           3.481000    -21.572000     -5.817000
C           1.653000    -22.534000     -5.230000
H           1.293000    -23.366000     -4.612000
C           1.079000    -22.625000     -6.675000
H           1.210000    -21.712000     -4.654000
H           1.549000    -23.453000     -7.219000
H           1.105000    -21.676000     -7.225000
C          -0.366000    -23.101000     -6.593000
H          -0.698000    -23.582000     -7.521000
C          -1.370000    -22.024000     -6.231000
H          -0.476000    -23.983000     -5.951000
H          -1.186000    -21.040000     -6.682000
H          -1.463000    -21.747000     -5.174000
H          -2.391000    -22.348000     -6.465000
$end

--------------------------------------------------------------

             Standard Nuclear Orientation (Angstroms)
    I     Atom           X                Y                Z
 ----------------------------------------------------------------
    1      C      11.5899965564    -4.9127256562    -1.0407521588
    2      C      12.1142874457    -3.6274517598    -1.0077813423
    3      N      10.2164714616    -5.1667841091    -0.8209701841
    4      C      11.2487712355    -2.4797589908    -0.9127971441
    5      C       9.4207000384    -4.0052121074    -0.7187726938
    6      C       9.8387089856    -2.6834919090    -0.8458169261
    7      C       8.8948491149    -1.5069874295    -0.6096797748
    8      C       7.7623470012    -1.6156697718     0.2223323111
    9      C       9.0782538414    -0.2730725626    -1.2546439656
   10      N       6.9549634820    -0.5409986605     0.5301225894
   11      N      10.0038624477    -0.0290943846    -2.1914707140
   12      C       8.3132941097     0.8275722754    -0.8915853620
   13      C       7.3012211416     0.6999027731     0.1269188380
   14      S       9.8324069201     1.5789832539    -2.4835363068
   15      N       8.5144356767     1.9403872565    -1.6285018348
   16      C       6.4072830254     1.7268265195     0.6075052126
   17      S       5.8512421320     3.1427976710    -0.2823297289
   18      C       5.7082795564     1.6489218286     1.7974064730
   19      C       4.5960996291     3.5790069115     0.9224456842
   20      S       6.0613629267     0.5818690830     3.1554755330
   21      C       4.7910403669     2.6966411102     1.9743176828
   22      C       3.8021443081     4.7471902744     1.0399726126
   23      C       4.7671831701     1.4977471208     3.9916550458
   24      C       4.2281893871     2.5063995356     3.2339822881
   25      N       4.4277424639     5.8420466691     0.6703803746
   26      S       2.1523648009     4.8605074540     1.5532978453
   27      C       3.5614939859     6.9379568694     0.6924123325
   28      C       2.2804500578     6.5463990998     1.0822006945
   29      C      12.4309728504    -6.2531575093    -1.1937401323
   30      H      13.1927621796    -3.5848094133    -1.1316961459
   31      H      11.7444352598    -1.5175591939    -0.8302518494
   32      H       8.3672804894    -4.1486478624    -0.4797278483
   33      H       7.5224850791    -2.4622615532     0.8651959156
   34      H       4.3497062556     1.0952558116     4.9053999620
   35      H       3.4520644701     3.1876678116     3.5618750285
   36      H       3.8991794377     7.8692585215     0.2567510321
   37      H       1.3833111982     7.1403838112     0.9745808576
   38      H      11.8645202250    -6.9547231203    -1.8179613404
   39      C      12.8318659142    -6.9659709618     0.1790175788
   40      H      13.3346438086    -6.0528314305    -1.7820582956
   41      H      13.6313065080    -6.4912057364     0.7623585748
   42      H      13.3204403002    -7.8937328101    -0.1419030070
   43      C      11.6096713139    -7.2239597727     1.0900286282
   44      H      12.0834247383    -7.4569206002     2.0512382545
   45      C      10.6942548618    -8.3048330248     0.5219408425
   46      H      11.0809394970    -6.2895072695     1.3155573072
   47      H      11.3271253113    -9.1874571890     0.3630302426
   48      H      10.4758361268    -7.9116379333    -0.4788058169
   49      C       9.5041975368    -8.4403385198     1.4668640267
   50      H       9.1037379647    -9.4128969455     1.1562336358
   51      C       8.3896278504    -7.3497073089     1.3417202062
   52      H       9.9127750001    -8.6543924840     2.4622148980
   53      H       7.8108631034    -7.6365932717     0.4552430142
   54      H       8.7604515895    -6.3271140567     1.2004764625
   55      H       7.7917342847    -7.4383885756     2.2572227551
   56      C     -11.2663274072    -3.9328245387    -0.0332827197
   57      C     -10.6901552422    -3.6138288652    -1.2832556780
   58      N     -10.8751663185    -3.3108716600     1.0920459520
   59      C      -9.7689482648    -2.4951579505    -1.2850133157
   60      C     -10.0170460041    -2.2847450894     1.0222764233
   61      C      -9.3661100849    -1.8255145780    -0.1119011494
   62      C      -8.4011155702    -0.6686647157    -0.2291188215
   63      C      -7.3892543305    -0.5606639938    -1.1901243759
   64      C      -8.4089212386     0.4566642876     0.5914082689
   65      N      -6.4761527501     0.4320020339    -1.3442174034
   66      N      -9.2562802877     0.5877650821     1.6420101076
   67      C      -7.5872179659     1.5873837961     0.4365498666
   68      C      -6.5401216778     1.4951851495    -0.5030850481
   69      S      -8.9088621512     1.9851742407     2.3668426966
   70      N      -7.7533489844     2.5243444236     1.4723429285
   71      C      -5.3707067470     2.3732831969    -0.5998400928
   72      S      -3.7648922696     1.8443827398    -1.1045272938
   73      C      -5.2850775325     3.7410812797    -0.5058717876
   74      C      -3.1224383859     3.4642858636    -1.2350948119
   75      S      -6.6300249323     4.7879824738    -0.1997862088
   76      C      -4.0861296842     4.3641520620    -0.8465077476
   77      C      -1.7648961397     3.8460946635    -1.5134293049
   78      C      -5.5886954374     6.0935238647    -0.7083219102
   79      C      -4.2632658084     5.7823187166    -0.9382472338
   80      N      -1.0976280239     3.0313140110    -2.2600984083
   81      S      -0.9402736506     5.2412780553    -0.8812900372
   82      C       0.2305173269     3.5204603194    -2.3161324699
   83      C       0.4552571547     4.7546400155    -1.7700432029
   84      C     -12.0986204472    -5.1840323525     0.1072779515
   85      H     -10.9724142620    -3.9526307538    -2.2759500550
   86      H      -9.3873946245    -2.2421823366    -2.2690972340
   87      H      -9.7773719161    -1.8732033121     2.0021476889
   88      H      -7.3062343642    -1.3641793117    -1.9204474682
   89      H      -5.9659636889     7.1068460060    -0.7470892179
   90      H      -3.4928737590     6.5068428480    -1.1740159197
   91      H       0.8973554545     2.9166203641    -2.9159484584
   92      H       1.3850872105     5.3071757304    -1.7418412337
   93      H     -11.6456996482    -6.0713707443    -0.3517757799
   94      C     -13.5013724622    -5.0662136002    -0.6394813980
   95      H     -12.3040804564    -5.4742723069     1.1460647215
   96      H     -13.3141752417    -5.1095285881    -1.7203819542
   97      H     -13.9340952582    -4.1261069577    -0.2760966396
   98      C     -14.5031081189    -6.1966160017    -0.2475718617
   99      H     -14.1330990753    -7.1821642665    -0.5566607249
  100      C     -15.9424773530    -5.9478833397    -0.7880626301
  101      H     -14.4850119989    -6.3591378308     0.8373097842
  102      H     -15.9182854680    -5.7849946960    -1.8721761124
  103      H     -16.4933229319    -5.1692237190    -0.2458123711
  104      C     -16.7258314940    -7.2515145123    -0.6973595121
  105      H     -17.5585441935    -7.2859948947    -1.4102197110
  106      C     -17.2680146536    -7.5721512029     0.6818498752
  107      H     -16.1701542528    -8.0989144870    -1.1160767036
  108      H     -17.6491722056    -6.7121063807     1.2480254878
  109      H     -16.5763986902    -8.0051987826     1.4144917747
  110      H     -18.0432823374    -8.3454733154     0.6261190152
 ----------------------------------------------------------------

    9   -5663.4715494131      6.40E-06 Convergence criterion met
 Total energy in the final basis set = -5663.4715494131

                    Orbital Energies (a.u.)
 --------------------------------------------------------------

 Alpha MOs
 -- Occupied --
-88.996 -88.990 -88.938 -88.928 -88.924 -88.920 -88.910 -88.908
-14.394 -14.388 -14.388 -14.375 -14.352 -14.351 -14.344 -14.342
-14.341 -14.328 -10.269 -10.266 -10.265 -10.264 -10.262 -10.259
-10.257 -10.256 -10.245 -10.240 -10.239 -10.239 -10.238 -10.237
-10.237 -10.236 -10.234 -10.234 -10.233 -10.233 -10.229 -10.228
-10.228 -10.227 -10.226 -10.225 -10.225 -10.224 -10.223 -10.223
-10.220 -10.215 -10.206 -10.205 -10.205 -10.204 -10.204 -10.198
-10.194 -10.186 -10.185 -10.182 -10.180 -10.180 -10.176 -10.169
-10.168 -10.166 -10.161 -10.161  -8.052  -8.046  -7.999  -7.990
 -7.983  -7.979  -7.970  -7.970  -6.017  -6.011  -6.011  -6.010
 -6.006  -6.004  -5.963  -5.960  -5.956  -5.954  -5.950  -5.947
 -5.947  -5.943  -5.943  -5.939  -5.939  -5.935  -5.934  -5.934
 -5.931  -5.931  -5.926  -5.926  -1.050  -1.048  -0.974  -0.973
 -0.959  -0.955  -0.939  -0.920  -0.918  -0.913  -0.910  -0.905
 -0.848  -0.842  -0.833  -0.832  -0.815  -0.813  -0.812  -0.808
 -0.804  -0.800  -0.797  -0.793  -0.785  -0.778  -0.769  -0.764
 -0.749  -0.748  -0.745  -0.739  -0.721  -0.719  -0.710  -0.705
 -0.697  -0.690  -0.675  -0.675  -0.658  -0.652  -0.651  -0.649
 -0.639  -0.638  -0.628  -0.626  -0.612  -0.610  -0.603  -0.601
 -0.594  -0.593  -0.582  -0.582  -0.577  -0.576  -0.571  -0.552
 -0.550  -0.548  -0.540  -0.540  -0.528  -0.525  -0.523  -0.520
 -0.511  -0.506  -0.505  -0.501  -0.489  -0.485  -0.479  -0.476
 -0.475  -0.473  -0.472  -0.467  -0.461  -0.451  -0.449  -0.446
 -0.444  -0.440  -0.439  -0.438  -0.436  -0.432  -0.431  -0.431
 -0.428  -0.426  -0.424  -0.423  -0.420  -0.417  -0.417  -0.415
 -0.415  -0.406  -0.404  -0.402  -0.399  -0.398  -0.398  -0.397
 -0.392  -0.391  -0.391  -0.391  -0.386  -0.384  -0.380  -0.379
 -0.378  -0.377  -0.376  -0.371  -0.364  -0.361  -0.360  -0.359
 -0.356  -0.355  -0.350  -0.350  -0.345  -0.344  -0.340  -0.339
 -0.336  -0.333  -0.333  -0.332  -0.330  -0.327  -0.324  -0.322
 -0.316  -0.313  -0.310  -0.307  -0.304  -0.302  -0.301  -0.298
 -0.296  -0.294  -0.291  -0.288  -0.285  -0.283  -0.282  -0.281
 -0.279  -0.272  -0.270  -0.266  -0.261  -0.256  -0.255  -0.251
 -0.246  -0.244  -0.236  -0.235  -0.198  -0.198

          Ground-State Mulliken Net Atomic Charges

     Atom                 Charge (a.u.)
  ----------------------------------------
      1 C                     0.250358
      2 C                    -0.114091
      3 N                    -0.481162
      4 C                    -0.070159
      5 C                     0.056300
      6 C                     0.068382
      7 C                     0.032772
      8 C                     0.036022
      9 C                     0.242975
     10 N                    -0.489293
     11 N                    -0.549571
     12 C                     0.177883
     13 C                     0.251577
     14 S                     0.600129
     15 N                    -0.526129
     16 C                    -0.200429
     17 S                     0.337628
     18 C                    -0.108515
     19 C                    -0.197706
     20 S                     0.270508
     21 C                     0.154946
     22 C                     0.020893
     23 C                    -0.302651
     24 C                    -0.078415
     25 N                    -0.406455
     26 S                     0.298075
     27 C                     0.112289
     28 C                    -0.322101
     29 C                    -0.228362
     30 H                     0.094880
     31 H                     0.113958
     32 H                     0.103542
     33 H                     0.126693
     34 H                     0.127990
     35 H                     0.095305
     36 H                     0.124865
     37 H                     0.132037
     38 H                     0.124465
     39 C                    -0.189017
     40 H                     0.090712
     41 H                     0.086215
     42 H                     0.092772
     43 C                    -0.158066
     44 H                     0.074353
     45 C                    -0.168745
     46 H                     0.103835
     47 H                     0.078472
     48 H                     0.110621
     49 C                    -0.186161
     50 H                     0.083804
     51 C                    -0.313530
     52 H                     0.089331
     53 H                     0.109624
     54 H                     0.120368
     55 H                     0.096785
     56 C                     0.279652
     57 C                    -0.110394
     58 N                    -0.483539
     59 C                    -0.110255
     60 C                     0.077885
     61 C                     0.077663
     62 C                     0.091418
     63 C                     0.038073
     64 C                     0.188276
     65 N                    -0.498453
     66 N                    -0.554548
     67 C                     0.191803
     68 C                     0.245053
     69 S                     0.633226
     70 N                    -0.516123
     71 C                    -0.210897
     72 S                     0.347165
     73 C                    -0.131319
     74 C                    -0.221690
     75 S                     0.281256
     76 C                     0.140077
     77 C                     0.062436
     78 C                    -0.297509
     79 C                    -0.081436
     80 N                    -0.415163
     81 S                     0.256327
     82 C                     0.097320
     83 C                    -0.296529
     84 C                    -0.241644
     85 H                     0.098187
     86 H                     0.096547
     87 H                     0.113441
     88 H                     0.104962
     89 H                     0.120121
     90 H                     0.114275
     91 H                     0.114700
     92 H                     0.147989
     93 H                     0.110173
     94 C                    -0.184855
     95 H                     0.114654
     96 H                     0.094299
     97 H                     0.107372
     98 C                    -0.180525
     99 H                     0.089258
    100 C                    -0.166818
    101 H                     0.097194
    102 H                     0.092083
    103 H                     0.098410
    104 C                    -0.180292
    105 H                     0.086956
    106 C                    -0.319004
    107 H                     0.091887
    108 H                     0.100375
    109 H                     0.101320
    110 H                     0.098354
  ----------------------------------------
  Sum of atomic charges =     0.000000

                    Cartesian Multipole Moments
 -----------------------------------------------------------------
    Charge (ESU x 10^10)
                 0.0000
    Dipole Moment (Debye)
         X       0.1147      Y       3.4449      Z       0.1297
       Tot       3.4493
    Quadrupole Moments (Debye-Ang)
        XX    -397.7182     XY       4.7081     YY    -418.7803
        XZ       5.1346     YZ       8.1127     ZZ    -443.6220

 Total job time:  84.14s(wall), 898.14s(cpu)
        *  Thank you very much for using Q-Chem.  Have a nice day.  *
