 Q-Chem 4.4, Q-Chem, Inc., Pleasanton, CA (2016)
 Q-Chem 4.4.2 for Intel X86 Linux

User input:
--------------------------------------------------------------
$comment
SP
$end

$rem
MEM_STATIC 5000
MEM_TOTAL 20000
JOBTYPE SP
EXCHANGE B3LYP
BASIS 6-31g(d,p)
$end

$molecule
0 1
C         -13.065000      0.646000     -0.762000
C         -11.884000      1.346000     -1.157000
N         -13.003000     -0.399000      0.085000
C         -10.633000      0.901000     -0.644000
C         -11.779000     -0.788000      0.626000
C         -10.570000     -0.213000      0.210000
C          -9.372000     -0.888000      0.761000
C          -9.290000     -1.359000      2.108000
C          -8.264000     -1.194000     -0.057000
N          -8.280000     -2.192000      2.533000
N          -8.108000     -0.773000     -1.349000
C          -7.231000     -2.006000      0.395000
C          -7.302000     -2.603000      1.663000
S          -6.653000     -1.291000     -1.795000
N          -6.266000     -2.131000     -0.442000
C          -6.364000     -3.645000      2.117000
S          -4.815000     -4.090000      1.372000
C          -6.524000     -4.390000      3.241000
C          -4.475000     -5.299000      2.488000
S          -7.880000     -4.631000      4.320000
C          -5.459000     -5.280000      3.424000
C          -3.386000     -6.250000      2.342000
C          -6.986000     -6.019000      5.061000
C          -5.779000     -6.200000      4.485000
N          -3.725000     -7.481000      2.573000
S          -1.841000     -5.947000      1.587000
C          -2.635000     -8.262000      2.474000
C          -1.525000     -7.688000      1.954000
C         -14.473000      0.958000     -1.232000
H         -11.912000      2.150000     -1.886000
H          -9.688000      1.345000     -0.942000
H         -11.865000     -1.729000      1.167000
H         -10.016000     -1.034000      2.852000
H          -7.500000     -6.627000      5.794000
H          -5.191000     -7.095000      4.650000
H          -2.731000     -9.324000      2.657000
H          -0.519000     -8.072000      1.853000
H         -14.620000      0.687000     -2.285000
C         -14.930000      2.373000     -0.821000
H         -15.177000      0.269000     -0.748000
H         -14.608000      3.071000     -1.604000
H         -14.503000      2.732000      0.123000
C         -16.475000      2.459000     -0.663000
H         -16.958000      2.138000     -1.594000
C         -16.902000      3.922000     -0.311000
H         -16.955000      1.803000      0.073000
H         -16.203000      4.644000     -0.751000
H         -16.835000      4.059000      0.776000
C         -18.335000      4.259000     -0.801000
H         -18.399000      5.341000     -0.637000
C         -19.454000      3.612000      0.045000
H         -18.442000      4.082000     -1.878000
H         -19.414000      3.905000      1.101000
H         -19.390000      2.518000     -0.012000
H         -20.399000      4.035000     -0.318000
C          -0.024000      8.336000     12.919000
C          -0.777000      7.244000     13.385000
N          -0.025000      8.644000     11.621000
C          -1.443000      6.477000     12.512000
C          -0.774000      7.990000     10.737000
C          -1.595000      6.857000     11.152000
C          -2.327000      6.015000     10.156000
C          -3.312000      5.018000     10.538000
C          -1.921000      5.800000      8.794000
N          -3.801000      4.083000      9.771000
N          -0.830000      6.421000      8.202000
C          -2.512000      4.897000      7.936000
C          -3.442000      4.029000      8.479000
S          -0.629000      5.738000      6.698000
N          -1.978000      4.826000      6.684000
C          -3.980000      2.859000      7.768000
S          -3.069000      2.025000      6.526000
C          -5.178000      2.217000      8.024000
C          -4.375000      0.860000      6.300000
S          -6.560000      2.708000      9.004000
C          -5.362000      1.095000      7.181000
C          -4.234000     -0.330000      5.577000
C          -7.331000      1.184000      8.495000
C          -6.580000      0.402000      7.575000
N          -5.015000     -1.312000      5.933000
S          -2.824000     -0.747000      4.665000
C          -4.710000     -2.448000      5.230000
C          -3.522000     -2.309000      4.519000
C           0.559000      9.345000     13.852000
H          -0.760000      6.960000     14.433000
H          -1.842000      5.552000     12.918000
H          -0.830000      8.478000      9.765000
H          -3.683000      5.001000     11.561000
H          -8.288000      0.961000      8.947000
H          -6.931000     -0.508000      7.102000
H          -5.317000     -3.311000      5.470000
H          -3.016000     -3.127000      4.022000
H           1.634000      9.328000     13.633000
C           0.431000      9.080000     15.374000
H           0.404000     10.404000     13.611000
H           0.931000      8.134000     15.615000
H          -0.650000      9.132000     15.550000
C           0.973000     10.177000     16.249000
H           2.063000     10.200000     16.128000
C           0.739000      9.953000     17.779000
H           0.418000     11.067000     15.930000
H           1.078000      8.946000     18.050000
H          -0.329000      9.976000     18.031000
C           1.432000     11.086000     18.647000
H           0.954000     12.026000     18.344000
C           2.924000     11.183000     18.383000
H           1.143000     10.921000     19.693000
H           3.441000     10.245000     18.620000
H           3.299000     11.850000     19.169000
H           3.069000     11.660000     17.406000
$end

--------------------------------------------------------------

             Standard Nuclear Orientation (Angstroms)
    I     Atom           X                Y                Z
 ----------------------------------------------------------------
    1      C      -8.3825372540     4.9034258049    -0.4795039216
    2      C      -7.6842812698     4.5862717501    -1.6847582043
    3      N      -8.3041413091     4.1027842884     0.6003596058
    4      C      -6.9128127814     3.3906078247    -1.7224297977
    5      C      -7.4987838811     2.9658346448     0.5699799860
    6      C      -6.8644016828     2.5397161825    -0.6053260519
    7      C      -6.2119690069     1.2156667307    -0.4802074982
    8      C      -5.4865682555     0.8080731741     0.6819608384
    9      C      -6.3563552092     0.2318362052    -1.4810342173
   10      N      -5.0986755478    -0.4971154616     0.8835442519
   11      N      -6.9464709277     0.4372161133    -2.6977607815
   12      C      -5.9272973187    -1.0745707731    -1.2811664272
   13      C      -5.3997156280    -1.4651818609    -0.0408622154
   14      S      -6.7646199599    -0.9439436974    -3.5000031408
   15      N      -6.0660957685    -1.8287662886    -2.3104103802
   16      C      -5.1361181194    -2.8703710073     0.3164665073
   17      S      -5.0733773118    -4.2618648754    -0.7845600165
   18      C      -4.8290843774    -3.3037625547     1.5662277037
   19      C      -4.7505373148    -5.3763635638     0.4305136480
   20      S      -4.9138550070    -2.5418933593     3.1389410499
   21      C      -4.6078962440    -4.6858831469     1.5913768263
   22      C      -4.7738164766    -6.8158673630     0.2332197237
   23      C      -4.6531890446    -4.1672741112     3.8906402367
   24      C      -4.5163991446    -5.1327083036     2.9575746744
   25      N      -5.4206031035    -7.4647115413     1.1520838548
   26      S      -4.3372907425    -7.6680059332    -1.2269734624
   27      C      -5.3241452551    -8.7834275616     0.9080634839
   28      C      -4.8128348984    -9.1403041162    -0.2932594718
   29      C      -9.2737912752     6.1126931594    -0.2696307811
   30      H      -7.7874523196     5.1892661906    -2.5816385973
   31      H      -6.4011089525     3.0533796443    -2.6187563820
   32      H      -7.6536489502     2.3457820912     1.4515182104
   33      H      -5.1855740746     1.5400510285     1.4301906986
   34      H      -4.7274208416    -4.2520712586     4.9669524981
   35      H      -4.5569152145    -6.1858760077     3.2089513538
   36      H      -5.7916603997    -9.4799327317     1.5913343946
   37      H      -4.5580854944   -10.1157378316    -0.6848265900
   38      H     -10.2108006113     6.0306462475    -0.8345562704
   39      C      -8.5043368231     7.4421217293    -0.4129992703
   40      H      -9.6585714250     6.1045308191     0.7582167818
   41      H      -8.5176940481     7.7257215864    -1.4728906353
   42      H      -7.4521982181     7.3932050670    -0.1081099202
   43      C      -9.1513369782     8.5788621358     0.4287827961
   44      H     -10.2040899892     8.6939311161     0.1431935321
   45      C      -8.3822718467     9.9223671728     0.2048742454
   46      H      -9.2304785919     8.4359197253     1.5130964372
   47      H      -7.9530128954     9.9572682411    -0.8040874329
   48      H      -7.5318934755     9.9637318198     0.8976747880
   49      C      -9.2873883854    11.1671724458     0.4007871942
   50      H      -8.6544028443    11.9862498550     0.0400137162
   51      C      -9.6170893404    11.4749021538     1.8783140830
   52      H     -10.1720692785    11.1248971159    -0.2459426674
   53      H      -8.7221275217    11.6472563163     2.4881684802
   54      H     -10.1828191069    10.6462133463     2.3226176861
   55      H     -10.1385992238    12.4401603147     1.8835221652
   56      C      11.6837847746     1.2034334380    -0.6417344006
   57      C      11.0551103862     0.9405467174     0.5880168285
   58      N      10.9505054602     1.4372211750    -1.7313736717
   59      C       9.7192622501     0.8627076513     0.6465389357
   60      C       9.6219843255     1.4983640709    -1.6930834530
   61      C       8.9021662760     1.2539325030    -0.4472623646
   62      C       7.4094255150     1.1694459810    -0.4099656096
   63      C       6.6517024598     1.1371390190     0.8289734655
   64      C       6.5752344417     0.7451386848    -1.5009255409
   65      N       5.3941863338     0.8144807205     0.9561733682
   66      N       7.0513740878     0.4358862918    -2.7674325464
   67      C       5.2188959353     0.5173585650    -1.4044057347
   68      C       4.6660689189     0.5377363297    -0.1366754650
   69      S       5.7742608512    -0.1799000317    -3.6384635360
   70      N       4.6000627930     0.1061072859    -2.5470425657
   71      C       3.3013752443     0.0801502363     0.1667897582
   72      S       2.4940720344    -1.1411180231    -0.7948787740
   73      C       2.5286535183     0.4520534063     1.2519133301
   74      C       1.0672554919    -1.0645363493     0.2406243894
   75      S       2.7370500046     1.7579677630     2.4192023250
   76      C       1.2811339915    -0.2165313506     1.2607707071
   77      C       0.0354110597    -2.0094759169     0.2075142525
   78      C       1.2092383971     1.2069443607     3.1528663503
   79      C       0.5666298739     0.1314338893     2.4803661555
   80      N      -0.6269224151    -2.1729261537     1.3190984321
   81      S      -0.0739922855    -3.2824654067    -0.9592169363
   82      C      -1.5325656318    -3.1935980528     1.1935228034
   83      C      -1.3344803090    -3.9150176920     0.0202786221
   84      C      13.1416644471     1.5121079757    -0.7298586886
   85      H      11.6374626890     0.7151711845     1.4764540321
   86      H       9.3180359882     0.4734942705     1.5777706099
   87      H       9.1759614416     1.8965119193    -2.6033613654
   88      H       7.1527661354     1.3738491356     1.7656497776
   89      H       0.9100351001     1.7095915469     4.0626493976
   90      H      -0.4050276993    -0.2722124690     2.7410981592
   91      H      -2.1235545089    -3.3918525895     2.0779691194
   92      H      -1.8321182457    -4.8496061605    -0.2057078347
   93      H      13.5389488439     0.7529203861    -1.4151865750
   94      C      13.9838508410     1.3969429023     0.5665024045
   95      H      13.4379931298     2.3819010568    -1.3292219407
   96      H      13.9238410140     0.3678013964     0.9410202031
   97      H      13.5718743747     2.1858174709     1.2069657573
   98      C      15.4257578315     1.7978452266     0.4149123081
   99      H      15.9184913002     1.0559738749    -0.2254864945
  100      C      16.2395651489     1.7858706744     1.7503546544
  101      H      15.3751550547     2.8258789759     0.0374577159
  102      H      16.0856217495     0.8248810817     2.2555392074
  103      H      15.8716084556     2.5441740773     2.4533772864
  104      C      17.7732171049     2.1074427219     1.5016277036
  105      H      17.7990115247     3.1175337845     1.0739085279
  106      C      18.4137173958     1.1398774815     0.5224720046
  107      H      18.2567599227     2.1806525711     2.4843222956
  108      H      18.3638527790     0.1046657644     0.8818495506
  109      H      19.4881608631     1.3495789763     0.5925185521
  110      H      18.0626337449     1.3901277168    -0.4860903831
 ----------------------------------------------------------------

   10   -5663.4936273286      7.14E-06 Convergence criterion met
 Total energy in the final basis set = -5663.4936273286

                    Orbital Energies (a.u.)
 --------------------------------------------------------------

 Alpha MOs
 -- Occupied --
-88.989 -88.988 -88.936 -88.924 -88.920 -88.913 -88.908 -88.903
-14.381 -14.381 -14.379 -14.375 -14.353 -14.347 -14.341 -14.327
-14.325 -14.319 -10.276 -10.263 -10.253 -10.252 -10.252 -10.250
-10.247 -10.246 -10.244 -10.239 -10.238 -10.236 -10.235 -10.232
-10.231 -10.230 -10.227 -10.227 -10.226 -10.225 -10.225 -10.224
-10.222 -10.222 -10.222 -10.221 -10.219 -10.218 -10.218 -10.213
-10.213 -10.206 -10.206 -10.203 -10.197 -10.195 -10.193 -10.187
-10.184 -10.182 -10.182 -10.181 -10.180 -10.179 -10.178 -10.177
-10.177 -10.175 -10.173 -10.173  -8.044  -8.044  -7.997  -7.984
 -7.982  -7.973  -7.967  -7.963  -6.010  -6.009  -6.004  -6.003
 -6.002  -6.002  -5.960  -5.957  -5.954  -5.948  -5.946  -5.944
 -5.943  -5.941  -5.939  -5.938  -5.934  -5.931  -5.930  -5.928
 -5.928  -5.924  -5.923  -5.919  -1.049  -1.025  -0.991  -0.970
 -0.963  -0.948  -0.938  -0.925  -0.921  -0.911  -0.903  -0.886
 -0.849  -0.834  -0.832  -0.824  -0.811  -0.810  -0.810  -0.807
 -0.805  -0.802  -0.795  -0.795  -0.783  -0.778  -0.769  -0.766
 -0.752  -0.747  -0.739  -0.732  -0.729  -0.715  -0.710  -0.707
 -0.694  -0.687  -0.676  -0.671  -0.657  -0.653  -0.647  -0.638
 -0.637  -0.633  -0.627  -0.620  -0.614  -0.607  -0.599  -0.595
 -0.590  -0.585  -0.584  -0.581  -0.579  -0.575  -0.564  -0.560
 -0.558  -0.544  -0.538  -0.533  -0.526  -0.520  -0.516  -0.506
 -0.505  -0.502  -0.501  -0.492  -0.487  -0.485  -0.480  -0.479
 -0.472  -0.470  -0.468  -0.463  -0.461  -0.459  -0.453  -0.453
 -0.448  -0.443  -0.440  -0.439  -0.434  -0.433  -0.430  -0.430
 -0.426  -0.425  -0.424  -0.421  -0.420  -0.417  -0.415  -0.413
 -0.409  -0.405  -0.403  -0.402  -0.401  -0.397  -0.396  -0.393
 -0.393  -0.390  -0.389  -0.386  -0.385  -0.384  -0.383  -0.381
 -0.380  -0.376  -0.374  -0.372  -0.366  -0.365  -0.360  -0.354
 -0.351  -0.351  -0.347  -0.344  -0.343  -0.342  -0.341  -0.340
 -0.338  -0.335  -0.334  -0.329  -0.326  -0.325  -0.325  -0.321
 -0.314  -0.311  -0.308  -0.306  -0.302  -0.302  -0.300  -0.297
 -0.295  -0.295  -0.294  -0.289  -0.287  -0.282  -0.278  -0.272
 -0.272  -0.269  -0.264  -0.262  -0.258  -0.248  -0.246  -0.243
 -0.237  -0.235  -0.234  -0.221  -0.201  -0.184

          Ground-State Mulliken Net Atomic Charges

     Atom                 Charge (a.u.)
  ----------------------------------------
      1 C                     0.274657
      2 C                    -0.122784
      3 N                    -0.483994
      4 C                    -0.062305
      5 C                     0.050018
      6 C                     0.050797
      7 C                     0.003333
      8 C                     0.060075
      9 C                     0.221180
     10 N                    -0.531843
     11 N                    -0.546155
     12 C                     0.251694
     13 C                     0.313850
     14 S                     0.596391
     15 N                    -0.584804
     16 C                    -0.220867
     17 S                     0.315445
     18 C                    -0.097724
     19 C                    -0.212156
     20 S                     0.262074
     21 C                     0.127853
     22 C                     0.029947
     23 C                    -0.314274
     24 C                    -0.042070
     25 N                    -0.391269
     26 S                     0.260159
     27 C                     0.133679
     28 C                    -0.304320
     29 C                    -0.241771
     30 H                     0.095432
     31 H                     0.112000
     32 H                     0.114865
     33 H                     0.127081
     34 H                     0.131755
     35 H                     0.116202
     36 H                     0.115216
     37 H                     0.137008
     38 H                     0.109340
     39 C                    -0.179314
     40 H                     0.127082
     41 H                     0.096236
     42 H                     0.107383
     43 C                    -0.181637
     44 H                     0.089082
     45 C                    -0.180353
     46 H                     0.100333
     47 H                     0.086274
     48 H                     0.092669
     49 C                    -0.180161
     50 H                     0.088669
     51 C                    -0.315768
     52 H                     0.094486
     53 H                     0.103473
     54 H                     0.105934
     55 H                     0.101969
     56 C                     0.280266
     57 C                    -0.112766
     58 N                    -0.489905
     59 C                    -0.070039
     60 C                     0.100989
     61 C                     0.000219
     62 C                     0.036847
     63 C                     0.051869
     64 C                     0.214560
     65 N                    -0.480191
     66 N                    -0.564659
     67 C                     0.227828
     68 C                     0.250422
     69 S                     0.614074
     70 N                    -0.561065
     71 C                    -0.217369
     72 S                     0.310808
     73 C                    -0.094653
     74 C                    -0.244144
     75 S                     0.265449
     76 C                     0.154108
     77 C                     0.073154
     78 C                    -0.309202
     79 C                    -0.042362
     80 N                    -0.438151
     81 S                     0.267306
     82 C                     0.133209
     83 C                    -0.321967
     84 C                    -0.228999
     85 H                     0.092746
     86 H                     0.097333
     87 H                     0.121783
     88 H                     0.103912
     89 H                     0.127297
     90 H                     0.131104
     91 H                     0.124660
     92 H                     0.127109
     93 H                     0.114818
     94 C                    -0.183222
     95 H                     0.119905
     96 H                     0.095305
     97 H                     0.098177
     98 C                    -0.178484
     99 H                     0.098542
    100 C                    -0.179427
    101 H                     0.091719
    102 H                     0.085773
    103 H                     0.084441
    104 C                    -0.180336
    105 H                     0.093784
    106 C                    -0.312227
    107 H                     0.090126
    108 H                     0.105089
    109 H                     0.098573
    110 H                     0.115795
  ----------------------------------------
  Sum of atomic charges =     0.000000

                    Cartesian Multipole Moments
 -----------------------------------------------------------------
    Charge (ESU x 10^10)
                 0.0000
    Dipole Moment (Debye)
         X      -0.4697      Y      -2.8669      Z      -1.0670
       Tot       3.0949
    Quadrupole Moments (Debye-Ang)
        XX    -427.1437     XY       8.2296     YY    -390.9717
        XZ      29.4661     YZ       0.1965     ZZ    -429.4373

 Total job time:  98.31s(wall), 1050.47s(cpu)
        *  Thank you very much for using Q-Chem.  Have a nice day.  *
