 Q-Chem 4.4, Q-Chem, Inc., Pleasanton, CA (2016)
 Q-Chem 4.4.2 for Intel X86 Linux

User input:
--------------------------------------------------------------
$comment
SP
$end

$rem
MEM_STATIC 5000
MEM_TOTAL 20000
JOBTYPE SP
EXCHANGE B3LYP
BASIS 6-31g(d,p)
$end

$molecule
0 1
C           1.136000      7.171000      3.468000
C          -0.058000      6.460000      3.507000
N           2.322000      6.612000      3.173000
C          -0.019000      5.042000      3.315000
C           2.342000      5.296000      2.829000
C           1.226000      4.459000      2.922000
C           1.467000      2.966000      2.890000
C           1.909000      2.388000      1.726000
C           1.299000      2.122000      4.044000
N           2.314000      1.136000      1.563000
N           0.947000      2.536000      5.224000
C           1.634000      0.800000      3.916000
C           2.235000      0.366000      2.671000
S           1.065000      1.199000      6.171000
N           1.596000      0.027000      5.042000
C           3.057000     -0.845000      2.573000
S           3.192000     -1.955000      1.235000
C           4.166000     -1.009000      3.375000
C           4.664000     -2.688000      1.814000
S           4.724000     -0.055000      4.689000
C           5.047000     -1.946000      2.922000
C           5.541000     -3.554000      1.085000
C           6.273000     -0.967000      4.614000
C           6.232000     -1.946000      3.618000
N           4.951000     -4.289000      0.185000
S           7.298000     -3.731000      1.115000
C           5.854000     -5.124000     -0.474000
C           7.236000     -4.859000     -0.161000
C           1.147000      8.631000      3.791000
H          -1.024000      6.919000      3.697000
H          -0.927000      4.461000      3.448000
H           3.320000      4.859000      2.635000
H           2.121000      2.956000      0.822000
H           7.089000     -0.712000      5.277000
H           6.953000     -2.753000      3.552000
H           5.425000     -5.740000     -1.252000
H           8.149000     -5.211000     -0.621000
H           1.748000      9.079000      2.989000
C           1.697000      8.957000      5.248000
H           0.127000      8.994000      3.618000
H           2.627000      8.384000      5.342000
H           1.042000      8.517000      6.010000
C           2.014000     10.420000      5.443000
H           2.753000     10.713000      4.687000
C           2.569000     10.828000      6.841000
H           1.134000     11.033000      5.215000
H           2.798000     11.900000      6.861000
H           3.517000     10.293000      6.977000
C           1.602000     10.480000      7.971000
H           0.573000     10.752000      7.704000
C           1.957000     11.096000      9.338000
H           1.456000      9.408000      8.151000
H           2.924000     10.668000      9.630000
H           1.191000     10.827000     10.077000
H           2.048000     12.176000      9.168000
C          -0.024000      8.336000     12.919000
C          -0.777000      7.244000     13.385000
N          -0.025000      8.644000     11.621000
C          -1.443000      6.477000     12.512000
C          -0.774000      7.990000     10.737000
C          -1.595000      6.857000     11.152000
C          -2.327000      6.015000     10.156000
C          -3.312000      5.018000     10.538000
C          -1.921000      5.800000      8.794000
N          -3.801000      4.083000      9.771000
N          -0.830000      6.421000      8.202000
C          -2.512000      4.897000      7.936000
C          -3.442000      4.029000      8.479000
S          -0.629000      5.738000      6.698000
N          -1.978000      4.826000      6.684000
C          -3.980000      2.859000      7.768000
S          -3.069000      2.025000      6.526000
C          -5.178000      2.217000      8.024000
C          -4.375000      0.860000      6.300000
S          -6.560000      2.708000      9.004000
C          -5.362000      1.095000      7.181000
C          -4.234000     -0.330000      5.577000
C          -7.331000      1.184000      8.495000
C          -6.580000      0.402000      7.575000
N          -5.015000     -1.312000      5.933000
S          -2.824000     -0.747000      4.665000
C          -4.710000     -2.448000      5.230000
C          -3.522000     -2.309000      4.519000
C           0.559000      9.345000     13.852000
H          -0.760000      6.960000     14.433000
H          -1.842000      5.552000     12.918000
H          -0.830000      8.478000      9.765000
H          -3.683000      5.001000     11.561000
H          -8.288000      0.961000      8.947000
H          -6.931000     -0.508000      7.102000
H          -5.317000     -3.311000      5.470000
H          -3.016000     -3.127000      4.022000
H           1.634000      9.328000     13.633000
C           0.431000      9.080000     15.374000
H           0.404000     10.404000     13.611000
H           0.931000      8.134000     15.615000
H          -0.650000      9.132000     15.550000
C           0.973000     10.177000     16.249000
H           2.063000     10.200000     16.128000
C           0.739000      9.953000     17.779000
H           0.418000     11.067000     15.930000
H           1.078000      8.946000     18.050000
H          -0.329000      9.976000     18.031000
C           1.432000     11.086000     18.647000
H           0.954000     12.026000     18.344000
C           2.924000     11.183000     18.383000
H           1.143000     10.921000     19.693000
H           3.441000     10.245000     18.620000
H           3.299000     11.850000     19.169000
H           3.069000     11.660000     17.406000
$end

--------------------------------------------------------------

             Standard Nuclear Orientation (Angstroms)
    I     Atom           X                Y                Z
 ----------------------------------------------------------------
    1      C      -0.2631643222     2.5287564328    -4.3726937105
    2      C      -0.1075725738     1.1487081417    -4.3099567851
    3      N       0.6205164188     3.3984119453    -3.8541287314
    4      C       1.0005115340     0.6155669110    -3.5771409568
    5      C       1.7586503750     2.9009731185    -3.2993335338
    6      C       1.9827727173     1.5361154354    -3.0953563764
    7      C       3.0832269767     1.1440923410    -2.1343817064
    8      C       4.3882694466     1.3930526502    -2.4796742144
    9      C       2.8234970518     0.5606669998    -0.8442533262
   10      N       5.4559383220     1.2586194486    -1.7050072622
   11      N       1.6420123888     0.3249574202    -0.3582132197
   12      C       3.8971226112     0.3313117184    -0.0250968618
   13      C       5.1998874769     0.7898274510    -0.4634449289
   14      S       1.9327844865    -0.1860233357     1.1756225781
   15      N       3.6411327847    -0.1027622651     1.2449023451
   16      C       6.3005168492     1.0464764074     0.4717316843
   17      S       8.0099029917     0.8105382072     0.2209306046
   18      C       6.1422515887     1.9285784161     1.5190277999
   19      C       8.4844080231     1.8050038158     1.5719291718
   20      S       4.7310457126     2.7319721825     2.0768202624
   21      C       7.3148437045     2.3772565623     2.0510566066
   22      C       9.7971184908     2.2993069868     1.8599944473
   23      C       5.7961019423     3.7704835002     3.0887093228
   24      C       7.1368313981     3.4035200924     2.9475697328
   25      N      10.7666995174     1.5266673442     1.4584155440
   26      S      10.3418096448     3.8211674349     2.5717038848
   27      C      12.0167973581     2.0522395629     1.7869642185
   28      C      11.9710330306     3.3942874203     2.3113030163
   29      C      -1.4771698040     3.1150566483    -5.0196038646
   30      H      -0.7953256731     0.4455487141    -4.7709334591
   31      H       1.0753429722    -0.4579989327    -3.4302715072
   32      H       2.4371939519     3.6243676424    -2.8505930999
   33      H       4.6755661322     1.8848768927    -3.4072266544
   34      H       5.3735782052     4.5685643671     3.6845202168
   35      H       7.9145980283     3.7320272762     3.6277227297
   36      H      12.8622530206     1.4659249757     1.4549688458
   37      H      12.7578493187     4.1128938871     2.4946002463
   38      H      -1.0796827762     3.9036792021    -5.6716679185
   39      C      -2.5606066225     3.6427675245    -3.9807049805
   40      H      -1.8639078721     2.3498062374    -5.7029218545
   41      H      -1.9992836417     4.2457017665    -3.2572052839
   42      H      -2.9497457837     2.8112681844    -3.3803312963
   43      C      -3.6113214374     4.5177106601    -4.6205142390
   44      H      -3.1048619817     5.3647200248    -5.0996592648
   45      C      -4.7088635227     5.0879486589    -3.6722932755
   46      H      -4.0952384098     3.9864041043    -5.4485786735
   47      H      -5.3952154969     5.7350207052    -4.2310810119
   48      H      -4.1977219398     5.7197956052    -2.9354563066
   49      C      -5.4923528361     3.9839121892    -2.9649454336
   50      H      -5.7548057349     3.1799394179    -3.6641308589
   51      C      -6.7609780978     4.4601000034    -2.2314571167
   52      H      -4.9223266917     3.3977117783    -2.2339602950
   53      H      -6.4250677614     5.1418174166    -1.4402791251
   54      H      -7.2789537153     3.5996505191    -1.7880995357
   55      H      -7.3572423571     4.9988751362    -2.9782979896
   56      C      -7.8402982748     1.2651939931     1.3731462652
   57      C      -7.6066467117     0.0983162683     2.1217665443
   58      N      -7.1591731363     1.4853080836     0.2474076930
   59      C      -6.6530314568    -0.7585042589     1.7338870142
   60      C      -6.2960205984     0.6002819873    -0.2443946100
   61      C      -6.0166172758    -0.6415257973     0.4696097385
   62      C      -4.9441335161    -1.5801859414     0.0162889701
   63      C      -4.7762606811    -2.9127614801     0.5696596822
   64      C      -3.7596303975    -1.2003969629    -0.7040010366
   65      N      -3.7361427185    -3.6854604509     0.4189084830
   66      N      -3.5002321278     0.0893249689    -1.1463989077
   67      C      -2.7046490709    -2.0460226499    -0.9737890978
   68      C      -2.7213229692    -3.2873365689    -0.3638425956
   69      S      -1.9511604601     0.1008769352    -1.7539756686
   70      N      -1.6614207636    -1.4987546721    -1.6592622624
   71      C      -1.5719049280    -4.2051888942    -0.3480224992
   72      S       0.0798576741    -3.6294966350    -0.4391253480
   73      C      -1.6133542102    -5.5763211881    -0.1714377050
   74      C       0.6984724072    -5.2785582346    -0.3302738308
   75      S      -2.9706572583    -6.7019019138    -0.2183574832
   76      C      -0.3164187271    -6.1431295422    -0.1627404324
   77      C       2.0416028528    -5.5866784654    -0.0857896200
   78      C      -1.7776589951    -7.9916437983     0.0806726412
   79      C      -0.4229316360    -7.5634358571     0.1379154711
   80      N       2.2687348456    -6.7258036658     0.5073594638
   81      S       3.3088679926    -4.4101996958    -0.0252109921
   82      C       3.6028361819    -6.8641515988     0.7880077740
   83      C       4.2969815862    -5.6756349856     0.5836149711
   84      C      -9.0210432462     2.1416380142     1.6303352818
   85      H      -8.1284141901    -0.0791985760     3.0574460721
   86      H      -6.4024010490    -1.5306900708     2.4553961759
   87      H      -5.9753365453     0.8206311809    -1.2615828772
   88      H      -5.5610194768    -3.3313785459     1.1968537390
   89      H      -2.1782516251    -8.9858839510     0.2252204311
   90      H       0.4331964797    -8.2218509925     0.2304582117
   91      H       3.8725574755    -7.7878124099     1.2829008227
   92      H       5.3237818437    -5.5156648255     0.8873579201
   93      H      -8.5870168512     3.1275557452     1.8388114581
   94      C      -9.9179320603     1.8056487082     2.8492670442
   95      H      -9.6165012269     2.4533892130     0.7632551336
   96      H      -9.3121711219     1.8538576229     3.7623533414
   97      H     -10.3478033627     0.8317874584     2.5865011225
   98      C     -11.1291997452     2.6852072530     2.9976090870
   99      H     -10.7859298531     3.6940564987     3.2577224865
  100      C     -12.0863502182     2.2691469356     4.1623360011
  101      H     -11.6571565067     2.5696856213     2.0437734562
  102      H     -11.5003632834     2.1437944314     5.0806589627
  103      H     -12.5453537926     1.2896536047     3.9764179185
  104      C     -13.2791301979     3.3012338217     4.3339010892
  105      H     -13.8326615093     3.2750667292     3.3868998376
  106      C     -12.7863608680     4.7162318242     4.5791112856
  107      H     -13.9580665421     2.8946608525     5.0945625522
  108      H     -12.1790029593     4.7834681770     5.4900984665
  109      H     -13.6857330083     5.2738413295     4.8680946637
  110      H     -12.4038775623     5.1150946337     3.6316420354
 ----------------------------------------------------------------

   10   -5663.4782127368      8.10E-06 Convergence criterion met
 Total energy in the final basis set = -5663.4782127368

                    Orbital Energies (a.u.)
 --------------------------------------------------------------

 Alpha MOs
 -- Occupied --
-88.992 -88.990 -88.929 -88.927 -88.924 -88.919 -88.913 -88.908
-14.406 -14.394 -14.383 -14.377 -14.353 -14.345 -14.339 -14.334
-14.333 -14.325 -10.268 -10.266 -10.263 -10.260 -10.257 -10.255
-10.255 -10.249 -10.238 -10.236 -10.235 -10.235 -10.235 -10.235
-10.234 -10.233 -10.231 -10.231 -10.231 -10.230 -10.230 -10.228
-10.227 -10.227 -10.226 -10.226 -10.226 -10.223 -10.222 -10.221
-10.220 -10.207 -10.205 -10.202 -10.202 -10.199 -10.198 -10.191
-10.186 -10.185 -10.184 -10.183 -10.182 -10.181 -10.180 -10.174
-10.174 -10.173 -10.165 -10.158  -8.047  -8.044  -7.990  -7.989
 -7.983  -7.979  -7.973  -7.968  -6.012  -6.009  -6.007  -6.005
 -6.003  -6.002  -5.954  -5.953  -5.950  -5.950  -5.948  -5.947
 -5.946  -5.944  -5.943  -5.940  -5.940  -5.938  -5.936  -5.934
 -5.932  -5.929  -5.929  -5.924  -1.046  -1.027  -0.977  -0.969
 -0.967  -0.966  -0.943  -0.940  -0.925  -0.916  -0.908  -0.888
 -0.850  -0.837  -0.835  -0.827  -0.814  -0.813  -0.813  -0.812
 -0.810  -0.803  -0.799  -0.798  -0.786  -0.785  -0.769  -0.766
 -0.751  -0.746  -0.742  -0.737  -0.724  -0.720  -0.712  -0.711
 -0.692  -0.691  -0.680  -0.675  -0.659  -0.657  -0.645  -0.640
 -0.640  -0.636  -0.629  -0.624  -0.611  -0.608  -0.601  -0.597
 -0.596  -0.590  -0.589  -0.584  -0.583  -0.580  -0.562  -0.557
 -0.549  -0.549  -0.542  -0.537  -0.528  -0.521  -0.518  -0.510
 -0.509  -0.506  -0.504  -0.497  -0.493  -0.489  -0.483  -0.482
 -0.474  -0.471  -0.471  -0.467  -0.464  -0.458  -0.454  -0.449
 -0.444  -0.441  -0.440  -0.439  -0.436  -0.436  -0.435  -0.431
 -0.429  -0.428  -0.425  -0.421  -0.420  -0.417  -0.413  -0.413
 -0.413  -0.408  -0.408  -0.405  -0.402  -0.400  -0.399  -0.397
 -0.395  -0.394  -0.392  -0.390  -0.389  -0.388  -0.386  -0.382
 -0.378  -0.376  -0.372  -0.371  -0.367  -0.362  -0.362  -0.357
 -0.356  -0.352  -0.349  -0.348  -0.346  -0.344  -0.341  -0.341
 -0.339  -0.338  -0.336  -0.332  -0.331  -0.330  -0.326  -0.325
 -0.311  -0.307  -0.306  -0.305  -0.304  -0.304  -0.303  -0.302
 -0.300  -0.298  -0.292  -0.291  -0.288  -0.287  -0.281  -0.280
 -0.278  -0.275  -0.267  -0.265  -0.261  -0.253  -0.249  -0.244
 -0.243  -0.240  -0.237  -0.225  -0.195  -0.189

          Ground-State Mulliken Net Atomic Charges

     Atom                 Charge (a.u.)
  ----------------------------------------
      1 C                     0.269189
      2 C                    -0.130941
      3 N                    -0.473214
      4 C                    -0.075681
      5 C                     0.083168
      6 C                     0.013567
      7 C                     0.018746
      8 C                     0.044621
      9 C                     0.282220
     10 N                    -0.449458
     11 N                    -0.547795
     12 C                     0.198547
     13 C                     0.203995
     14 S                     0.598953
     15 N                    -0.531539
     16 C                    -0.206941
     17 S                     0.347507
     18 C                    -0.099861
     19 C                    -0.205907
     20 S                     0.245840
     21 C                     0.146690
     22 C                     0.055037
     23 C                    -0.314582
     24 C                    -0.085632
     25 N                    -0.421394
     26 S                     0.280933
     27 C                     0.098943
     28 C                    -0.320263
     29 C                    -0.222050
     30 H                     0.102880
     31 H                     0.121942
     32 H                     0.110000
     33 H                     0.113511
     34 H                     0.132343
     35 H                     0.116374
     36 H                     0.115512
     37 H                     0.147276
     38 H                     0.117458
     39 C                    -0.178985
     40 H                     0.091143
     41 H                     0.115458
     42 H                     0.102110
     43 C                    -0.180919
     44 H                     0.091417
     45 C                    -0.170872
     46 H                     0.088900
     47 H                     0.088866
     48 H                     0.091727
     49 C                    -0.185220
     50 H                     0.082974
     51 C                    -0.324109
     52 H                     0.103289
     53 H                     0.098517
     54 H                     0.124721
     55 H                     0.091272
     56 C                     0.284013
     57 C                    -0.115029
     58 N                    -0.492752
     59 C                    -0.067986
     60 C                     0.102491
     61 C                    -0.000908
     62 C                     0.038200
     63 C                     0.050712
     64 C                     0.211060
     65 N                    -0.480646
     66 N                    -0.573817
     67 C                     0.223764
     68 C                     0.248800
     69 S                     0.641343
     70 N                    -0.573254
     71 C                    -0.220340
     72 S                     0.307762
     73 C                    -0.093953
     74 C                    -0.247633
     75 S                     0.268487
     76 C                     0.157396
     77 C                     0.072628
     78 C                    -0.306864
     79 C                    -0.040894
     80 N                    -0.433205
     81 S                     0.271494
     82 C                     0.120776
     83 C                    -0.318061
     84 C                    -0.230283
     85 H                     0.094911
     86 H                     0.098355
     87 H                     0.124941
     88 H                     0.104013
     89 H                     0.128595
     90 H                     0.123961
     91 H                     0.115610
     92 H                     0.132275
     93 H                     0.116644
     94 C                    -0.184051
     95 H                     0.121813
     96 H                     0.095666
     97 H                     0.098466
     98 C                    -0.178640
     99 H                     0.099102
    100 C                    -0.179179
    101 H                     0.092146
    102 H                     0.085737
    103 H                     0.084509
    104 C                    -0.180988
    105 H                     0.094165
    106 C                    -0.312517
    107 H                     0.090551
    108 H                     0.105194
    109 H                     0.099109
    110 H                     0.116025
  ----------------------------------------
  Sum of atomic charges =     0.000000

                    Cartesian Multipole Moments
 -----------------------------------------------------------------
    Charge (ESU x 10^10)
                 0.0000
    Dipole Moment (Debye)
         X      -0.2114      Y       0.3129      Z       2.7067
       Tot       2.7329
    Quadrupole Moments (Debye-Ang)
        XX    -401.1501     XY      13.5205     YY    -435.6866
        XZ       1.6380     YZ      13.1296     ZZ    -434.8029

 Total job time:  100.99s(wall), 1110.08s(cpu)
        *  Thank you very much for using Q-Chem.  Have a nice day.  *
