 Q-Chem 4.4, Q-Chem, Inc., Pleasanton, CA (2016)
 Q-Chem 4.4.2 for Intel X86 Linux

User input:
--------------------------------------------------------------
$comment
SP
$end

$rem
MEM_STATIC 5000
MEM_TOTAL 20000
JOBTYPE SP
EXCHANGE B3LYP
BASIS 6-31g(d,p)
$end

$molecule
0 1
C          11.427000     11.518000      1.449000
C          10.377000     11.744000      0.525000
N          11.340000     11.901000      2.782000
C           9.201000     12.327000      0.957000
C          10.222000     12.398000      3.228000
C           9.093000     12.593000      2.372000
C           7.810000     12.947000      3.021000
C           6.889000     13.748000      2.305000
C           7.274000     12.284000      4.159000
N           5.629000     14.095000      2.743000
N           7.806000     11.252000      4.756000
C           6.036000     12.648000      4.635000
C           5.235000     13.575000      3.934000
S           6.713000     10.669000      5.770000
N           5.630000     11.805000      5.639000
C           3.943000     14.128000      4.487000
S           2.557000     14.603000      3.388000
C           3.673000     14.310000      5.762000
C           1.525000     15.028000      4.776000
S           4.542000     14.133000      7.210000
C           2.372000     14.927000      5.858000
C           0.189000     15.642000      4.630000
C           3.183000     14.999000      7.983000
C           2.062000     15.206000      7.225000
N          -0.502000     15.355000      3.554000
S          -0.634000     16.641000      5.825000
C          -1.663000     16.039000      3.487000
C          -1.789000     17.002000      4.520000
C          12.736000     10.896000      1.138000
H          10.531000     11.496000     -0.522000
H           8.435000     12.553000      0.221000
H          10.117000     12.579000      4.297000
H           7.166000     14.012000      1.285000
H           3.173000     15.252000      9.034000
H           1.167000     15.584000      7.705000
H          -2.275000     15.824000      2.621000
H          -2.598000     17.650000      4.830000
H          13.040000     11.155000      0.116000
C          12.669000      9.360000      1.154000
H          13.524000     11.152000      1.858000
H          11.911000      8.914000      0.498000
H          12.332000      9.090000      2.163000
C          14.051000      8.662000      0.977000
H          14.646000      9.175000      0.211000
C          13.822000      7.226000      0.468000
H          14.655000      8.683000      1.893000
H          13.445000      7.268000     -0.561000
H          13.146000      6.589000      1.051000
C          15.136000      6.506000      0.316000
H          15.753000      6.975000     -0.460000
C          14.937000      5.090000     -0.092000
H          15.739000      6.542000      1.232000
H          15.877000      4.523000     -0.093000
H          14.435000      4.958000     -1.059000
H          14.275000      4.594000      0.628000
C          19.893000      7.375000     -2.507000
C          20.678000      8.412000     -1.971000
N          19.043000      6.662000     -1.725000
C          20.454000      8.768000     -0.657000
C          18.739000      7.089000     -0.478000
C          19.404000      8.190000      0.111000
C          19.005000      8.707000      1.441000
C          17.661000      9.157000      1.737000
C          19.869000      8.704000      2.610000
N          17.205000      9.481000      2.922000
N          21.231000      8.453000      2.614000
C          19.434000      9.148000      3.844000
C          18.059000      9.454000      3.971000
S          21.751000      8.707000      4.127000
N          20.381000      9.295000      4.792000
C          17.408000      9.941000      5.235000
S          18.249000     10.156000      6.843000
C          16.136000     10.498000      5.438000
C          16.794000     10.650000      7.695000
S          14.742000     10.616000      4.371000
C          15.822000     10.890000      6.760000
C          16.819000     10.887000      9.115000
C          13.805000     11.317000      5.718000
C          14.454000     11.280000      6.945000
N          18.020000     10.801000      9.695000
S          15.485000     11.344000     10.180000
C          18.017000     11.194000     11.026000
C          16.729000     11.636000     11.357000
C          19.798000      6.879000     -3.966000
H          21.321000      9.045000     -2.576000
H          21.038000      9.586000     -0.246000
H          17.953000      6.527000      0.024000
H          16.963000      9.055000      0.908000
H          12.779000     11.575000      5.494000
H          13.956000     11.572000      7.862000
H          18.908000     11.194000     11.639000
H          16.547000     11.901000     12.390000
H          20.510000      6.064000     -4.149000
C          20.227000      7.946000     -5.045000
H          18.786000      6.541000     -4.219000
H          20.284000      7.593000     -6.082000
H          21.232000      8.328000     -4.826000
C          19.373000      9.279000     -5.117000
H          18.485000      9.317000     -5.760000
C          20.326000     10.419000     -5.701000
H          19.030000      9.461000     -4.091000
H          20.829000     10.127000     -6.632000
H          21.188000     10.706000     -5.085000
C          19.546000     11.744000     -5.774000
H          20.264000     12.365000     -6.323000
C          19.261000     12.516000     -4.462000
H          18.775000     11.679000     -6.551000
H          18.427000     12.003000     -3.967000
H          18.982000     13.571000     -4.578000
H          20.039000     12.534000     -3.688000
$end

--------------------------------------------------------------

             Standard Nuclear Orientation (Angstroms)
    I     Atom           X                Y                Z
 ----------------------------------------------------------------
    1      C      -0.4820101572    -2.0361078530    -0.1957362203
    2      C      -1.2990107262    -3.1935524559    -0.1821692874
    3      N      -0.9991779965    -0.7630472882    -0.4031035862
    4      C      -2.6661936282    -3.0661210850    -0.3372858825
    5      C      -2.2891365308    -0.6087754206    -0.4928597593
    6      C      -3.1849575541    -1.7212097077    -0.4193978564
    7      C      -4.6291631333    -1.4153589991    -0.3039353556
    8      C      -5.5593751221    -2.3287023623    -0.8543965774
    9      C      -5.1806458968    -0.4638319593     0.5973814888
   10      N      -6.9302540897    -2.2210661238    -0.7597482995
   11      N      -4.5061822839     0.2310626938     1.4729825716
   12      C      -6.5457171820    -0.3135446747     0.6729468138
   13      C      -7.4092563529    -1.1795261930    -0.0318276964
   14      S      -5.5651541695     0.9218482435     2.4548827039
   15      N      -6.8889799980     0.5384991143     1.6926001965
   16      C      -8.9021092463    -0.9652847393    -0.1116577537
   17      S     -10.0651836043    -2.3733559500    -0.2495544666
   18      C      -9.5098247794     0.2014396384    -0.0787175450
   19      C     -11.4764878765    -1.2877789015    -0.2055576139
   20      S      -8.9987125649     1.8200431645    -0.0331003406
   21      C     -10.9229814056    -0.0272623342    -0.2608981082
   22      C     -12.8635037268    -1.7594071462    -0.3978122107
   23      C     -10.7044953544     2.2353259904    -0.3680798170
   24      C     -11.6199925808     1.2198789892    -0.2988973323
   25      N     -13.1521006171    -2.9810797802    -0.0211773607
   26      S     -14.2192429241    -0.7969450078    -0.9800431451
   27      C     -14.4193353660    -3.3304125550    -0.3250666555
   28      C     -15.0852292750    -2.3471431020    -1.0997281847
   29      C       0.9910118988    -2.0132834814    -0.0321175459
   30      H      -0.8308936826    -4.1706646836    -0.0952950800
   31      H      -3.2669366028    -3.9692885572    -0.3913635632
   32      H      -2.6962160024     0.4009449060    -0.5288898254
   33      H      -5.1471164472    -3.2393174711    -1.2875800359
   34      H     -11.0429122593     3.2531753054    -0.5028639791
   35      H     -12.6754788805     1.4618928876    -0.3399697587
   36      H     -14.7079750610    -4.3276430950    -0.0202004935
   37      H     -16.1071168273    -2.2427603584    -1.4393383630
   38      H       1.4301242568    -2.9190228416    -0.4689213331
   39      C       1.4129315340    -2.0418665628     1.4461273015
   40      H       1.4628521268    -1.1115106605    -0.4432775861
   41      H       1.0137485522    -2.8774414981     2.0345858598
   42      H       0.9500845901    -1.1573161492     1.9020804485
   43      C       2.9453524524    -1.8721947572     1.6727428509
   44      H       3.5104698904    -2.4516813927     0.9319409067
   45      C       3.3111594389    -2.4479049784     3.0541772467
   46      H       3.2763397809    -0.8320763703     1.5591024993
   47      H       3.1954091772    -3.5381680576     3.0284421526
   48      H       2.7543469308    -2.0681831803     3.9192813947
   49      C       4.7821928106    -2.2718219200     3.3246501211
   50      H       5.3838388768    -2.8561272321     2.6179427465
   51      C       5.1452775992    -2.7418849800     4.6878563255
   52      H       5.1075036903    -1.2316959261     3.1970893573
   53      H       6.1885656447    -2.5126851151     4.9410508674
   54      H       4.9552480356    -3.8071954596     4.8709392217
   55      H       4.5241394455    -2.2236811024     5.4283373417
   56      C       9.5436059843    -3.7703763884     0.7875616137
   57      C       9.8085391026    -3.0335408515    -0.3811016545
   58      N       8.8039763032    -3.2440664149     1.7966893293
   59      C       9.1786312575    -1.8143151251    -0.5232731519
   60      C       8.0939554559    -2.1087971640     1.6048870239
   61      C       8.2158366876    -1.3502582427     0.4169852307
   62      C       7.3703667948    -0.1574437649     0.1766432206
   63      C       5.9233182710    -0.2067246123     0.1852436814
   64      C       7.8877874419     1.1932337832     0.0316879349
   65      N       5.1210776803     0.8279788347     0.1310605534
   66      N       9.2171709042     1.5406022723    -0.1419085597
   67      C       7.0551576768     2.2827724035    -0.1378711085
   68      C       5.6653562316     2.0596811175     0.0002311028
   69      S       9.2556837291     3.1404501910    -0.3930826019
   70      N       7.6535692644     3.4436481318    -0.4716271802
   71      C       4.6136287989     3.1237996957    -0.1418500671
   72      S       4.9367786743     4.8967919232    -0.4439141650
   73      C       3.2207871431     3.0048865568    -0.2655181191
   74      C       3.2421274264     5.3573961601    -0.3894542257
   75      S       2.1560299051     1.6194447908    -0.0593819089
   76      C       2.4949184193     4.2094877100    -0.4138240783
   77      C       2.8535107090     6.7406052693    -0.4838131528
   78      C       0.7541258949     2.6944948660    -0.3098045153
   79      C       1.0711592367     4.0457241985    -0.3518539052
   80      N       3.8462565009     7.6065422757    -0.7092147802
   81      S       1.2312501021     7.4373684571    -0.4101817496
   82      C       3.4035267253     8.8993014656    -0.9516668842
   83      C       2.0021487075     8.8980180722    -0.9490203546
   84      C       9.9593389487    -5.2137078776     1.1448882357
   85      H      10.3415286322    -3.4430288459    -1.2345679654
   86      H       9.3580694110    -1.2534959578    -1.4356244060
   87      H       7.4315289696    -1.8341581052     2.4242822507
   88      H       5.5110956037    -1.1881743543     0.4125713667
   89      H      -0.2168150019     2.2204087791    -0.2658482060
   90      H       0.3039898437     4.8100714324    -0.3890214762
   91      H       4.0765048260     9.7194615322    -1.1616381709
   92      H       1.5062435307     9.8547428777    -1.0449041495
   93      H      10.9150404839    -5.2230297141     1.6845230002
   94      C      10.2704346146    -6.1284485682    -0.1014022423
   95      H       9.1971816569    -5.7227027675     1.7469160294
   96      H      10.6804156436    -7.1225126854     0.1153443533
   97      H      11.0202611398    -5.6533368145    -0.7463355751
   98      C       9.0804297718    -6.3928149465    -1.1140166270
   99      H       8.4052594778    -7.2405423415    -0.9438980277
  100      C       9.7322886334    -6.6939270320    -2.5399466873
  101      H       8.4646666423    -5.4854374574    -1.0831805990
  102      H      10.5073660482    -7.4705304256    -2.5056513525
  103      H      10.2868861906    -5.8732417174    -3.0129859710
  104      C       8.6130118450    -6.9404981261    -3.5674563790
  105      H       9.2054133793    -7.2769055262    -4.4267912866
  106      C       7.7956024968    -5.7314922621    -4.0858189725
  107      H       8.1096985121    -7.8896791504    -3.3480798259
  108      H       7.0752130501    -5.4750215127    -3.2990459431
  109      H       7.2322225456    -5.8963915269    -5.0130369960
  110      H       8.3209634516    -4.7842473892    -4.2630392250
 ----------------------------------------------------------------

    9   -5663.4756536975      9.11E-06 Convergence criterion met
 Total energy in the final basis set = -5663.4756536975

                    Orbital Energies (a.u.)
 --------------------------------------------------------------

 Alpha MOs
 -- Occupied --
-88.995 -88.989 -88.935 -88.927 -88.916 -88.912 -88.909 -88.905
-14.384 -14.383 -14.378 -14.374 -14.354 -14.349 -14.341 -14.339
-14.332 -14.326 -10.272 -10.269 -10.265 -10.264 -10.255 -10.254
-10.253 -10.251 -10.241 -10.239 -10.237 -10.237 -10.236 -10.236
-10.235 -10.235 -10.235 -10.234 -10.234 -10.230 -10.229 -10.228
-10.227 -10.226 -10.226 -10.225 -10.225 -10.222 -10.221 -10.219
-10.216 -10.211 -10.211 -10.207 -10.206 -10.202 -10.201 -10.201
-10.190 -10.184 -10.182 -10.181 -10.181 -10.179 -10.178 -10.178
-10.175 -10.172 -10.168 -10.164  -8.052  -8.044  -7.995  -7.988
 -7.977  -7.970  -7.967  -7.964  -6.017  -6.011  -6.010  -6.009
 -6.004  -6.002  -5.959  -5.956  -5.952  -5.951  -5.948  -5.945
 -5.942  -5.938  -5.935  -5.933  -5.932  -5.931  -5.929  -5.928
 -5.927  -5.925  -5.924  -5.921  -1.060  -1.034  -0.972  -0.962
 -0.961  -0.951  -0.942  -0.934  -0.916  -0.909  -0.902  -0.894
 -0.840  -0.833  -0.832  -0.828  -0.815  -0.811  -0.807  -0.804
 -0.803  -0.799  -0.798  -0.792  -0.792  -0.781  -0.771  -0.763
 -0.749  -0.745  -0.744  -0.736  -0.716  -0.713  -0.710  -0.707
 -0.693  -0.689  -0.675  -0.673  -0.657  -0.657  -0.648  -0.639
 -0.632  -0.628  -0.625  -0.625  -0.612  -0.611  -0.604  -0.598
 -0.592  -0.588  -0.578  -0.577  -0.573  -0.573  -0.572  -0.570
 -0.547  -0.542  -0.542  -0.535  -0.530  -0.522  -0.520  -0.514
 -0.512  -0.506  -0.505  -0.493  -0.487  -0.486  -0.481  -0.475
 -0.473  -0.471  -0.470  -0.467  -0.465  -0.460  -0.449  -0.448
 -0.444  -0.443  -0.437  -0.437  -0.431  -0.430  -0.429  -0.428
 -0.425  -0.423  -0.423  -0.419  -0.419  -0.417  -0.416  -0.413
 -0.411  -0.409  -0.408  -0.402  -0.400  -0.400  -0.399  -0.397
 -0.396  -0.392  -0.392  -0.390  -0.389  -0.385  -0.385  -0.381
 -0.378  -0.378  -0.374  -0.373  -0.370  -0.368  -0.365  -0.359
 -0.352  -0.350  -0.348  -0.345  -0.343  -0.342  -0.339  -0.337
 -0.332  -0.331  -0.329  -0.327  -0.326  -0.321  -0.320  -0.318
 -0.315  -0.314  -0.312  -0.305  -0.301  -0.299  -0.298  -0.297
 -0.296  -0.292  -0.290  -0.290  -0.285  -0.283  -0.281  -0.280
 -0.276  -0.274  -0.272  -0.259  -0.254  -0.252  -0.251  -0.249
 -0.239  -0.238  -0.230  -0.229  -0.195  -0.190

          Ground-State Mulliken Net Atomic Charges

     Atom                 Charge (a.u.)
  ----------------------------------------
      1 C                     0.277361
      2 C                    -0.119523
      3 N                    -0.494512
      4 C                    -0.057011
      5 C                     0.120485
      6 C                     0.001961
      7 C                     0.031581
      8 C                     0.049436
      9 C                     0.234811
     10 N                    -0.494252
     11 N                    -0.554975
     12 C                     0.178489
     13 C                     0.254534
     14 S                     0.619519
     15 N                    -0.519056
     16 C                    -0.229720
     17 S                     0.306222
     18 C                    -0.039665
     19 C                    -0.185019
     20 S                     0.275095
     21 C                     0.079091
     22 C                     0.052702
     23 C                    -0.296159
     24 C                    -0.079672
     25 N                    -0.405213
     26 S                     0.259204
     27 C                     0.119554
     28 C                    -0.313261
     29 C                    -0.239458
     30 H                     0.096432
     31 H                     0.108579
     32 H                     0.108078
     33 H                     0.108184
     34 H                     0.115812
     35 H                     0.119003
     36 H                     0.120448
     37 H                     0.130758
     38 H                     0.094044
     39 C                    -0.188451
     40 H                     0.141966
     41 H                     0.090440
     42 H                     0.110986
     43 C                    -0.196476
     44 H                     0.088355
     45 C                    -0.173400
     46 H                     0.131965
     47 H                     0.092709
     48 H                     0.092672
     49 C                    -0.182743
     50 H                     0.096994
     51 C                    -0.320323
     52 H                     0.093027
     53 H                     0.101589
     54 H                     0.100136
     55 H                     0.096038
     56 C                     0.262566
     57 C                    -0.114330
     58 N                    -0.480740
     59 C                    -0.059526
     60 C                     0.078056
     61 C                     0.016439
     62 C                    -0.029468
     63 C                     0.089436
     64 C                     0.235263
     65 N                    -0.521408
     66 N                    -0.541196
     67 C                     0.221739
     68 C                     0.295350
     69 S                     0.615469
     70 N                    -0.560375
     71 C                    -0.245172
     72 S                     0.339324
     73 C                    -0.125747
     74 C                    -0.235978
     75 S                     0.305540
     76 C                     0.135447
     77 C                     0.077228
     78 C                    -0.315884
     79 C                    -0.077569
     80 N                    -0.430915
     81 S                     0.284256
     82 C                     0.120814
     83 C                    -0.308839
     84 C                    -0.216093
     85 H                     0.102111
     86 H                     0.105489
     87 H                     0.116846
     88 H                     0.109526
     89 H                     0.143826
     90 H                     0.112625
     91 H                     0.128618
     92 H                     0.121579
     93 H                     0.121310
     94 C                    -0.205550
     95 H                     0.125176
     96 H                     0.094797
     97 H                     0.096129
     98 C                    -0.172765
     99 H                     0.093454
    100 C                    -0.186970
    101 H                     0.099198
    102 H                     0.094243
    103 H                     0.088088
    104 C                    -0.188357
    105 H                     0.085986
    106 C                    -0.319331
    107 H                     0.094336
    108 H                     0.106462
    109 H                     0.107429
    110 H                     0.102687
  ----------------------------------------
  Sum of atomic charges =     0.000000

                    Cartesian Multipole Moments
 -----------------------------------------------------------------
    Charge (ESU x 10^10)
                 0.0000
    Dipole Moment (Debye)
         X      -2.0979      Y       1.6148      Z      -0.9390
       Tot       2.8090
    Quadrupole Moments (Debye-Ang)
        XX    -397.4552     XY     -28.9413     YY    -403.1514
        XZ     -12.5732     YZ       3.3288     ZZ    -454.1298

 Total job time:  88.59s(wall), 978.60s(cpu)
        *  Thank you very much for using Q-Chem.  Have a nice day.  *
