 Q-Chem 4.4, Q-Chem, Inc., Pleasanton, CA (2016)
 Q-Chem 4.4.2 for Intel X86 Linux

User input:
--------------------------------------------------------------
$comment
SP
$end

$rem
MEM_STATIC 5000
MEM_TOTAL 20000
JOBTYPE SP
EXCHANGE B3LYP
BASIS 6-31g(d,p)
$end

$molecule
0 1
C          20.784000     12.354000      3.111000
C          20.010000     12.785000      4.185000
N          22.096000     11.977000      3.185000
C          20.649000     12.759000      5.442000
C          22.682000     12.030000      4.420000
C          22.020000     12.378000      5.603000
C          22.572000     12.172000      7.013000
C          21.874000     12.867000      8.120000
C          23.826000     11.579000      7.414000
N          22.349000     12.921000      9.381000
N          24.652000     10.936000      6.540000
C          24.265000     11.757000      8.769000
C          23.487000     12.338000      9.777000
S          25.982000     10.621000      7.515000
N          25.500000     11.267000      8.992000
C          23.910000     12.453000     11.151000
S          25.546000     12.310000     11.841000
C          23.052000     12.677000     12.196000
C          25.037000     12.643000     13.456000
S          21.329000     12.881000     12.169000
C          23.684000     12.871000     13.434000
C          25.816000     12.826000     14.612000
C          21.436000     13.254000     13.892000
C          22.728000     13.215000     14.448000
N          27.106000     12.485000     14.396000
S          25.513000     13.551000     16.208000
C          27.827000     12.812000     15.510000
C          27.081000     13.116000     16.621000
C          20.015000     12.156000      1.783000
H          18.966000     13.050000      4.049000
H          19.984000     13.080000      6.239000
H          23.696000     11.634000      4.456000
H          20.985000     13.483000      7.993000
H          20.449000     13.353000     14.322000
H          22.930000     13.409000     15.495000
H          28.894000     12.634000     15.550000
H          27.399000     13.491000     17.585000
H          20.475000     11.308000      1.260000
C          20.168000     13.362000      0.884000
H          18.938000     11.983000      1.901000
H          21.230000     13.630000      0.836000
H          19.632000     14.160000      1.413000
C          19.682000     13.100000     -0.582000
H          19.710000     14.089000     -1.057000
C          18.244000     12.564000     -0.674000
H          20.430000     12.468000     -1.077000
H          18.196000     11.522000     -0.334000
H          17.947000     12.452000     -1.724000
C          17.064000     13.353000      0.034000
H          17.519000     13.738000      0.955000
C          15.840000     12.491000      0.396000
H          16.766000     14.211000     -0.581000
H          14.998000     13.040000      0.837000
H          16.080000     11.673000      1.086000
H          15.487000     11.952000     -0.492000
C          19.893000      7.375000     -2.507000
C          20.678000      8.412000     -1.971000
N          19.043000      6.662000     -1.725000
C          20.454000      8.768000     -0.657000
C          18.739000      7.089000     -0.478000
C          19.404000      8.190000      0.111000
C          19.005000      8.707000      1.441000
C          17.661000      9.157000      1.737000
C          19.869000      8.704000      2.610000
N          17.205000      9.481000      2.922000
N          21.231000      8.453000      2.614000
C          19.434000      9.148000      3.844000
C          18.059000      9.454000      3.971000
S          21.751000      8.707000      4.127000
N          20.381000      9.295000      4.792000
C          17.408000      9.941000      5.235000
S          18.249000     10.156000      6.843000
C          16.136000     10.498000      5.438000
C          16.794000     10.650000      7.695000
S          14.742000     10.616000      4.371000
C          15.822000     10.890000      6.760000
C          16.819000     10.887000      9.115000
C          13.805000     11.317000      5.718000
C          14.454000     11.280000      6.945000
N          18.020000     10.801000      9.695000
S          15.485000     11.344000     10.180000
C          18.017000     11.194000     11.026000
C          16.729000     11.636000     11.357000
C          19.798000      6.879000     -3.966000
H          21.321000      9.045000     -2.576000
H          21.038000      9.586000     -0.246000
H          17.953000      6.527000      0.024000
H          16.963000      9.055000      0.908000
H          12.779000     11.575000      5.494000
H          13.956000     11.572000      7.862000
H          18.908000     11.194000     11.639000
H          16.547000     11.901000     12.390000
H          20.510000      6.064000     -4.149000
C          20.227000      7.946000     -5.045000
H          18.786000      6.541000     -4.219000
H          20.284000      7.593000     -6.082000
H          21.232000      8.328000     -4.826000
C          19.373000      9.279000     -5.117000
H          18.485000      9.317000     -5.760000
C          20.326000     10.419000     -5.701000
H          19.030000      9.461000     -4.091000
H          20.829000     10.127000     -6.632000
H          21.188000     10.706000     -5.085000
C          19.546000     11.744000     -5.774000
H          20.264000     12.365000     -6.323000
C          19.261000     12.516000     -4.462000
H          18.775000     11.679000     -6.551000
H          18.427000     12.003000     -3.967000
H          18.982000     13.571000     -4.578000
H          20.039000     12.534000     -3.688000
$end

--------------------------------------------------------------

             Standard Nuclear Orientation (Angstroms)
    I     Atom           X                Y                Z
 ----------------------------------------------------------------
    1      C       2.1413549336    -1.0198216020     1.6541048229
    2      C       1.3175099425     0.0697045454     1.9234098636
    3      N       1.7137114997    -2.2453485086     1.2249732644
    4      C      -0.0543231769    -0.1283439901     1.6628399690
    5      C       0.3659205683    -2.3986077063     1.0477693605
    6      C      -0.5813045755    -1.3816015697     1.2129966133
    7      C      -2.0366356278    -1.4518822037     0.7522231758
    8      C      -2.9609690206    -0.4176090584     1.2733420106
    9      C      -2.7129345764    -2.5215507334     0.0569570623
   10      N      -4.2973148469    -0.4574361600     1.0965493795
   11      N      -2.0557077411    -3.6002906047    -0.4568271114
   12      C      -4.1464158464    -2.4940994121    -0.0123817677
   13      C      -4.9332410813    -1.4187765788     0.4159823926
   14      S      -3.3384888451    -4.5497488577    -0.9781251691
   15      N      -4.6685434556    -3.6011021722    -0.5753930010
   16      C      -6.3684483704    -1.3714598825     0.2819258082
   17      S      -7.5141567006    -2.6987476808    -0.0322469508
   18      C      -7.1027157695    -0.2165341267     0.3551575304
   19      C      -8.9103137576    -1.6869392414     0.0397541189
   20      S      -6.5565467806     1.4090645816     0.6201146501
   21      C      -8.4923083094    -0.4091545905     0.3147356292
   22      C     -10.2691264006    -2.0453985638    -0.0026854324
   23      C      -8.2588701604     1.8740804095     0.6919644266
   24      C      -9.1866614187     0.8311351585     0.5147933666
   25      N     -10.4258915268    -3.3431918573    -0.3464793570
   26      S     -11.7812543847    -1.2257570103     0.4515245227
   27      C     -11.7515713423    -3.6571425193    -0.2379712523
   28      C     -12.5971276456    -2.5849843973    -0.1009876785
   29      C       3.6596190609    -0.7268437696     1.7105586023
   30      H       1.7355802065     1.0191404542     2.2434812767
   31      H      -0.6366415391     0.7659244760     1.8669581591
   32      H       0.0730682581    -3.3549945478     0.6166432376
   33      H      -2.6614496668     0.3960405085     1.9322566780
   34      H      -8.3576093545     2.9491017569     0.7506983534
   35      H     -10.2597024722     0.9834049732     0.5215610018
   36      H     -12.1026115635    -4.6574526453    -0.4568854244
   37      H     -13.6613603024    -2.5652279454     0.0941111035
   38      H       4.1433536739    -1.3503779508     0.9480371606
   39      C       4.2403992429    -1.1354324743     3.0453977876
   40      H       3.9269665133     0.3261667917     1.5573394857
   41      H       3.8964505647    -2.1494515162     3.2808477598
   42      H       3.7841732893    -0.4391961719     3.7602781206
   43      C       5.8067686040    -1.1562568420     3.0524241890
   44      H       6.0703917559    -1.3142325206     4.1060258779
   45      C       6.4483006520     0.1620464498     2.5896963399
   46      H       6.1344848653    -2.0382700120     2.4879706303
   47      H       6.3258805919     0.2940391557     1.5074490232
   48      H       7.5407364936     0.1005115424     2.6674805750
   49      C       6.0348071299     1.5251742337     3.2876152119
   50      H       4.9646787407     1.4016500331     3.4951194346
   51      C       6.2405447269     2.7806948833     2.4195115663
   52      H       6.5563993880     1.6272766466     4.2471513570
   53      H       6.0076527677     3.7322673069     2.9146047474
   54      H       5.6609988484     2.7586358077     1.4886711010
   55      H       7.2734334121     2.8149528262     2.0512163623
   56      C       8.5117587591    -2.1080765839    -2.2676170176
   57      C       7.5817798499    -2.6536883322    -1.3641032941
   58      N       8.1803127762    -1.0669808626    -3.0730090089
   59      C       6.3699021103    -2.0083840660    -1.2282992134
   60      C       7.0444496089    -0.3660976025    -2.8531646983
   61      C       6.0928896381    -0.7796033431    -1.8914507988
   62      C       4.8949963646     0.0400374637    -1.5937417914
   63      C       4.9760372856     1.4172643962    -1.1542758137
   64      C       3.5285312495    -0.3988043949    -1.8245163834
   65      N       3.9645891089     2.2395269228    -1.0201343840
   66      N       3.1283188658    -1.6914477399    -2.1194133667
   67      C       2.4441283515     0.4221628730    -1.5812056770
   68      C       2.7171671425     1.7707531417    -1.2538769342
   69      S       1.5085987109    -1.6877472494    -2.1434534573
   70      N       1.2308918382    -0.1633543764    -1.6296692015
   71      C       1.6671704255     2.8067109145    -0.9658415415
   72      S      -0.1378813980     2.5366627121    -1.0554623138
   73      C       1.7932092200     4.0881377495    -0.4077183572
   74      C      -0.5461198320     4.1998773657    -0.6630041670
   75      S       3.2160443092     5.0639073506    -0.0626632971
   76      C       0.5967570501     4.8219720719    -0.2347056627
   77      C      -1.9166241076     4.6412941886    -0.6709551993
   78      C       2.1443999807     6.4020793644     0.4319608983
   79      C       0.7991509211     6.1846117273     0.1652929502
   80      N      -2.8293359309     3.6911342596    -0.8953437842
   81      S      -2.5558398746     6.2581824743    -0.3551934623
   82      C      -4.1346944078     4.1337377792    -0.7336021041
   83      C      -4.1029332034     5.4691466100    -0.3098763905
   84      C       9.9855435128    -2.5017454571    -2.5057458019
   85      H       7.8289718915    -3.4434875053    -0.6603445564
   86      H       5.6586747670    -2.4092791198    -0.5123803479
   87      H       6.9271126336     0.5272157449    -3.4646115869
   88      H       5.9904390590     1.8067990138    -1.0902381384
   89      H       2.6397770160     7.3058419276     0.7594220750
   90      H       0.0562101480     6.9591153004     0.3147594113
   91      H      -4.9928291117     3.4894209294    -0.8681778339
   92      H      -5.0511968239     5.9817000212    -0.2175557171
   93      H      10.0658122258    -3.2528219947    -3.3020491163
   94      C      10.6686376549    -3.2328029441    -1.2868494389
   95      H      10.6055428688    -1.6340459532    -2.7608837437
   96      H      11.6760430321    -3.6304002589    -1.4608545571
   97      H      10.0750054122    -4.1038971294    -0.9823733630
   98      C      10.7827829498    -2.4182937427     0.0677481444
   99      H      11.6613627205    -1.7856705525     0.2447297413
  100      C      10.8235005582    -3.4830890906     1.2566206958
  101      H       9.9072136493    -1.7575913002     0.0850594828
  102      H      11.5778598886    -4.2668545121     1.1093530326
  103      H       9.9227440167    -4.0925361765     1.4052171371
  104      C      10.9160685824    -2.7390786719     2.6009546044
  105      H      11.0889872724    -3.5819590053     3.2808206722
  106      C       9.6544408490    -2.0273481014     3.1489400581
  107      H      11.8992810101    -2.2628264138     2.6951464756
  108      H       9.5507112592    -1.0897946810     2.5885975235
  109      H       9.6716409080    -1.7772271644     4.2173340279
  110      H       8.6798172205    -2.5122519718     3.0087223014
 ----------------------------------------------------------------

   10   -5663.4922343873      5.31E-06 Convergence criterion met
 Total energy in the final basis set = -5663.4922343873

                    Orbital Energies (a.u.)
 --------------------------------------------------------------

 Alpha MOs
 -- Occupied --
-88.985 -88.984 -88.937 -88.934 -88.923 -88.914 -88.913 -88.910
-14.394 -14.393 -14.378 -14.374 -14.350 -14.347 -14.345 -14.343
-14.334 -14.326 -10.272 -10.269 -10.265 -10.264 -10.260 -10.257
-10.252 -10.248 -10.246 -10.244 -10.238 -10.238 -10.238 -10.237
-10.235 -10.235 -10.235 -10.233 -10.233 -10.232 -10.229 -10.229
-10.229 -10.228 -10.227 -10.226 -10.226 -10.225 -10.222 -10.215
-10.213 -10.212 -10.211 -10.210 -10.209 -10.208 -10.200 -10.198
-10.189 -10.183 -10.182 -10.181 -10.181 -10.180 -10.179 -10.178
-10.177 -10.176 -10.176 -10.170  -8.040  -8.039  -7.998  -7.995
 -7.982  -7.974  -7.971  -7.969  -6.005  -6.004  -5.999  -5.999
 -5.998  -5.996  -5.962  -5.959  -5.958  -5.956  -5.955  -5.952
 -5.946  -5.942  -5.939  -5.938  -5.935  -5.935  -5.934  -5.931
 -5.930  -5.930  -5.928  -5.926  -1.030  -1.024  -0.972  -0.963
 -0.962  -0.956  -0.933  -0.930  -0.917  -0.906  -0.905  -0.890
 -0.849  -0.837  -0.826  -0.823  -0.820  -0.808  -0.806  -0.806
 -0.805  -0.797  -0.794  -0.793  -0.781  -0.779  -0.763  -0.763
 -0.749  -0.747  -0.742  -0.737  -0.724  -0.714  -0.709  -0.707
 -0.695  -0.690  -0.674  -0.673  -0.655  -0.651  -0.645  -0.638
 -0.636  -0.631  -0.624  -0.621  -0.614  -0.613  -0.601  -0.599
 -0.596  -0.591  -0.588  -0.582  -0.579  -0.574  -0.569  -0.550
 -0.548  -0.543  -0.542  -0.536  -0.525  -0.523  -0.519  -0.515
 -0.505  -0.504  -0.501  -0.494  -0.487  -0.485  -0.475  -0.473
 -0.469  -0.468  -0.466  -0.464  -0.459  -0.458  -0.451  -0.449
 -0.446  -0.442  -0.439  -0.437  -0.435  -0.434  -0.433  -0.431
 -0.427  -0.423  -0.423  -0.422  -0.420  -0.418  -0.414  -0.412
 -0.411  -0.408  -0.403  -0.403  -0.399  -0.399  -0.397  -0.396
 -0.393  -0.393  -0.390  -0.388  -0.387  -0.385  -0.384  -0.381
 -0.380  -0.380  -0.374  -0.372  -0.369  -0.363  -0.359  -0.357
 -0.354  -0.352  -0.348  -0.345  -0.344  -0.341  -0.341  -0.340
 -0.338  -0.336  -0.330  -0.327  -0.326  -0.323  -0.321  -0.320
 -0.318  -0.315  -0.312  -0.308  -0.304  -0.300  -0.298  -0.297
 -0.296  -0.294  -0.293  -0.290  -0.284  -0.281  -0.280  -0.276
 -0.276  -0.270  -0.267  -0.258  -0.256  -0.253  -0.253  -0.252
 -0.246  -0.240  -0.233  -0.231  -0.193  -0.192

          Ground-State Mulliken Net Atomic Charges

     Atom                 Charge (a.u.)
  ----------------------------------------
      1 C                     0.262244
      2 C                    -0.104157
      3 N                    -0.489150
      4 C                    -0.080871
      5 C                     0.033454
      6 C                     0.064541
      7 C                     0.032547
      8 C                     0.071000
      9 C                     0.226557
     10 N                    -0.527090
     11 N                    -0.559822
     12 C                     0.206219
     13 C                     0.302387
     14 S                     0.588119
     15 N                    -0.558862
     16 C                    -0.200417
     17 S                     0.366279
     18 C                    -0.116884
     19 C                    -0.212674
     20 S                     0.286593
     21 C                     0.123571
     22 C                     0.053775
     23 C                    -0.311796
     24 C                    -0.082360
     25 N                    -0.423362
     26 S                     0.290607
     27 C                     0.105932
     28 C                    -0.297636
     29 C                    -0.240934
     30 H                     0.108320
     31 H                     0.107326
     32 H                     0.130000
     33 H                     0.119545
     34 H                     0.126833
     35 H                     0.115477
     36 H                     0.113265
     37 H                     0.134425
     38 H                     0.112805
     39 C                    -0.184631
     40 H                     0.115407
     41 H                     0.104726
     42 H                     0.092515
     43 C                    -0.182931
     44 H                     0.093945
     45 C                    -0.199702
     46 H                     0.097050
     47 H                     0.096057
     48 H                     0.094760
     49 C                    -0.174742
     50 H                     0.091126
     51 C                    -0.336374
     52 H                     0.095644
     53 H                     0.103309
     54 H                     0.123812
     55 H                     0.098755
     56 C                     0.263208
     57 C                    -0.114578
     58 N                    -0.476613
     59 C                    -0.064043
     60 C                     0.078485
     61 C                     0.017100
     62 C                    -0.023253
     63 C                     0.082782
     64 C                     0.235799
     65 N                    -0.517324
     66 N                    -0.537369
     67 C                     0.230910
     68 C                     0.290184
     69 S                     0.640035
     70 N                    -0.571752
     71 C                    -0.241550
     72 S                     0.338520
     73 C                    -0.114833
     74 C                    -0.240498
     75 S                     0.277823
     76 C                     0.130895
     77 C                     0.076662
     78 C                    -0.309261
     79 C                    -0.075939
     80 N                    -0.434103
     81 S                     0.282048
     82 C                     0.122770
     83 C                    -0.313218
     84 C                    -0.216704
     85 H                     0.103291
     86 H                     0.116746
     87 H                     0.109808
     88 H                     0.110016
     89 H                     0.128598
     90 H                     0.115129
     91 H                     0.136383
     92 H                     0.119800
     93 H                     0.121529
     94 C                    -0.205170
     95 H                     0.125593
     96 H                     0.094629
     97 H                     0.096357
     98 C                    -0.172948
     99 H                     0.093499
    100 C                    -0.186679
    101 H                     0.099786
    102 H                     0.093990
    103 H                     0.088345
    104 C                    -0.192645
    105 H                     0.085668
    106 C                    -0.324016
    107 H                     0.094442
    108 H                     0.112685
    109 H                     0.106804
    110 H                     0.107644
  ----------------------------------------
  Sum of atomic charges =     0.000000

                    Cartesian Multipole Moments
 -----------------------------------------------------------------
    Charge (ESU x 10^10)
                 0.0000
    Dipole Moment (Debye)
         X      -3.9135      Y       2.6636      Z       2.5145
       Tot       5.3603
    Quadrupole Moments (Debye-Ang)
        XX    -383.4233     XY     -16.8824     YY    -417.2174
        XZ       7.9912     YZ       6.5301     ZZ    -458.4833

 Total job time:  109.29s(wall), 1210.33s(cpu)
        *  Thank you very much for using Q-Chem.  Have a nice day.  *
