 Q-Chem 4.4, Q-Chem, Inc., Pleasanton, CA (2016)
 Q-Chem 4.4.2 for Intel X86 Linux

User input:
--------------------------------------------------------------
$comment
SP
$end

$rem
MEM_STATIC 5000
MEM_TOTAL 20000
JOBTYPE SP
EXCHANGE B3LYP
BASIS 6-31g(d,p)
$end

$molecule
0 1
C           1.881000     19.603000     10.990000
C           3.262000     19.890000     11.033000
N           1.274000     18.867000     10.017000
C           4.061000     19.367000      9.974000
C           2.009000     18.528000      8.971000
C           3.456000     18.636000      8.947000
C           4.249000     18.107000      7.830000
C           5.451000     17.358000      8.074000
C           3.897000     18.088000      6.446000
N           6.313000     16.885000      7.147000
N           2.753000     18.551000      5.970000
C           4.766000     17.536000      5.425000
C           6.051000     17.064000      5.799000
S           2.736000     18.317000      4.322000
N           4.190000     17.589000      4.180000
C           7.107000     16.580000      4.924000
S           8.389000     15.450000      5.392000
C           7.349000     16.994000      3.582000
C           9.360000     15.859000      3.980000
S           6.436000     17.826000      2.390000
C           8.615000     16.623000      3.112000
C          10.737000     15.368000      3.807000
C           7.801000     17.938000      1.359000
C           8.844000     17.174000      1.825000
N          11.237000     15.402000      2.615000
S          11.740000     14.868000      5.081000
C          12.489000     14.919000      2.555000
C          12.998000     14.692000      3.867000
C           0.876000     20.133000     12.021000
H           3.644000     20.434000     11.892000
H           5.141000     19.483000      9.939000
H           1.435000     18.002000      8.210000
H           5.661000     17.181000      9.128000
H           7.725000     18.398000      0.382000
H           9.732000     16.906000      1.265000
H          12.992000     14.975000      1.599000
H          14.041000     14.491000      4.073000
H           1.237000     21.141000     12.259000
C           0.958000     19.260000     13.317000
H          -0.181000     20.220000     11.742000
H           0.539000     19.807000     14.171000
H           1.999000     19.108000     13.630000
C           0.389000     17.885000     13.086000
H          -0.699000     17.972000     12.979000
C           0.751000     16.796000     14.160000
H           0.578000     17.379000     12.130000
H           1.835000     16.629000     14.206000
H           0.321000     15.852000     13.804000
C           0.335000     17.093000     15.673000
H           0.879000     17.957000     16.073000
C           0.542000     15.839000     16.597000
H          -0.678000     17.513000     15.683000
H           1.575000     15.708000     16.941000
H           0.223000     14.963000     16.019000
H          -0.140000     15.914000     17.454000
C          19.893000      7.375000     -2.507000
C          20.678000      8.412000     -1.971000
N          19.043000      6.662000     -1.725000
C          20.454000      8.768000     -0.657000
C          18.739000      7.089000     -0.478000
C          19.404000      8.190000      0.111000
C          19.005000      8.707000      1.441000
C          17.661000      9.157000      1.737000
C          19.869000      8.704000      2.610000
N          17.205000      9.481000      2.922000
N          21.231000      8.453000      2.614000
C          19.434000      9.148000      3.844000
C          18.059000      9.454000      3.971000
S          21.751000      8.707000      4.127000
N          20.381000      9.295000      4.792000
C          17.408000      9.941000      5.235000
S          18.249000     10.156000      6.843000
C          16.136000     10.498000      5.438000
C          16.794000     10.650000      7.695000
S          14.742000     10.616000      4.371000
C          15.822000     10.890000      6.760000
C          16.819000     10.887000      9.115000
C          13.805000     11.317000      5.718000
C          14.454000     11.280000      6.945000
N          18.020000     10.801000      9.695000
S          15.485000     11.344000     10.180000
C          18.017000     11.194000     11.026000
C          16.729000     11.636000     11.357000
C          19.798000      6.879000     -3.966000
H          21.321000      9.045000     -2.576000
H          21.038000      9.586000     -0.246000
H          17.953000      6.527000      0.024000
H          16.963000      9.055000      0.908000
H          12.779000     11.575000      5.494000
H          13.956000     11.572000      7.862000
H          18.908000     11.194000     11.639000
H          16.547000     11.901000     12.390000
H          20.510000      6.064000     -4.149000
C          20.227000      7.946000     -5.045000
H          18.786000      6.541000     -4.219000
H          20.284000      7.593000     -6.082000
H          21.232000      8.328000     -4.826000
C          19.373000      9.279000     -5.117000
H          18.485000      9.317000     -5.760000
C          20.326000     10.419000     -5.701000
H          19.030000      9.461000     -4.091000
H          20.829000     10.127000     -6.632000
H          21.188000     10.706000     -5.085000
C          19.546000     11.744000     -5.774000
H          20.264000     12.365000     -6.323000
C          19.261000     12.516000     -4.462000
H          18.775000     11.679000     -6.551000
H          18.427000     12.003000     -3.967000
H          18.982000     13.571000     -4.578000
H          20.039000     12.534000     -3.688000
$end

--------------------------------------------------------------

             Standard Nuclear Orientation (Angstroms)
    I     Atom           X                Y                Z
 ----------------------------------------------------------------
    1      C     -13.1520321578     0.2588209831    -0.6204851156
    2      C     -12.1997037455     0.6587163689    -1.5820116496
    3      N     -12.8948940275    -0.5846787658     0.4183903127
    4      C     -10.8826960591     0.1303778820    -1.4414406813
    5      C     -11.7131411967    -1.1783715345     0.4342378194
    6      C     -10.6026756912    -0.7623289962    -0.4023170009
    7      C      -9.2626698419    -1.3426973411    -0.2476046613
    8      C      -8.0951189712    -0.5047907999    -0.2564699117
    9      C      -8.9325777725    -2.6900513538     0.0920972523
   10      N      -6.8069457645    -0.9097687856    -0.2044639451
   11      N      -9.8308140606    -3.6294198019     0.3379416940
   12      C      -7.5641732857    -3.1527640862     0.2172854622
   13      C      -6.5060929760    -2.2560925461    -0.0832660429
   14      S      -9.0285153748    -5.0384865422     0.7145007728
   15      N      -7.5027603474    -4.4705288296     0.5971993103
   16      C      -5.0820828123    -2.5480912967    -0.1274110700
   17      S      -3.7850022833    -1.3673605899     0.1233978197
   18      C      -4.4853285259    -3.7969184754    -0.4668797719
   19      C      -2.5781773317    -2.4402749127    -0.5810838281
   20      S      -5.0479806351    -5.4146717409    -0.5806953061
   21      C      -3.1192244343    -3.6926553623    -0.7570276895
   22      C      -1.2016043552    -1.9974613235    -0.8569496752
   23      C      -3.5670434548    -5.9277933711    -1.2751456360
   24      C      -2.6153977930    -4.9383131019    -1.2118974634
   25      N      -0.3026073527    -2.9121233613    -1.0219276918
   26      S      -0.7456265757    -0.3784205284    -1.0802794059
   27      C       0.9224509705    -2.4112599090    -1.2516251165
   28      C       0.8534928091    -1.0021880924    -1.4558685687
   29      C     -14.6230868846     0.6929800459    -0.6577664647
   30      H     -12.5032665945     1.3856469456    -2.3297833617
   31      H     -10.0616360188     0.4148011290    -2.0941617755
   32      H     -11.6119495105    -1.8855160360     1.2558094211
   33      H      -8.3103968530     0.5608798527    -0.3223978547
   34      H      -3.4003973904    -6.9673839151    -1.5269105860
   35      H      -1.5538596981    -5.0689579524    -1.3852087331
   36      H       1.7119396611    -3.1204400413    -1.4610341596
   37      H       1.6765648208    -0.4173091826    -1.8446553025
   38      H     -14.8726898869     0.7156076428    -1.7255751241
   39      C     -14.7463459954     2.1461301631    -0.0906413212
   40      H     -15.3766711168     0.0730198130    -0.1573475255
   41      H     -15.6836042982     2.6072213060    -0.4268374422
   42      H     -13.9923220382     2.8111645073    -0.5310175162
   43      C     -14.5071784461     2.1741895478     1.3958843443
   44      H     -15.3599891089     1.6980921430     1.8946901528
   45      C     -14.2196076445     3.5856394249     2.0248146096
   46      H     -13.7254374557     1.5345031470     1.8264367019
   47      H     -13.3091771049     4.0302662120     1.6023406426
   48      H     -14.0008900450     3.4154236759     3.0859278036
   49      C     -15.3333561760     4.7138520093     1.8321112807
   50      H     -15.4465519887     4.9849419065     0.7756412265
   51      C     -15.0327046514     5.9910292035     2.6967314722
   52      H     -16.3203474312     4.2651850291     1.9970815902
   53      H     -14.3074818758     6.6747959801     2.2394559305
   54      H     -14.6588381348     5.6374501595     3.6654557299
   55      H     -15.9772055670     6.5134028175     2.8973351308
   56      C      12.2208696532    -2.2310215927     1.8577551142
   57      C      12.1653720039    -1.8126685692     0.5158196617
   58      N      11.5137657024    -1.5898046636     2.8227617736
   59      C      11.2648184335    -0.8181485382     0.1941969405
   60      C      10.5484705179    -0.7029409754     2.4889474458
   61      C      10.3474504661    -0.2957113720     1.1491332837
   62      C       9.2322652813     0.6070697767     0.7793519953
   63      C       7.8460231715     0.2975914173     1.0604355380
   64      C       9.4105657098     1.9351915323     0.2159981460
   65      N       6.8313948918     1.1109891273     0.8990334945
   66      N      10.5954934060     2.4582677247    -0.2743065061
   67      C       8.3398408637     2.7626343361    -0.0632932972
   68      C       7.0641587620     2.3357853027     0.3735420014
   69      S      10.2417164864     3.9039534235    -0.9137748411
   70      N       8.6155078323     3.8741469289    -0.7743977048
   71      C       5.7908474635     3.1067163551     0.1661543220
   72      S       5.6668622335     4.7537105754    -0.6156434146
   73      C       4.4561316058     2.7047430087     0.3286135724
   74      C       3.9324467531     4.8923342757    -0.3716118365
   75      S       3.7643500003     1.2604688932     1.0574204671
   76      C       3.4653654750     3.6661676323     0.0220370454
   77      C       3.2341768078     6.0990228256    -0.7314949109
   78      C       2.1366545821     1.9473528057     0.8072662825
   79      C       2.1340271325     3.2678583373     0.3778978654
   80      N       3.9707463335     7.0348994718    -1.3379578008
   81      S       1.5190233547     6.4789253773    -0.5403073500
   82      C       3.2220291335     8.1051968141    -1.8068982592
   83      C       1.8683890288     7.8476952028    -1.5515154347
   84      C      12.9916857539    -3.4162975940     2.4779851842
   85      H      12.6659537891    -2.3383487839    -0.2924137131
   86      H      11.1982638628    -0.5101624080    -0.8449450289
   87      H       9.9488643881    -0.3376223529     3.3212086986
   88      H       7.6966649534    -0.6401905994     1.5925126112
   89      H       1.3104200969     1.3344877729     1.1406564849
   90      H       1.2161901065     3.8375058900     0.2928457666
   91      H       3.6617993166     8.9435533416    -2.3297849764
   92      H       1.1621199792     8.6321569365    -1.7886690097
   93      H      13.9847116627    -3.0997366097     2.8220007182
   94      C      13.3423773336    -4.5683085727     1.4598215819
   95      H      12.4447264698    -3.8685927924     3.3138449781
   96      H      13.9890923884    -5.3701261080     1.8367503258
   97      H      13.8796813632    -4.1621542241     0.5936501064
   98      C      12.1254082413    -5.3174281333     0.7748433980
   99      H      11.6847417991    -6.1932619655     1.2669462176
  100      C      12.6450392079    -5.8783145567    -0.6266754491
  101      H      11.3302228555    -4.5662394122     0.6921106499
  102      H      13.5729149648    -6.4588665511    -0.5427709705
  103      H      12.9374522755    -5.1343304451    -1.3789062911
  104      C      11.4905603469    -6.6018251413    -1.3429610021
  105      H      12.0313956432    -7.0493340671    -2.1854566658
  106      C      10.3641470595    -5.7559443300    -1.9865693916
  107      H      11.2449277915    -7.5280996047    -0.8099738858
  108      H       9.7085388189    -5.4274590843    -1.1704656738
  109      H       9.7410337846    -6.2726009055    -2.7275942424
  110      H      10.6367835448    -4.8157286046    -2.4829036910
 ----------------------------------------------------------------

   10   -5663.5021281861      3.58E-06 Convergence criterion met
 Total energy in the final basis set = -5663.5021281861

                    Orbital Energies (a.u.)
 --------------------------------------------------------------

 Alpha MOs
 -- Occupied --
-88.992 -88.985 -88.939 -88.937 -88.926 -88.914 -88.912 -88.909
-14.386 -14.386 -14.382 -14.372 -14.352 -14.347 -14.345 -14.340
-14.328 -14.327 -10.274 -10.268 -10.268 -10.264 -10.260 -10.259
-10.255 -10.254 -10.245 -10.244 -10.244 -10.241 -10.240 -10.238
-10.238 -10.238 -10.237 -10.237 -10.235 -10.234 -10.231 -10.231
-10.230 -10.230 -10.230 -10.225 -10.221 -10.219 -10.218 -10.216
-10.215 -10.214 -10.213 -10.210 -10.206 -10.205 -10.203 -10.192
-10.192 -10.186 -10.185 -10.183 -10.182 -10.180 -10.180 -10.179
-10.178 -10.177 -10.173 -10.170  -8.048  -8.040  -8.000  -7.999
 -7.985  -7.973  -7.971  -7.970  -6.013  -6.007  -6.006  -6.005
 -6.000  -5.997  -5.964  -5.962  -5.960  -5.959  -5.956  -5.956
 -5.949  -5.946  -5.942  -5.937  -5.935  -5.934  -5.933  -5.932
 -5.930  -5.929  -5.928  -5.926  -1.038  -1.024  -0.986  -0.966
 -0.964  -0.943  -0.938  -0.936  -0.915  -0.908  -0.897  -0.896
 -0.853  -0.839  -0.831  -0.826  -0.816  -0.810  -0.808  -0.803
 -0.801  -0.800  -0.796  -0.792  -0.784  -0.775  -0.766  -0.761
 -0.749  -0.747  -0.740  -0.737  -0.727  -0.716  -0.710  -0.707
 -0.693  -0.690  -0.677  -0.670  -0.659  -0.647  -0.642  -0.640
 -0.635  -0.630  -0.627  -0.625  -0.615  -0.611  -0.603  -0.602
 -0.594  -0.593  -0.587  -0.582  -0.578  -0.577  -0.571  -0.559
 -0.548  -0.547  -0.539  -0.538  -0.526  -0.521  -0.518  -0.512
 -0.508  -0.506  -0.498  -0.498  -0.489  -0.483  -0.476  -0.475
 -0.473  -0.472  -0.468  -0.462  -0.459  -0.452  -0.447  -0.445
 -0.445  -0.443  -0.439  -0.438  -0.437  -0.436  -0.433  -0.433
 -0.431  -0.425  -0.424  -0.422  -0.421  -0.420  -0.415  -0.414
 -0.412  -0.411  -0.405  -0.403  -0.402  -0.401  -0.398  -0.397
 -0.395  -0.394  -0.393  -0.391  -0.389  -0.388  -0.384  -0.382
 -0.382  -0.381  -0.375  -0.375  -0.371  -0.364  -0.361  -0.360
 -0.355  -0.351  -0.349  -0.347  -0.344  -0.343  -0.342  -0.338
 -0.338  -0.336  -0.330  -0.329  -0.326  -0.324  -0.321  -0.317
 -0.315  -0.312  -0.309  -0.303  -0.302  -0.301  -0.299  -0.295
 -0.293  -0.293  -0.289  -0.287  -0.286  -0.283  -0.281  -0.279
 -0.278  -0.276  -0.263  -0.262  -0.256  -0.255  -0.253  -0.250
 -0.245  -0.242  -0.236  -0.230  -0.195  -0.190

          Ground-State Mulliken Net Atomic Charges

     Atom                 Charge (a.u.)
  ----------------------------------------
      1 C                     0.261647
      2 C                    -0.112441
      3 N                    -0.460471
      4 C                    -0.085334
      5 C                     0.096855
      6 C                     0.025664
      7 C                     0.040110
      8 C                     0.060575
      9 C                     0.226419
     10 N                    -0.514342
     11 N                    -0.577799
     12 C                     0.235770
     13 C                     0.278933
     14 S                     0.599755
     15 N                    -0.568953
     16 C                    -0.229891
     17 S                     0.309257
     18 C                    -0.129809
     19 C                    -0.237851
     20 S                     0.306449
     21 C                     0.170392
     22 C                     0.072416
     23 C                    -0.323174
     24 C                    -0.056312
     25 N                    -0.411234
     26 S                     0.281366
     27 C                     0.118788
     28 C                    -0.324347
     29 C                    -0.219844
     30 H                     0.097421
     31 H                     0.103797
     32 H                     0.113887
     33 H                     0.107935
     34 H                     0.132931
     35 H                     0.119961
     36 H                     0.122378
     37 H                     0.143231
     38 H                     0.091705
     39 C                    -0.182276
     40 H                     0.119247
     41 H                     0.094444
     42 H                     0.089624
     43 C                    -0.176913
     44 H                     0.087838
     45 C                    -0.183172
     46 H                     0.115332
     47 H                     0.089546
     48 H                     0.087617
     49 C                    -0.182963
     50 H                     0.090233
     51 C                    -0.321510
     52 H                     0.091556
     53 H                     0.107233
     54 H                     0.105890
     55 H                     0.102436
     56 C                     0.263582
     57 C                    -0.113824
     58 N                    -0.476114
     59 C                    -0.060385
     60 C                     0.079078
     61 C                     0.019868
     62 C                    -0.027241
     63 C                     0.080788
     64 C                     0.235793
     65 N                    -0.507591
     66 N                    -0.540953
     67 C                     0.221934
     68 C                     0.295890
     69 S                     0.617864
     70 N                    -0.560242
     71 C                    -0.241363
     72 S                     0.343329
     73 C                    -0.109619
     74 C                    -0.236473
     75 S                     0.276196
     76 C                     0.131401
     77 C                     0.076461
     78 C                    -0.317004
     79 C                    -0.077324
     80 N                    -0.430568
     81 S                     0.285888
     82 C                     0.121801
     83 C                    -0.308956
     84 C                    -0.216627
     85 H                     0.102881
     86 H                     0.105363
     87 H                     0.110768
     88 H                     0.110201
     89 H                     0.136073
     90 H                     0.116426
     91 H                     0.130037
     92 H                     0.123730
     93 H                     0.121836
     94 C                    -0.205455
     95 H                     0.126344
     96 H                     0.095332
     97 H                     0.095982
     98 C                    -0.172760
     99 H                     0.094366
    100 C                    -0.187406
    101 H                     0.099010
    102 H                     0.094578
    103 H                     0.087771
    104 C                    -0.188234
    105 H                     0.086036
    106 C                    -0.319209
    107 H                     0.094916
    108 H                     0.106814
    109 H                     0.107099
    110 H                     0.101906
  ----------------------------------------
  Sum of atomic charges =     0.000000

                    Cartesian Multipole Moments
 -----------------------------------------------------------------
    Charge (ESU x 10^10)
                 0.0000
    Dipole Moment (Debye)
         X       1.2651      Y       0.9234      Z      -3.6774
       Tot       3.9971
    Quadrupole Moments (Debye-Ang)
        XX    -448.3197     XY     -23.6099     YY    -407.7099
        XZ      -7.4739     YZ      -5.3324     ZZ    -450.6906

 Total job time:  91.03s(wall), 972.19s(cpu)
        *  Thank you very much for using Q-Chem.  Have a nice day.  *
