 Q-Chem 4.4, Q-Chem, Inc., Pleasanton, CA (2016)
 Q-Chem 4.4.2 for Intel X86 Linux

User input:
--------------------------------------------------------------
$comment
SP
$end

$rem
MEM_STATIC 5000
MEM_TOTAL 20000
JOBTYPE SP
EXCHANGE B3LYP
BASIS 6-31g(d,p)
$end

$molecule
0 1
C          16.999000      7.226000     13.009000
C          17.449000      8.024000     11.997000
N          17.517000      5.991000     13.183000
C          18.497000      7.677000     11.137000
C          18.520000      5.620000     12.320000
C          19.080000      6.419000     11.340000
C          20.403000      6.089000     10.717000
C          20.929000      4.779000     10.598000
C          21.408000      7.008000     10.254000
N          22.098000      4.378000     10.105000
N          21.257000      8.323000     10.422000
C          22.621000      6.660000      9.623000
C          23.029000      5.298000      9.689000
S          22.489000      8.987000      9.612000
N          23.372000      7.674000      9.195000
C          24.355000      4.715000      9.286000
S          25.722000      5.560000      8.565000
C          24.714000      3.347000      9.471000
C          26.605000      4.047000      8.229000
S          23.877000      2.024000     10.271000
C          25.910000      2.990000      8.916000
C          27.722000      3.898000      7.324000
C          25.213000      0.999000      9.789000
C          26.134000      1.611000      8.987000
N          28.290000      4.991000      6.959000
S          28.696000      2.451000      7.124000
C          29.493000      4.790000      6.322000
C          29.847000      3.444000      6.249000
C          15.894000      7.640000     13.995000
H          17.088000      9.048000     11.999000
H          18.920000      8.475000     10.534000
H          18.976000      4.665000     12.577000
H          20.241000      3.969000     10.837000
H          25.151000     -0.057000     10.019000
H          26.909000      1.021000      8.512000
H          30.068000      5.646000      5.997000
H          30.748000      3.042000      5.804000
H          14.990000      7.565000     13.378000
C          16.028000      9.030000     14.725000
H          15.646000      6.882000     14.748000
H          16.769000      9.739000     14.336000
H          16.403000      8.867000     15.743000
C          14.657000      9.834000     14.684000
H          14.831000     10.898000     14.891000
C          13.627000      9.262000     15.745000
H          14.302000      9.703000     13.655000
H          13.970000      9.196000     16.785000
H          13.418000      8.235000     15.420000
C          12.282000     10.020000     15.710000
H          12.397000     11.041000     16.094000
C          11.174000      9.334000     16.504000
H          11.949000     10.201000     14.681000
H          11.475000      9.133000     17.539000
H          10.871000      8.362000     16.096000
H          10.343000     10.046000     16.431000
C          19.893000      7.375000     -2.507000
C          20.678000      8.412000     -1.971000
N          19.043000      6.662000     -1.725000
C          20.454000      8.768000     -0.657000
C          18.739000      7.089000     -0.478000
C          19.404000      8.190000      0.111000
C          19.005000      8.707000      1.441000
C          17.661000      9.157000      1.737000
C          19.869000      8.704000      2.610000
N          17.205000      9.481000      2.922000
N          21.231000      8.453000      2.614000
C          19.434000      9.148000      3.844000
C          18.059000      9.454000      3.971000
S          21.751000      8.707000      4.127000
N          20.381000      9.295000      4.792000
C          17.408000      9.941000      5.235000
S          18.249000     10.156000      6.843000
C          16.136000     10.498000      5.438000
C          16.794000     10.650000      7.695000
S          14.742000     10.616000      4.371000
C          15.822000     10.890000      6.760000
C          16.819000     10.887000      9.115000
C          13.805000     11.317000      5.718000
C          14.454000     11.280000      6.945000
N          18.020000     10.801000      9.695000
S          15.485000     11.344000     10.180000
C          18.017000     11.194000     11.026000
C          16.729000     11.636000     11.357000
C          19.798000      6.879000     -3.966000
H          21.321000      9.045000     -2.576000
H          21.038000      9.586000     -0.246000
H          17.953000      6.527000      0.024000
H          16.963000      9.055000      0.908000
H          12.779000     11.575000      5.494000
H          13.956000     11.572000      7.862000
H          18.908000     11.194000     11.639000
H          16.547000     11.901000     12.390000
H          20.510000      6.064000     -4.149000
C          20.227000      7.946000     -5.045000
H          18.786000      6.541000     -4.219000
H          20.284000      7.593000     -6.082000
H          21.232000      8.328000     -4.826000
C          19.373000      9.279000     -5.117000
H          18.485000      9.317000     -5.760000
C          20.326000     10.419000     -5.701000
H          19.030000      9.461000     -4.091000
H          20.829000     10.127000     -6.632000
H          21.188000     10.706000     -5.085000
C          19.546000     11.744000     -5.774000
H          20.264000     12.365000     -6.323000
C          19.261000     12.516000     -4.462000
H          18.775000     11.679000     -6.551000
H          18.427000     12.003000     -3.967000
H          18.982000     13.571000     -4.578000
H          20.039000     12.534000     -3.688000
$end

--------------------------------------------------------------

             Standard Nuclear Orientation (Angstroms)
    I     Atom           X                Y                Z
 ----------------------------------------------------------------
    1      C      -6.7167083674    -1.6059235221     1.1257782187
    2      C      -5.5897269597    -1.7610254938     0.3712556643
    3      N      -6.8856419066    -0.4956455230     1.8758243666
    4      C      -4.5901582056    -0.7888293596     0.2528918923
    5      C      -5.8924598377     0.4511701100     1.8013358771
    6      C      -4.7781326121     0.3914135902     0.9845709216
    7      C      -3.9635080279     1.6112020495     0.6749568046
    8      C      -3.8483105805     2.7364536515     1.5278784776
    9      C      -3.2732175354     1.9173440799    -0.5492699281
   10      N      -3.1926384342     3.8785972719     1.3381075978
   11      N      -3.3723782994     1.1098070312    -1.6067674731
   12      C      -2.4707142776     3.0534094011    -0.7858668582
   13      C      -2.5610758635     4.1271002407     0.1441260260
   14      S      -2.3201390463     1.7047595838    -2.6808456893
   15      N      -1.8514516210     3.0994255782    -1.9647550097
   16      C      -1.9798237680     5.5075810127     0.0137694394
   17      S      -0.9794591838     6.1293819048    -1.2958829379
   18      C      -2.1959153453     6.5561241735     0.9563147540
   19      C      -0.6043329346     7.6390632223    -0.4230160427
   20      S      -3.2170139359     6.6421724486     2.3848984451
   21      C      -1.4716366811     7.6908854230     0.7247390144
   22      C       0.4650208401     8.5591656547    -0.7373550609
   23      C      -2.5872241428     8.2574106225     2.6343287121
   24      C      -1.5994279717     8.6195468480     1.7630623473
   25      N       0.9967073868     8.4162346973    -1.8981212550
   26      S       0.7265650855    10.1249048230     0.0126719150
   27      C       1.8136543641     9.4651356968    -2.2527807110
   28      C       1.8518406357    10.4699593578    -1.2877769706
   29      C      -7.8451602032    -2.6480258979     1.1981390705
   30      H      -5.5817671420    -2.6082800305    -0.3077122225
   31      H      -3.8697915590    -0.9225031178    -0.5486972923
   32      H      -6.1340115290     1.3695159269     2.3345372847
   33      H      -4.2568499242     2.6145822954     2.5302795835
   34      H      -2.8974787832     8.7912756229     3.5234913628
   35      H      -1.0417123189     9.5330145323     1.9330036324
   36      H       2.2906920227     9.4583410100    -3.2230254762
   37      H       2.4146299608    11.3926298562    -1.3458917445
   38      H      -7.3978475767    -3.4342888619     1.8188096478
   39      C      -8.4429701802    -3.1953348886    -0.1531684814
   40      H      -8.6803798202    -2.3723886677     1.8535086676
   41      H      -7.8850090568    -2.9914394518    -1.0752254405
   42      H      -9.3911034710    -2.6838305889    -0.3603510439
   43      C      -8.5800563882    -4.7789535296    -0.1200418827
   44      H      -8.6797130864    -5.1758293741    -1.1387563209
   45      C      -9.8382015562    -5.2259950714     0.7349608051
   46      H      -7.6382031980    -5.1186099488     0.3266941524
   47      H     -10.8066450688    -4.7905504232     0.4590801765
   48      H      -9.6259392154    -4.8909162485     1.7580452988
   49      C      -9.9799654169    -6.7626764588     0.7926437430
   50      H     -10.2666442691    -7.1671848860    -0.1857785421
   51      C     -10.9968980924    -7.2434755245     1.8238450774
   52      H      -9.0126135855    -7.2496426166     0.9646477993
   53      H     -11.9769905581    -6.7721217131     1.6843053227
   54      H     -10.7152235939    -7.0255573308     2.8612592366
   55      H     -11.0169986441    -8.3279330072     1.6614199072
   56      C       9.0375505529    -0.9270184677     1.8229918141
   57      C       8.7166636275    -0.7606801860     0.4634870671
   58      N       8.0744604279    -1.1779847613     2.7459578646
   59      C       7.4117762785    -0.9963408718     0.0823820321
   60      C       6.8267577059    -1.5258193998     2.3560822670
   61      C       6.4378052051    -1.4886014228     0.9964213628
   62      C       5.0986185683    -1.9551310611     0.5670971863
   63      C       4.6102020893    -3.2916015705     0.8349552097
   64      C       4.0964808212    -1.1014903037    -0.0494118509
   65      N       3.3903785547    -3.7191049684     0.6195291454
   66      N       4.3069581571     0.1767148007    -0.5392608095
   67      C       2.8404359301    -1.5698309927    -0.3842629083
   68      C       2.5028161464    -2.8740561793     0.0463175653
   69      S       2.9260381917     0.6418517086    -1.2469278964
   70      N       2.0801157119    -0.7499970461    -1.1371954855
   71      C       1.1835029004    -3.5435007928    -0.2181110042
   72      S      -0.2388573664    -2.7776789309    -1.0722644722
   73      C       0.8062182535    -4.8863647377    -0.0637908154
   74      C      -1.2896140453    -4.1708265928    -0.8672888792
   75      S       1.6258716729    -6.2354362542     0.7132698743
   76      C      -0.5193469626    -5.2159134600    -0.4301492431
   77      C      -2.6645910084    -4.1226009757    -1.2919141736
   78      C       0.1911980908    -7.2499526914     0.4030326890
   79      C      -0.9069281685    -6.5526382604    -0.0827350570
   80      N      -3.0361898292    -3.0052259889    -1.9240411032
   81      S      -3.9066881791    -5.3714451683    -1.1497424412
   82      C      -4.3175774623    -3.0730237023    -2.4526886264
   83      C      -4.8314190101    -4.3544150837    -2.2121226449
   84      C      10.4208852271    -0.9006357803     2.5081276641
   85      H       9.4649518778    -0.6220390174    -0.3117589073
   86      H       7.1642621842    -0.8959961149    -0.9701238837
   87      H       6.1603124223    -1.8334519725     3.1603564020
   88      H       5.2990887358    -3.9132955969     1.4039725431
   89      H       0.2546638831    -8.2732891570     0.7467921564
   90      H      -1.8727094831    -7.0273330219    -0.2095748600
   91      H      -4.7684009085    -2.2582606498    -3.0027517034
   92      H      -5.8592968212    -4.5367377225    -2.4961361320
   93      H      10.6651718857     0.1109558523     2.8569319034
   94      C      11.6289018258    -1.2235540444     1.5472995358
   95      H      10.4736865109    -1.5986263424     3.3521763591
   96      H      12.6332921280    -1.0999290103     1.9705535634
   97      H      11.6113958764    -0.5584936293     0.6747755040
   98      C      11.6471983262    -2.6572244043     0.8722858046
   99      H      12.1306697826    -3.4928955005     1.3931947886
  100      C      12.4629771473    -2.5252633163    -0.4937142636
  101      H      10.5930006420    -2.9314734897     0.7422716444
  102      H      13.4433708044    -2.0478774322    -0.3673616035
  103      H      12.0242767458    -1.8870533371    -1.2715953472
  104      C      12.4942988520    -3.8926133334    -1.1999202405
  105      H      13.1994768151    -3.6785380395    -2.0119927796
  106      C      11.2099944198    -4.4008035396    -1.9005327151
  107      H      13.1222231337    -4.5896970650    -0.6323108964
  108      H      10.5456729200    -4.7755604758    -1.1118729762
  109      H      11.3500632404    -5.2083597739    -2.6302968235
  110      H      10.5829339701    -3.6731862727    -2.4316186829
 ----------------------------------------------------------------

    9   -5663.5017014550      9.73E-06 Convergence criterion met
 Total energy in the final basis set = -5663.5017014550

                    Orbital Energies (a.u.)
 --------------------------------------------------------------

 Alpha MOs
 -- Occupied --
-88.992 -88.979 -88.943 -88.927 -88.925 -88.915 -88.911 -88.909
-14.385 -14.384 -14.381 -14.376 -14.353 -14.349 -14.345 -14.338
-14.328 -14.324 -10.278 -10.268 -10.266 -10.263 -10.258 -10.254
-10.252 -10.251 -10.247 -10.245 -10.244 -10.241 -10.241 -10.241
-10.237 -10.236 -10.235 -10.233 -10.233 -10.231 -10.230 -10.230
-10.230 -10.228 -10.222 -10.221 -10.220 -10.220 -10.218 -10.213
-10.213 -10.211 -10.210 -10.207 -10.203 -10.198 -10.198 -10.191
-10.189 -10.189 -10.188 -10.184 -10.183 -10.182 -10.182 -10.181
-10.179 -10.178 -10.178 -10.173  -8.047  -8.036  -8.003  -7.989
 -7.983  -7.974  -7.971  -7.969  -6.012  -6.007  -6.005  -6.001
 -5.995  -5.993  -5.967  -5.964  -5.960  -5.953  -5.949  -5.948
 -5.945  -5.944  -5.940  -5.938  -5.935  -5.934  -5.933  -5.932
 -5.930  -5.930  -5.927  -5.925  -1.042  -1.037  -0.977  -0.969
 -0.965  -0.949  -0.935  -0.929  -0.912  -0.909  -0.908  -0.897
 -0.844  -0.839  -0.830  -0.825  -0.812  -0.810  -0.804  -0.800
 -0.799  -0.797  -0.796  -0.790  -0.783  -0.780  -0.766  -0.765
 -0.750  -0.748  -0.741  -0.739  -0.723  -0.717  -0.710  -0.707
 -0.693  -0.691  -0.677  -0.669  -0.658  -0.653  -0.643  -0.642
 -0.636  -0.630  -0.627  -0.619  -0.616  -0.608  -0.604  -0.602
 -0.594  -0.593  -0.584  -0.582  -0.576  -0.576  -0.572  -0.570
 -0.547  -0.540  -0.539  -0.536  -0.526  -0.521  -0.520  -0.516
 -0.507  -0.504  -0.498  -0.498  -0.488  -0.483  -0.477  -0.472
 -0.471  -0.469  -0.468  -0.464  -0.461  -0.457  -0.453  -0.445
 -0.444  -0.442  -0.439  -0.436  -0.434  -0.434  -0.433  -0.429
 -0.428  -0.426  -0.423  -0.422  -0.421  -0.416  -0.414  -0.413
 -0.410  -0.410  -0.406  -0.401  -0.401  -0.399  -0.396  -0.396
 -0.395  -0.392  -0.392  -0.389  -0.387  -0.385  -0.382  -0.382
 -0.378  -0.374  -0.374  -0.373  -0.371  -0.369  -0.359  -0.356
 -0.355  -0.353  -0.351  -0.348  -0.347  -0.344  -0.342  -0.341
 -0.338  -0.336  -0.335  -0.333  -0.329  -0.327  -0.324  -0.320
 -0.316  -0.315  -0.313  -0.309  -0.302  -0.302  -0.300  -0.298
 -0.295  -0.292  -0.287  -0.286  -0.282  -0.282  -0.279  -0.279
 -0.279  -0.268  -0.264  -0.262  -0.257  -0.255  -0.254  -0.248
 -0.245  -0.242  -0.235  -0.229  -0.196  -0.188

          Ground-State Mulliken Net Atomic Charges

     Atom                 Charge (a.u.)
  ----------------------------------------
      1 C                     0.267495
      2 C                    -0.119612
      3 N                    -0.493703
      4 C                    -0.082553
      5 C                     0.056602
      6 C                     0.058694
      7 C                     0.075572
      8 C                     0.045853
      9 C                     0.181835
     10 N                    -0.516176
     11 N                    -0.539312
     12 C                     0.217966
     13 C                     0.292960
     14 S                     0.593062
     15 N                    -0.555716
     16 C                    -0.237310
     17 S                     0.352027
     18 C                    -0.115714
     19 C                    -0.220971
     20 S                     0.297251
     21 C                     0.141223
     22 C                     0.072546
     23 C                    -0.307795
     24 C                    -0.086705
     25 N                    -0.421014
     26 S                     0.271682
     27 C                     0.119947
     28 C                    -0.322661
     29 C                    -0.228271
     30 H                     0.081216
     31 H                     0.152363
     32 H                     0.099718
     33 H                     0.101017
     34 H                     0.126129
     35 H                     0.116404
     36 H                     0.120190
     37 H                     0.136060
     38 H                     0.113936
     39 C                    -0.192259
     40 H                     0.123628
     41 H                     0.087719
     42 H                     0.105151
     43 C                    -0.192470
     44 H                     0.084021
     45 C                    -0.167134
     46 H                     0.100223
     47 H                     0.094332
     48 H                     0.096058
     49 C                    -0.178315
     50 H                     0.090287
     51 C                    -0.314103
     52 H                     0.089154
     53 H                     0.102054
     54 H                     0.103441
     55 H                     0.099797
     56 C                     0.263860
     57 C                    -0.113953
     58 N                    -0.475813
     59 C                    -0.059754
     60 C                     0.078938
     61 C                     0.020147
     62 C                    -0.026106
     63 C                     0.081463
     64 C                     0.236643
     65 N                    -0.506692
     66 N                    -0.540202
     67 C                     0.223180
     68 C                     0.296393
     69 S                     0.622851
     70 N                    -0.562187
     71 C                    -0.239401
     72 S                     0.339149
     73 C                    -0.108020
     74 C                    -0.240056
     75 S                     0.281708
     76 C                     0.133545
     77 C                     0.082849
     78 C                    -0.307252
     79 C                    -0.075469
     80 N                    -0.435781
     81 S                     0.285449
     82 C                     0.113051
     83 C                    -0.309673
     84 C                    -0.216785
     85 H                     0.103135
     86 H                     0.105872
     87 H                     0.110945
     88 H                     0.110691
     89 H                     0.129905
     90 H                     0.115274
     91 H                     0.138283
     92 H                     0.128878
     93 H                     0.121961
     94 C                    -0.205405
     95 H                     0.126224
     96 H                     0.095188
     97 H                     0.096011
     98 C                    -0.172662
     99 H                     0.094260
    100 C                    -0.187545
    101 H                     0.099164
    102 H                     0.094424
    103 H                     0.087859
    104 C                    -0.188379
    105 H                     0.085929
    106 C                    -0.319334
    107 H                     0.094825
    108 H                     0.107101
    109 H                     0.107441
    110 H                     0.102059
  ----------------------------------------
  Sum of atomic charges =     0.000000

                    Cartesian Multipole Moments
 -----------------------------------------------------------------
    Charge (ESU x 10^10)
                 0.0000
    Dipole Moment (Debye)
         X       1.1307      Y      -0.5963      Z      -2.4987
       Tot       2.8068
    Quadrupole Moments (Debye-Ang)
        XX    -422.5293     XY      29.0346     YY    -384.8544
        XZ      -1.9159     YZ       4.8605     ZZ    -448.0729

 Total job time:  86.32s(wall), 931.66s(cpu)
        *  Thank you very much for using Q-Chem.  Have a nice day.  *
