 Q-Chem 4.4, Q-Chem, Inc., Pleasanton, CA (2016)
 Q-Chem 4.4.2 for Intel X86 Linux

User input:
--------------------------------------------------------------
$comment
SP
$end

$rem
MEM_STATIC 5000
MEM_TOTAL 20000
JOBTYPE SP
EXCHANGE B3LYP
BASIS 6-31g(d,p)
$end

$molecule
0 1
C          -8.526000    -14.757000     -6.261000
C          -8.080000    -13.912000     -5.243000
N          -9.721000    -15.322000     -6.107000
C          -8.877000    -13.533000     -4.160000
C         -10.508000    -14.989000     -5.069000
C         -10.162000    -14.099000     -4.026000
C         -10.954000    -13.867000     -2.851000
C         -10.294000    -14.065000     -1.585000
C         -12.353000    -13.531000     -2.845000
N         -10.925000    -13.781000     -0.460000
N         -13.146000    -13.355000     -3.948000
C         -12.959000    -13.242000     -1.648000
C         -12.221000    -13.413000     -0.445000
S         -14.495000    -12.640000     -3.326000
N         -14.179000    -12.715000     -1.735000
C         -12.782000    -13.249000      0.889000
S         -14.428000    -13.713000      1.388000
C         -12.064000    -12.758000      1.957000
C         -14.028000    -13.405000      3.131000
S         -10.442000    -12.005000      2.136000
C         -12.722000    -12.840000      3.152000
C         -14.919000    -13.673000      4.268000
C         -10.796000    -11.771000      3.860000
C         -11.975000    -12.263000      4.232000
N         -14.417000    -13.591000      5.510000
S         -16.447000    -14.470000      4.205000
C         -15.345000    -13.975000      6.443000
C         -16.529000    -14.369000      5.922000
C          -7.710000    -14.988000     -7.478000
H          -7.063000    -13.542000     -5.331000
H          -8.522000    -12.827000     -3.415000
H         -11.431000    -15.554000     -4.953000
H          -9.270000    -14.430000     -1.512000
H         -10.151000    -11.032000      4.317000
H         -12.447000    -12.048000      5.184000
H         -15.144000    -13.740000      7.479000
H         -17.414000    -14.640000      6.483000
H          -6.644000    -14.789000     -7.318000
C          -8.116000    -13.960000     -8.628000
H          -7.872000    -16.008000     -7.848000
H          -9.188000    -13.963000     -8.860000
H          -7.583000    -14.244000     -9.544000
C          -7.656000    -12.566000     -8.239000
H          -7.892000    -12.471000     -7.172000
C          -8.391000    -11.561000     -9.131000
H          -6.560000    -12.579000     -8.271000
H          -9.454000    -11.786000     -8.983000
H          -8.158000    -11.798000    -10.176000
C          -8.103000    -10.129000     -8.828000
H          -7.027000     -9.917000     -8.821000
C          -8.569000     -9.504000     -7.519000
H          -8.526000     -9.542000     -9.653000
H          -9.609000     -9.853000     -7.479000
H          -8.519000     -8.411000     -7.450000
H          -8.060000     -9.968000     -6.664000
C         -13.224000     -5.692000     -9.788000
C         -12.203000     -6.214000     -8.960000
N         -13.900000     -6.377000    -10.722000
C         -11.886000     -7.560000     -9.023000
C         -13.568000     -7.679000    -10.783000
C         -12.620000     -8.326000     -9.988000
C         -12.356000     -9.732000    -10.015000
C         -12.086000    -10.375000    -11.220000
C         -12.434000    -10.516000     -8.824000
N         -11.845000    -11.703000    -11.263000
N         -12.750000    -10.027000     -7.574000
C         -12.242000    -11.855000     -8.929000
C         -11.862000    -12.450000    -10.166000
S         -12.787000    -11.330000     -6.638000
N         -12.361000    -12.463000     -7.728000
C         -11.580000    -13.888000    -10.324000
S         -11.689000    -15.101000     -9.011000
C         -10.857000    -14.453000    -11.413000
C         -10.672000    -16.211000     -9.888000
S         -10.430000    -13.717000    -12.929000
C         -10.328000    -15.687000    -11.137000
C         -10.320000    -17.561000     -9.472000
C          -9.300000    -15.066000    -13.064000
C          -9.425000    -16.100000    -12.149000
N          -9.570000    -18.377000    -10.183000
S         -10.829000    -18.195000     -7.913000
C          -9.188000    -19.457000     -9.464000
C          -9.926000    -19.711000     -8.247000
C         -13.566000     -4.182000     -9.629000
H         -11.802000     -5.588000     -8.168000
H         -11.245000     -8.021000     -8.278000
H         -14.153000     -8.317000    -11.444000
H         -11.996000     -9.807000    -12.146000
H          -8.613000    -15.099000    -13.899000
H          -8.797000    -16.983000    -12.150000
H          -8.575000    -20.212000     -9.938000
H          -9.825000    -20.473000     -7.486000
H         -12.666000     -3.600000     -9.866000
C         -14.083000     -3.776000     -8.186000
H         -14.337000     -3.805000    -10.312000
H         -14.015000     -2.703000     -7.967000
H         -13.624000     -4.202000     -7.285000
C         -15.581000     -4.090000     -8.023000
H         -16.023000     -3.900000     -9.009000
C         -16.233000     -2.915000     -7.142000
H         -15.767000     -5.097000     -7.631000
H         -17.329000     -2.914000     -7.158000
H         -15.971000     -1.944000     -7.579000
C         -15.701000     -2.801000     -5.713000
H         -16.099000     -3.568000     -5.037000
C         -15.738000     -1.422000     -5.060000
H         -14.656000     -3.130000     -5.655000
H         -15.424000     -1.412000     -4.009000
H         -16.808000     -1.205000     -4.949000
H         -15.150000     -0.677000     -5.609000
$end

--------------------------------------------------------------

             Standard Nuclear Orientation (Angstroms)
    I     Atom           X                Y                Z
 ----------------------------------------------------------------
    1      C      -1.2886430102     3.6064570368     2.0618348290
    2      C      -0.4766210982     2.9445208591     2.9847248066
    3      N      -0.8416354377     3.7018709608     0.8120162768
    4      C       0.6943754102     2.2712850431     2.6279900122
    5      C       0.2885522448     3.0765860649     0.4386577343
    6      C       1.1397389085     2.3361103851     1.2912080444
    7      C       2.4153885426     1.7989299855     0.9092810498
    8      C       3.5403990185     2.1790886876     1.7262209437
    9      C       2.6603259432     0.9851681172    -0.2517229518
   10      N       4.7299484514     1.6525047858     1.4979151377
   11      N       1.7227331079     0.5728001682    -1.1612867757
   12      C       3.9145572264     0.4605469384    -0.4394528295
   13      C       4.9598766456     0.8453931182     0.4438900993
   14      S       2.5167581075    -0.5965726832    -2.0098157585
   15      N       4.0128224600    -0.4645553548    -1.3924626358
   16      C       6.3523299496     0.4491463041     0.2850340064
   17      S       7.2133560772     0.2780770020    -1.2651215670
   18      C       7.1980026745     0.2132415094     1.3463612746
   19      C       8.7992819124     0.0777482313    -0.4062731350
   20      S       6.9708496448     0.0842792307     3.1244794461
   21      C       8.5009112595     0.0164006253     0.9838755710
   22      C      10.1118341825    -0.0268843890    -1.0579882207
   23      C       8.6948869809    -0.3158147199     3.2654336754
   24      C       9.3432015091    -0.2897989773     2.1037536620
   25      N      11.2141179501     0.0362225401    -0.2949154776
   26      S      10.4382770728     0.1730276954    -2.7394852317
   27      C      12.3478219702     0.0331726723    -1.0655223118
   28      C      12.1163744128    -0.0054966195    -2.3972391413
   29      C      -2.6100525526     4.1526245979     2.4566560751
   30      H      -0.8030252226     2.9654024227     4.0200785181
   31      H       1.2734635715     1.7153111323     3.3594515026
   32      H       0.6449396713     3.2704168050    -0.5713064465
   33      H       3.4494811871     2.8833832291     2.5525581308
   34      H       8.9326328179    -0.7897420166     4.2087601483
   35      H      10.3403713378    -0.6896211575     1.9584692619
   36      H      13.2920498410    -0.1475055371    -0.5708394713
   37      H      12.8668541328    -0.0867522661    -3.1728451688
   38      H      -2.6858650081     4.3426951546     3.5335417028
   39      C      -3.7624263952     3.0847836101     2.1812107057
   40      H      -2.8276184031     5.0586616596     1.8775999953
   41      H      -3.7769165079     2.7119226845     1.1498127384
   42      H      -4.7290297477     3.5696584332     2.3666166519
   43      C      -3.6257730103     1.9355315039     3.1644209827
   44      H      -2.5499957503     1.7283755687     3.2191905497
   45      C      -4.4594383370     0.7633328566     2.6382399738
   46      H      -3.8714948349     2.3403519530     4.1534357393
   47      H      -4.0812920525     0.5887469758     1.6238321871
   48      H      -5.4977337701     1.1012583324     2.5370867902
   49      C      -4.3768224512    -0.4801023183     3.4582525233
   50      H      -4.6050934695    -0.2936965089     4.5146209328
   51      C      -3.0776219293    -1.2719068943     3.5381619548
   52      H      -5.1611891693    -1.1527804920     3.0889343324
   53      H      -2.7957395553    -1.3190734116     2.4782946769
   54      H      -3.1392074847    -2.2764751580     3.9728570468
   55      H      -2.2943581498    -0.6842668033     4.0347291458
   56      C      -4.7860565474    -6.4209846426     0.0860641148
   57      C      -4.1236725699    -5.5953759985     1.0242148665
   58      N      -5.4883291422    -5.9932755725    -0.9733862870
   59      C      -4.1010188016    -4.2236949194     0.8394127451
   60      C      -5.4714713119    -4.6573686353    -1.1290059159
   61      C      -4.8132512654    -3.7401134401    -0.3075880702
   62      C      -4.7385477958    -2.3325190588    -0.5532676367
   63      C      -5.8958381430    -1.5972827656    -0.7950953553
   64      C      -3.4774149544    -1.6667047829    -0.6271344529
   65      N      -5.8406816142    -0.2702023063    -1.0386712403
   66      N      -2.2504541900    -2.2760728189    -0.4699247866
   67      C      -3.4718148780    -0.3448830763    -0.9330200768
   68      C      -4.6871828969     0.3858822305    -1.0651436736
   69      S      -1.1893672678    -1.1030017547    -0.7406143173
   70      N      -2.2120158766     0.1416776939    -0.9819188822
   71      C      -4.7401811437     1.8339705857    -1.3345194361
   72      S      -3.3073786299     2.8852398594    -1.5561697704
   73      C      -5.8821982385     2.6545701855    -1.1102690135
   74      C      -4.2414490899     4.3128317139    -1.2025995894
   75      S      -7.5235331962     2.1686775676    -0.8066097961
   76      C      -5.5832080174     3.9866193213    -0.9877008794
   77      C      -3.7585500821     5.6854254441    -1.2500864288
   78      C      -7.7309001593     3.8359932450    -0.2662549363
   79      C      -6.7022126372     4.7271990584    -0.5299975760
   80      N      -4.5102698339     6.7378656732    -1.0027729048
   81      S      -2.0702630059     6.0454300102    -1.5841544768
   82      C      -3.7674455623     7.8594603915    -0.8630503608
   83      C      -2.4086177040     7.7938752493    -1.3524729192
   84      C      -4.7280979541    -7.9577525819     0.3255011677
   85      H      -3.4991473756    -6.0617419952     1.7807940354
   86      H      -3.4512679111    -3.5881640119     1.4330045627
   87      H      -5.9307968395    -4.2497471985    -2.0284806648
   88      H      -6.8776272525    -2.0656703332    -0.7250722807
   89      H      -8.6762458048     4.1390203775     0.1636045378
   90      H      -6.7308232811     5.7758603013    -0.2587688372
   91      H      -4.2678924863     8.7984200218    -0.6671481175
   92      H      -1.6041138153     8.5168814074    -1.3512125883
   93      H      -5.1996982066    -8.1717985225     1.2933185767
   94      C      -3.2644513858    -8.5676514736     0.3138364769
   95      H      -5.2826820358    -8.5633165317    -0.4016768017
   96      H      -3.1812566760    -9.5519190851     0.7915496852
   97      H      -2.4306520423    -8.0348211763     0.7879973453
   98      C      -2.7762900124    -8.8150927690    -1.1247879629
   99      H      -3.6705711906    -9.1188408286    -1.6830516018
  100      C      -1.9173171710   -10.1730500556    -1.1220192959
  101      H      -2.2480986960    -7.9541514718    -1.5515232625
  102      H      -1.7170573299   -10.5651334173    -2.1258318449
  103      H      -2.5004104896   -10.9717891492    -0.6482344901
  104      C      -0.6422269570   -10.1350760783    -0.2789511355
  105      H       0.1783266401    -9.5830032798    -0.7538999954
  106      C      -0.1487867139   -11.4563809840     0.3042204283
  107      H      -0.7558159461    -9.4564001674     0.5755232934
  108      H       0.8122795208   -11.3871385185     0.8284857937
  109      H       0.1465810234   -12.0448559276    -0.5737118815
  110      H      -0.8806432893   -11.9240850696     0.9734056355
 ----------------------------------------------------------------

   10   -5663.5113847526      8.75E-06 Convergence criterion met
 Total energy in the final basis set = -5663.5113847526

                    Orbital Energies (a.u.)
 --------------------------------------------------------------

 Alpha MOs
 -- Occupied --
-88.996 -88.988 -88.932 -88.930 -88.921 -88.915 -88.909 -88.907
-14.395 -14.392 -14.378 -14.377 -14.349 -14.343 -14.341 -14.338
-14.330 -14.330 -10.275 -10.265 -10.265 -10.263 -10.259 -10.258
-10.255 -10.249 -10.246 -10.246 -10.245 -10.238 -10.236 -10.234
-10.232 -10.231 -10.231 -10.230 -10.229 -10.229 -10.229 -10.228
-10.228 -10.224 -10.222 -10.221 -10.216 -10.213 -10.213 -10.212
-10.212 -10.207 -10.203 -10.201 -10.197 -10.194 -10.194 -10.191
-10.189 -10.187 -10.180 -10.178 -10.178 -10.176 -10.175 -10.174
-10.173 -10.172 -10.172 -10.170  -8.052  -8.043  -7.992  -7.990
 -7.979  -7.975  -7.969  -7.967  -6.017  -6.011  -6.010  -6.008
 -6.002  -6.001  -5.956  -5.954  -5.953  -5.951  -5.949  -5.947
 -5.943  -5.940  -5.939  -5.936  -5.936  -5.933  -5.933  -5.932
 -5.930  -5.928  -5.925  -5.923  -1.049  -1.039  -0.972  -0.966
 -0.963  -0.957  -0.944  -0.939  -0.915  -0.909  -0.909  -0.896
 -0.846  -0.841  -0.840  -0.838  -0.816  -0.812  -0.811  -0.804
 -0.801  -0.797  -0.792  -0.789  -0.788  -0.779  -0.770  -0.761
 -0.753  -0.742  -0.739  -0.737  -0.732  -0.718  -0.715  -0.706
 -0.695  -0.686  -0.680  -0.668  -0.660  -0.651  -0.650  -0.645
 -0.642  -0.632  -0.631  -0.620  -0.618  -0.608  -0.597  -0.595
 -0.593  -0.588  -0.583  -0.582  -0.576  -0.572  -0.566  -0.560
 -0.557  -0.547  -0.546  -0.536  -0.530  -0.521  -0.515  -0.510
 -0.504  -0.504  -0.502  -0.493  -0.493  -0.489  -0.486  -0.478
 -0.476  -0.474  -0.469  -0.466  -0.462  -0.456  -0.455  -0.450
 -0.446  -0.444  -0.442  -0.437  -0.434  -0.434  -0.432  -0.430
 -0.428  -0.424  -0.422  -0.421  -0.419  -0.418  -0.417  -0.415
 -0.413  -0.409  -0.407  -0.404  -0.403  -0.400  -0.397  -0.396
 -0.394  -0.392  -0.391  -0.388  -0.388  -0.386  -0.384  -0.382
 -0.381  -0.380  -0.374  -0.364  -0.362  -0.361  -0.358  -0.357
 -0.355  -0.352  -0.349  -0.349  -0.347  -0.346  -0.344  -0.342
 -0.338  -0.336  -0.333  -0.330  -0.327  -0.324  -0.324  -0.319
 -0.317  -0.309  -0.309  -0.308  -0.306  -0.303  -0.301  -0.300
 -0.295  -0.292  -0.290  -0.286  -0.285  -0.281  -0.280  -0.275
 -0.274  -0.268  -0.267  -0.261  -0.255  -0.255  -0.253  -0.250
 -0.245  -0.240  -0.235  -0.228  -0.196  -0.188

          Ground-State Mulliken Net Atomic Charges

     Atom                 Charge (a.u.)
  ----------------------------------------
      1 C                     0.322852
      2 C                    -0.137595
      3 N                    -0.489122
      4 C                    -0.076603
      5 C                     0.098332
      6 C                     0.030215
      7 C                    -0.028514
      8 C                     0.079403
      9 C                     0.258675
     10 N                    -0.490259
     11 N                    -0.562136
     12 C                     0.197257
     13 C                     0.264934
     14 S                     0.611241
     15 N                    -0.544692
     16 C                    -0.216619
     17 S                     0.306414
     18 C                    -0.080396
     19 C                    -0.225446
     20 S                     0.246730
     21 C                     0.137706
     22 C                     0.050928
     23 C                    -0.307216
     24 C                    -0.023833
     25 N                    -0.437022
     26 S                     0.276899
     27 C                     0.127202
     28 C                    -0.306062
     29 C                    -0.246900
     30 H                     0.086972
     31 H                     0.101231
     32 H                     0.105184
     33 H                     0.125791
     34 H                     0.136978
     35 H                     0.123601
     36 H                     0.116899
     37 H                     0.135171
     38 H                     0.098779
     39 C                    -0.187357
     40 H                     0.122561
     41 H                     0.120264
     42 H                     0.100062
     43 C                    -0.176354
     44 H                     0.093325
     45 C                    -0.178933
     46 H                     0.082932
     47 H                     0.094256
     48 H                     0.106385
     49 C                    -0.179333
     50 H                     0.088274
     51 C                    -0.322906
     52 H                     0.089652
     53 H                     0.098382
     54 H                     0.104651
     55 H                     0.102316
     56 C                     0.275576
     57 C                    -0.108305
     58 N                    -0.478694
     59 C                    -0.054068
     60 C                     0.074885
     61 C                     0.022160
     62 C                    -0.019053
     63 C                     0.068232
     64 C                     0.240099
     65 N                    -0.537695
     66 N                    -0.563820
     67 C                     0.206706
     68 C                     0.334464
     69 S                     0.619254
     70 N                    -0.566929
     71 C                    -0.240146
     72 S                     0.348271
     73 C                    -0.116520
     74 C                    -0.228928
     75 S                     0.290445
     76 C                     0.159888
     77 C                     0.068837
     78 C                    -0.309182
     79 C                    -0.057805
     80 N                    -0.426408
     81 S                     0.270834
     82 C                     0.098551
     83 C                    -0.311484
     84 C                    -0.242895
     85 H                     0.092808
     86 H                     0.121538
     87 H                     0.096103
     88 H                     0.120607
     89 H                     0.115503
     90 H                     0.129223
     91 H                     0.109246
     92 H                     0.138059
     93 H                     0.106811
     94 C                    -0.188228
     95 H                     0.117533
     96 H                     0.096329
     97 H                     0.098809
     98 C                    -0.173241
     99 H                     0.100046
    100 C                    -0.190348
    101 H                     0.103639
    102 H                     0.088197
    103 H                     0.092219
    104 C                    -0.179410
    105 H                     0.088447
    106 C                    -0.319564
    107 H                     0.087270
    108 H                     0.099963
    109 H                     0.103052
    110 H                     0.103961
  ----------------------------------------
  Sum of atomic charges =     0.000000

                    Cartesian Multipole Moments
 -----------------------------------------------------------------
    Charge (ESU x 10^10)
                 0.0000
    Dipole Moment (Debye)
         X       4.3736      Y       0.5671      Z       2.2993
       Tot       4.9736
    Quadrupole Moments (Debye-Ang)
        XX    -422.7706     XY     -15.6377     YY    -438.6112
        XZ     -29.3498     YZ      -2.6413     ZZ    -433.6374

 Total job time:  111.90s(wall), 1243.31s(cpu)
        *  Thank you very much for using Q-Chem.  Have a nice day.  *
