 Q-Chem 4.4, Q-Chem, Inc., Pleasanton, CA (2016)
 Q-Chem 4.4.2 for Intel X86 Linux

User input:
--------------------------------------------------------------
$comment
SP
$end

$rem
MEM_STATIC 5000
MEM_TOTAL 20000
JOBTYPE SP
EXCHANGE B3LYP
BASIS 6-31g(d,p)
$end

$molecule
0 1
C          15.605000     15.486000    -14.672000
C          15.521000     16.882000    -14.344000
N          14.514000     14.655000    -14.647000
C          14.319000     17.384000    -13.979000
C          13.350000     15.204000    -14.243000
C          13.193000     16.575000    -13.867000
C          11.960000     17.132000    -13.301000
C          11.930000     18.092000    -12.289000
C          10.645000     16.729000    -13.751000
N          10.744000     18.568000    -11.731000
N          10.410000     15.871000    -14.762000
C           9.475000     17.268000    -13.244000
C           9.551000     18.185000    -12.208000
S           8.792000     15.710000    -15.004000
N           8.336000     16.808000    -13.754000
C           8.350000     18.840000    -11.564000
S           6.776000     18.004000    -11.475000
C           8.217000     20.120000    -11.063000
C           5.972000     19.579000    -10.843000
S           9.403000     21.428000    -11.129000
C           6.934000     20.581000    -10.759000
C           4.587000     19.751000    -10.512000
C           8.114000     22.569000    -10.649000
C           6.881000     21.959000    -10.464000
N           3.960000     20.839000    -10.891000
S           3.717000     18.495000     -9.672000
C           2.688000     20.814000    -10.412000
C           2.455000     19.778000     -9.538000
C          16.975000     14.891000    -14.887000
H          16.408000     17.508000    -14.351000
H          14.280000     18.448000    -13.768000
H          12.536000     14.489000    -14.348000
H          12.879000     18.304000    -11.799000
H           8.240000     23.641000    -10.568000
H           5.956000     22.495000    -10.285000
H           2.012000     21.654000    -10.506000
H           1.646000     19.651000     -8.830000
H          16.926000     14.004000    -15.531000
C          17.690000     14.618000    -13.531000
H          17.539000     15.708000    -15.354000
H          18.268000     15.499000    -13.227000
H          18.448000     13.845000    -13.705000
C          16.897000     14.236000    -12.271000
H          16.400000     15.167000    -11.971000
C          17.835000     13.855000    -11.113000
H          16.167000     13.422000    -12.360000
H          18.796000     14.362000    -11.265000
H          18.067000     12.790000    -11.240000
C          17.286000     14.248000     -9.704000
H          16.933000     15.262000     -9.478000
C          18.445000     14.024000     -8.671000
H          16.455000     13.576000     -9.457000
H          18.021000     14.129000     -7.664000
H          19.209000     14.793000     -8.839000
H          18.840000     13.007000     -8.776000
C           0.692000     13.408000    -14.675000
C           1.613000     14.301000    -15.261000
N           1.056000     12.814000    -13.513000
C           2.902000     14.440000    -14.739000
C           2.199000     13.101000    -12.877000
C           3.180000     13.900000    -13.507000
C           4.521000     14.079000    -12.861000
C           5.762000     13.991000    -13.596000
C           4.687000     14.241000    -11.522000
N           7.019000     13.988000    -13.119000
N           3.630000     14.332000    -10.654000
C           5.941000     14.296000    -10.961000
C           7.100000     14.150000    -11.770000
S           4.248000     14.477000     -9.191000
N           5.808000     14.414000     -9.673000
C           8.468000     14.173000    -11.146000
S           9.093000     15.326000     -9.895000
C           9.539000     13.481000    -11.708000
C          10.771000     14.913000    -10.231000
S           9.526000     12.251000    -12.945000
C          10.795000     13.903000    -11.209000
C          11.889000     15.696000     -9.699000
C          11.351000     12.618000    -13.051000
C          11.820000     13.253000    -11.903000
N          13.087000     15.522000    -10.148000
S          11.574000     16.977000     -8.583000
C          13.948000     16.366000     -9.608000
C          13.352000     17.217000     -8.637000
C          -0.622000     13.052000    -15.188000
H           1.420000     14.766000    -16.224000
H           3.592000     15.163000    -15.164000
H           2.410000     12.620000    -11.923000
H           5.677000     13.843000    -14.672000
H          11.871000     12.149000    -13.876000
H          12.868000     13.448000    -11.708000
H          15.011000     16.242000     -9.768000
H          13.972000     17.934000     -8.116000
H          -0.495000     12.992000    -16.276000
C          -1.705000     14.106000    -14.771000
H          -0.885000     12.042000    -14.852000
H          -1.506000     14.444000    -13.746000
H          -2.689000     13.645000    -14.918000
C          -1.719000     15.361000    -15.653000
H          -0.852000     16.028000    -15.568000
C          -2.994000     16.173000    -15.450000
H          -1.734000     15.065000    -16.710000
H          -3.089000     16.573000    -14.433000
H          -3.800000     15.441000    -15.579000
C          -3.077000     17.466000    -16.242000
H          -3.917000     18.079000    -15.891000
C          -3.349000     17.164000    -17.717000
H          -2.182000     18.063000    -16.027000
H          -4.302000     16.643000    -17.871000
H          -2.474000     16.628000    -18.105000
H          -3.368000     18.106000    -18.278000
$end

--------------------------------------------------------------

             Standard Nuclear Orientation (Angstroms)
    I     Atom           X                Y                Z
 ----------------------------------------------------------------
    1      C       7.1198260254    -2.0174982947    -2.8792206848
    2      C       7.0314544097    -0.6329264110    -3.2515205052
    3      N       6.0726324877    -2.6973440182    -2.3111868066
    4      C       5.8730306974     0.0231978601    -3.0115445821
    5      C       4.9554533605    -1.9826108409    -2.0650561850
    6      C       4.8022128755    -0.5945000477    -2.3738146337
    7      C       3.6384285856     0.2071675679    -1.9816040263
    8      C       3.7119317043     1.5349024628    -1.5592755518
    9      C       2.2897070871    -0.3169966483    -1.9999396196
   10      N       2.5964818092     2.2600788214    -1.1416312290
   11      N       1.9503295282    -1.5457373056    -2.4341391931
   12      C       1.1809291883     0.4384837884    -1.6588664879
   13      C       1.3641735427     1.7363734796    -1.2095727578
   14      S       0.3212284482    -1.7476848453    -2.3466414094
   15      N       0.0003489389    -0.1704121338    -1.7259263909
   16      C       0.2391715950     2.6602679931    -0.8009757122
   17      S      -1.2773710420     2.0231445920    -0.1092639212
   18      C       0.1299085200     4.0275780445    -0.9610219672
   19      C      -2.0437133116     3.7348452350    -0.2055210503
   20      S       1.2485986930     5.1030111688    -1.8058840222
   21      C      -1.1155349648     4.6212895549    -0.7432992798
   22      C      -3.3761835417     4.0914311608     0.1878484496
   23      C      -0.0031163516     6.3777360064    -1.7601889948
   24      C      -1.1770529978     5.9732137243    -1.1398274274
   25      N      -4.0872018530     4.8858116795    -0.5763024206
   26      S      -4.0787605298     3.4214266513     1.6361286480
   27      C      -5.2806761794     5.1365845861     0.0243488772
   28      C      -5.3557828859     4.6541415840     1.3100660826
   29      C       8.4682670456    -2.6891172334    -2.9674522902
   30      H       7.8864162443    -0.1173476251    -3.6780328462
   31      H       5.8251562621     1.0589644703    -3.3325330051
   32      H       4.1607322122    -2.6323795690    -1.7030273235
   33      H       4.7105140163     1.9231376534    -1.3649773201
   34      H       0.0944387031     7.3526529750    -2.2202334660
   35      H      -2.0876864170     6.5606668305    -1.1151774009
   36      H      -5.9926752123     5.8515284935    -0.3672179583
   37      H      -6.0561136033     4.9092919099     2.0951197097
   38      H       8.3639128483    -3.7739236396    -3.0947757473
   39      C       9.3700340489    -2.3037470316    -1.7579912204
   40      H       8.9341623161    -2.2152123843    -3.8403954676
   41      H       9.9521980354    -1.4050271638    -1.9947372699
   42      H      10.1244443918    -3.0910252760    -1.6421162863
   43      C       8.7695820941    -2.0085531551    -0.3742676117
   44      H       8.2850662168    -1.0312369565    -0.4920275905
   45      C       9.8691042156    -1.8203306170     0.6847849746
   46      H       8.0637290669    -2.7403743645     0.0375894283
   47      H      10.7818849453    -1.4810939559     0.1793902504
   48      H      10.1195088345    -2.8233357408     1.0528287879
   49      C       9.5028541958    -0.7822331811     1.7935435762
   50      H       9.1479072609     0.2275565826     1.5522588763
   51      C      10.7986212946    -0.5236626286     2.6389280419
   52      H       8.7375644374    -1.2251657390     2.4426170196
   53      H      10.5118107760     0.0650468006     3.5198428700
   54      H      11.5048451166     0.0444733871     2.0210685264
   55      H      11.2116888153    -1.4795824217     2.9808806303
   56      C      -7.5718714782    -3.3334926551     0.1436662308
   57      C      -6.7713771802    -2.8620621109    -0.9174879148
   58      N      -7.0325331791    -3.3106444794     1.3863118601
   59      C      -5.4292155674    -2.5341371801    -0.7067903949
   60      C      -5.8247200177    -2.7933245959     1.6449264488
   61      C      -4.9674450001    -2.4274694142     0.5824333758
   62      C      -3.5583865771    -2.0068565643     0.8744559620
   63      C      -2.4263391818    -2.4782741126     0.1100711178
   64      C      -3.2179907466    -1.2292984355     1.9357075980
   65      N      -1.1169113860    -2.2953757633     0.3540671043
   66      N      -4.1499080576    -0.6978427938     2.7889596279
   67      C      -1.9021941356    -0.9551979418     2.2252075078
   68      C      -0.8593160589    -1.5101319741     1.4355673765
   69      S      -3.3445453405     0.1087625087     3.9043504921
   70      N      -1.8631947090    -0.2304645742     3.3040020159
   71      C       0.5790461242    -1.2378266595     1.7795049375
   72      S       1.3266385479     0.3513218622     2.2275535333
   73      C       1.5877877632    -2.1504874025     1.4774458806
   74      C       2.9571154327    -0.2290681626     1.9053089873
   75      S       1.4507797154    -3.8213463044     0.9950587698
   76      C       2.8840698149    -1.5841830067     1.5372219092
   77      C       4.1083822627     0.6744343745     1.8396976201
   78      C       3.2302392058    -3.6123575782     0.4789215454
   79      C       3.8278472995    -2.5216306248     1.1068302007
   80      N       5.2397532099     0.2659717483     1.3704012714
   81      S       3.9023914792     2.3432822398     2.2373866942
   82      C       6.1354776937     1.2355793673     1.3175267566
   83      C       5.6469020545     2.4673574053     1.8335448861
   84      C      -8.9298317453    -3.8466231812     0.0480525498
   85      H      -7.1097918873    -2.9086281317    -1.9490644227
   86      H      -4.8295158920    -2.1268817666    -1.5154666760
   87      H      -5.4691355004    -2.7657176051     2.6739043422
   88      H      -2.6513253234    -3.1203900886    -0.7407950935
   89      H       3.6497807880    -4.4365252374    -0.0829668157
   90      H       4.8849994186    -2.2929271040     1.0399116182
   91      H       7.1706448226     1.0139527749     1.0933489952
   92      H       6.3059581339     3.3246710729     1.8578010064
   93      H      -8.9496819748    -4.4245124748    -0.8842150795
   94      C      -9.9830410428    -2.6854071755     0.0526962260
   95      H      -9.1086183210    -4.5628235895     0.8587666397
   96      H      -9.6588783501    -1.9049151292     0.7528538613
   97      H     -10.9608317380    -3.1266636949     0.2798614534
   98      C     -10.1613777854    -2.0062524242    -1.3111548766
   99      H      -9.3151868324    -1.4099751639    -1.6747718454
  100      C     -11.4251206444    -1.1532506504    -1.3501415427
  101      H     -10.3092039505    -2.7714933275    -2.0842291195
  102      H     -11.3953420569    -0.3121755196    -0.6465650650
  103      H     -12.2145740563    -1.8296966148    -1.0018813417
  104      C     -11.6609077376    -0.3953163337    -2.6447233356
  105      H     -12.4667719136     0.3391404932    -2.5193195907
  106      C     -12.1197320224    -1.3571936569    -3.7424871038
  107      H     -10.7668483094     0.2008403822    -2.8658882262
  108      H     -13.0656423418    -1.8554945707    -3.4968942152
  109      H     -11.2869818697    -2.0430093371    -3.9416077606
  110      H     -12.2482810746    -0.7987614585    -4.6774066838
 ----------------------------------------------------------------

   10   -5663.4727314532      6.54E-06 Convergence criterion met
 Total energy in the final basis set = -5663.4727314532

                    Orbital Energies (a.u.)
 --------------------------------------------------------------

 Alpha MOs
 -- Occupied --
-88.992 -88.977 -88.929 -88.924 -88.923 -88.918 -88.907 -88.904
-14.373 -14.372 -14.370 -14.370 -14.358 -14.346 -14.340 -14.336
-14.328 -14.321 -10.266 -10.265 -10.265 -10.257 -10.247 -10.246
-10.242 -10.242 -10.242 -10.240 -10.239 -10.239 -10.236 -10.233
-10.232 -10.231 -10.229 -10.229 -10.229 -10.228 -10.228 -10.226
-10.226 -10.223 -10.223 -10.221 -10.220 -10.219 -10.210 -10.209
-10.209 -10.205 -10.204 -10.202 -10.199 -10.197 -10.194 -10.194
-10.188 -10.187 -10.185 -10.185 -10.183 -10.179 -10.177 -10.176
-10.174 -10.173 -10.172 -10.171  -8.048  -8.031  -7.989  -7.985
 -7.981  -7.976  -7.967  -7.963  -6.013  -6.007  -6.006  -5.996
 -5.991  -5.988  -5.953  -5.950  -5.949  -5.946  -5.946  -5.946
 -5.942  -5.942  -5.940  -5.938  -5.937  -5.932  -5.931  -5.928
 -5.928  -5.924  -5.922  -5.919  -1.045  -1.015  -0.983  -0.973
 -0.960  -0.943  -0.935  -0.929  -0.905  -0.899  -0.898  -0.886
 -0.842  -0.836  -0.830  -0.827  -0.814  -0.807  -0.807  -0.803
 -0.799  -0.798  -0.792  -0.791  -0.788  -0.782  -0.765  -0.763
 -0.748  -0.744  -0.741  -0.737  -0.717  -0.715  -0.711  -0.709
 -0.694  -0.686  -0.674  -0.668  -0.658  -0.651  -0.646  -0.635
 -0.633  -0.629  -0.625  -0.619  -0.614  -0.609  -0.599  -0.593
 -0.592  -0.590  -0.582  -0.581  -0.574  -0.573  -0.567  -0.563
 -0.550  -0.544  -0.538  -0.528  -0.523  -0.520  -0.507  -0.506
 -0.503  -0.500  -0.499  -0.492  -0.488  -0.486  -0.478  -0.476
 -0.472  -0.471  -0.466  -0.460  -0.460  -0.458  -0.448  -0.447
 -0.444  -0.443  -0.440  -0.439  -0.436  -0.433  -0.431  -0.428
 -0.427  -0.420  -0.420  -0.419  -0.415  -0.414  -0.413  -0.410
 -0.409  -0.408  -0.405  -0.403  -0.399  -0.398  -0.398  -0.393
 -0.392  -0.390  -0.389  -0.388  -0.385  -0.384  -0.382  -0.379
 -0.378  -0.376  -0.373  -0.370  -0.368  -0.364  -0.357  -0.356
 -0.354  -0.349  -0.345  -0.344  -0.342  -0.341  -0.337  -0.336
 -0.335  -0.334  -0.333  -0.329  -0.328  -0.327  -0.320  -0.317
 -0.314  -0.310  -0.306  -0.302  -0.299  -0.298  -0.296  -0.294
 -0.292  -0.290  -0.289  -0.287  -0.286  -0.283  -0.282  -0.280
 -0.275  -0.268  -0.263  -0.261  -0.250  -0.248  -0.247  -0.241
 -0.239  -0.237  -0.228  -0.224  -0.190  -0.188

          Ground-State Mulliken Net Atomic Charges

     Atom                 Charge (a.u.)
  ----------------------------------------
      1 C                     0.261366
      2 C                    -0.114534
      3 N                    -0.486131
      4 C                    -0.078767
      5 C                     0.091280
      6 C                     0.041010
      7 C                     0.068669
      8 C                     0.037459
      9 C                     0.242599
     10 N                    -0.537256
     11 N                    -0.565473
     12 C                     0.260691
     13 C                     0.289286
     14 S                     0.617893
     15 N                    -0.610458
     16 C                    -0.199787
     17 S                     0.300461
     18 C                    -0.121413
     19 C                    -0.251697
     20 S                     0.259750
     21 C                     0.193280
     22 C                     0.039581
     23 C                    -0.309196
     24 C                    -0.053447
     25 N                    -0.414404
     26 S                     0.255327
     27 C                     0.123806
     28 C                    -0.301393
     29 C                    -0.230793
     30 H                     0.087676
     31 H                     0.097317
     32 H                     0.126947
     33 H                     0.115695
     34 H                     0.126559
     35 H                     0.121074
     36 H                     0.114979
     37 H                     0.126314
     38 H                     0.116161
     39 C                    -0.185839
     40 H                     0.101872
     41 H                     0.092387
     42 H                     0.095755
     43 C                    -0.171506
     44 H                     0.096813
     45 C                    -0.179476
     46 H                     0.107255
     47 H                     0.086131
     48 H                     0.098775
     49 C                    -0.189164
     50 H                     0.094544
     51 C                    -0.319904
     52 H                     0.103642
     53 H                     0.095817
     54 H                     0.104331
     55 H                     0.105638
     56 C                     0.277390
     57 C                    -0.125703
     58 N                    -0.488438
     59 C                    -0.084319
     60 C                     0.117383
     61 C                     0.039204
     62 C                     0.028836
     63 C                     0.055138
     64 C                     0.183079
     65 N                    -0.494210
     66 N                    -0.558852
     67 C                     0.296819
     68 C                     0.262311
     69 S                     0.616983
     70 N                    -0.590710
     71 C                    -0.227698
     72 S                     0.308260
     73 C                    -0.103390
     74 C                    -0.237801
     75 S                     0.243741
     76 C                     0.171544
     77 C                     0.092944
     78 C                    -0.292359
     79 C                    -0.081125
     80 N                    -0.424216
     81 S                     0.291737
     82 C                     0.114457
     83 C                    -0.318060
     84 C                    -0.229521
     85 H                     0.084916
     86 H                     0.104838
     87 H                     0.113635
     88 H                     0.099899
     89 H                     0.141659
     90 H                     0.139577
     91 H                     0.113417
     92 H                     0.122026
     93 H                     0.097041
     94 C                    -0.172861
     95 H                     0.120437
     96 H                     0.116099
     97 H                     0.096769
     98 C                    -0.178243
     99 H                     0.091675
    100 C                    -0.166241
    101 H                     0.090307
    102 H                     0.084985
    103 H                     0.085214
    104 C                    -0.182887
    105 H                     0.090438
    106 C                    -0.311807
    107 H                     0.094249
    108 H                     0.106483
    109 H                     0.102765
    110 H                     0.094682
  ----------------------------------------
  Sum of atomic charges =     0.000000

                    Cartesian Multipole Moments
 -----------------------------------------------------------------
    Charge (ESU x 10^10)
                 0.0000
    Dipole Moment (Debye)
         X       0.2645      Y       2.1844      Z      -0.5785
       Tot       2.2751
    Quadrupole Moments (Debye-Ang)
        XX    -395.8199     XY       0.1756     YY    -433.7851
        XZ      -3.1029     YZ       8.9434     ZZ    -443.7898

 Total job time:  118.78s(wall), 1284.44s(cpu)
        *  Thank you very much for using Q-Chem.  Have a nice day.  *
