 Q-Chem 4.4, Q-Chem, Inc., Pleasanton, CA (2016)
 Q-Chem 4.4.2 for Intel X86 Linux

User input:
--------------------------------------------------------------
$comment
SP
$end

$rem
MEM_STATIC 5000
MEM_TOTAL 20000
JOBTYPE SP
EXCHANGE B3LYP
BASIS 6-31g(d,p)
$end

$molecule
0 1
C          14.308000      7.777000     -3.066000
C          13.109000      8.488000     -2.997000
N          15.553000      8.360000     -3.050000
C          13.190000      9.879000     -2.859000
C          15.577000      9.693000     -2.938000
C          14.486000     10.515000     -2.972000
C          14.599000     12.091000     -3.141000
C          15.553000     12.579000     -4.037000
C          13.792000     13.049000     -2.559000
N          15.742000     13.892000     -4.274000
N          12.769000     12.744000     -1.738000
C          13.883000     14.441000     -2.782000
C          14.895000     14.827000     -3.762000
S          12.128000     14.145000     -1.266000
N          13.044000     15.243000     -2.143000
C          14.916000     16.260000     -4.295000
S          13.642000     17.538000     -4.280000
C          15.970000     16.751000     -4.989000
C          14.623000     18.668000     -5.213000
S          17.615000     16.280000     -5.035000
C          15.752000     18.033000     -5.584000
C          14.343000     20.063000     -5.277000
C          17.904000     17.654000     -6.136000
C          16.837000     18.512000     -6.333000
N          15.349000     20.934000     -5.476000
S          12.810000     20.699000     -4.963000
C          14.883000     22.249000     -5.307000
C          13.534000     22.291000     -5.018000
C          14.205000      6.301000     -3.462000
H          12.211000      7.887000     -3.107000
H          12.289000     10.480000     -2.941000
H          16.523000     10.232000     -2.933000
H          16.094000     11.810000     -4.587000
H          18.888000     17.673000     -6.584000
H          16.966000     19.511000     -6.733000
H          15.622000     23.039000     -5.286000
H          12.896000     23.141000     -4.818000
H          15.184000      5.837000     -3.289000
C          13.797000      6.130000     -4.959000
H          13.520000      5.746000     -2.810000
H          14.609000      6.452000     -5.622000
H          13.012000      6.860000     -5.194000
C          13.510000      4.670000     -5.434000
H          14.427000      4.108000     -5.217000
C          13.109000      4.352000     -6.836000
H          12.718000      4.272000     -4.787000
H          12.020000      4.486000     -6.846000
H          13.324000      3.286000     -6.983000
C          13.835000      5.188000     -7.986000
H          13.361000      6.176000     -7.957000
C          13.602000      4.547000     -9.343000
H          14.897000      5.407000     -7.818000
H          14.211000      3.656000     -9.539000
H          14.043000      5.241000    -10.070000
H          12.522000      4.449000     -9.508000
C          19.574000     17.638000     -1.632000
C          18.489000     17.283000     -0.829000
N          19.565000     18.704000     -2.472000
C          17.305000     18.014000     -0.929000
C          18.431000     19.438000     -2.442000
C          17.198000     19.094000     -1.782000
C          16.031000     19.969000     -1.826000
C          14.710000     19.526000     -1.753000
C          16.018000     21.403000     -1.939000
N          13.587000     20.207000     -1.660000
N          17.167000     22.119000     -2.051000
C          14.894000     22.150000     -1.847000
C          13.621000     21.551000     -1.671000
S          16.748000     23.663000     -2.115000
N          15.168000     23.482000     -1.848000
C          12.308000     22.281000     -1.527000
S          12.109000     23.986000     -2.136000
C          11.121000     21.718000     -1.166000
C          10.379000     23.937000     -1.697000
S          10.694000     20.107000     -0.792000
C          10.073000     22.618000     -1.298000
C           9.447000     25.054000     -1.687000
C           9.013000     20.609000     -1.012000
C           8.799000     21.964000     -1.146000
N           9.819000     26.135000     -2.340000
S           7.901000     25.138000     -0.787000
C           8.878000     27.132000     -2.246000
C           7.792000     26.740000     -1.513000
C          20.911000     16.938000     -1.576000
H          18.608000     16.453000     -0.140000
H          16.428000     17.741000     -0.350000
H          18.456000     20.333000     -3.061000
H          14.592000     18.446000     -1.676000
H           8.205000     19.892000     -1.077000
H           7.872000     22.489000     -1.346000
H           8.992000     28.068000     -2.777000
H           6.875000     27.279000     -1.314000
H          21.624000     17.697000     -1.231000
C          21.134000     16.170000     -2.882000
H          20.837000     16.138000     -0.829000
H          20.184000     15.980000     -3.397000
H          21.565000     15.174000     -2.718000
C          22.157000     16.889000     -3.795000
H          22.048000     17.980000     -3.778000
C          21.901000     16.476000     -5.271000
H          23.209000     16.734000     -3.526000
H          22.636000     17.027000     -5.870000
H          20.900000     16.779000     -5.603000
C          22.211000     14.993000     -5.538000
H          23.188000     14.917000     -5.046000
C          22.309000     14.488000     -7.002000
H          21.627000     14.283000     -4.939000
H          22.947000     13.629000     -7.245000
H          22.750000     15.266000     -7.637000
H          21.358000     14.158000     -7.438000
$end

--------------------------------------------------------------

             Standard Nuclear Orientation (Angstroms)
    I     Atom           X                Y                Z
 ----------------------------------------------------------------
    1      C       9.0006284207     2.6411592599    -1.6380663251
    2      C       8.0390911011     3.6259788069    -1.4068533435
    3      N       8.7192240417     1.3007645792    -1.7577478842
    4      C       6.7012478191     3.2187509951    -1.3373777210
    5      C       7.4289675327     0.9597729379    -1.6630280790
    6      C       6.4049462956     1.8013430183    -1.3309719005
    7      C       4.9553355006     1.2821957444    -0.9382625281
    8      C       4.8716685153     0.1406181555    -0.1377149380
    9      C       3.7486727395     1.8875369938    -1.2302624473
   10      N       3.7033821383    -0.3941793459     0.2684347558
   11      N       3.6560620698     3.0414700745    -1.9183443530
   12      C       2.4802475484     1.4290103753    -0.8101138131
   13      C       2.5229565632     0.2473112497     0.0473843598
   14      S       2.0838063039     3.3645882075    -2.0600217278
   15      N       1.4048085798     2.1103829852    -1.1770039754
   16      C       1.2581499997    -0.1896339491     0.7872237005
   17      S      -0.2521200744     0.7204399348     1.1711961335
   18      C       1.1559023268    -1.4049629388     1.3755721179
   19      C      -0.9365765113    -0.6106563168     2.1036403168
   20      S       1.9835891412    -2.8757035029     1.0894974243
   21      C      -0.0063943533    -1.5816609151     2.1897694236
   22      C      -2.3210270414    -0.6948128155     2.4272688283
   23      C       0.9424581348    -3.6209879085     2.3321540069
   24      C      -0.0798406080    -2.8301436304     2.8250359482
   25      N      -2.8907783415    -1.9014499361     2.5995718035
   26      S      -3.3319516884     0.6580108636     2.4601390493
   27      C      -4.2844011654    -1.7601006025     2.7126106935
   28      C      -4.6814390331    -0.4397459424     2.6484974882
   29      C      10.4635039850     3.0610297562    -1.4657153756
   30      H       8.4332159166     4.6262710257    -1.2526258922
   31      H       5.9401692253     3.9268876720    -1.0226908594
   32      H       7.1246964640    -0.0833572166    -1.7320251634
   33      H       5.8319708881    -0.2520810954     0.1941715654
   34      H       1.2293783328    -4.6236321004     2.6179903666
   35      H      -0.9305913539    -3.2480207966     3.3506249914
   36      H      -4.8780687721    -2.6645615661     2.6995287168
   37      H      -5.6748691129    -0.0140099222     2.6857737225
   38      H      11.0939017564     2.2543144877    -1.8600187174
   39      C      10.8180933648     3.3241076948     0.0315389014
   40      H      10.7175696943     3.9324764741    -2.0808456328
   41      H      10.8173409603     2.3870515409     0.6012074000
   42      H       9.9885504991     3.8710948445     0.4973861855
   43      C      12.2393431706     3.9079315808     0.3122392038
   44      H      12.9412402071     3.1902211205    -0.1305409283
   45      C      12.7181200951     4.2116546761     1.6928383266
   46      H      12.3202622117     4.8427713973    -0.2567982520
   47      H      12.3478224614     5.2247702937     1.8939686521
   48      H      13.8132649483     4.2524831701     1.6364398834
   49      C      12.2985654178     3.1738897873     2.8310342274
   50      H      11.2422210020     3.3880058756     3.0309136312
   51      C      13.1153255018     3.4013243572     4.0911117971
   52      H      12.2954843428     2.1172884495     2.5350390925
   53      H      14.1407017715     3.0141160336     4.0480859938
   54      H      12.6878301732     2.7214840720     4.8392501070
   55      H      12.9981166868     4.4455602825     4.4058536373
   56      C       0.4819768776    -4.7064768455    -2.3245446928
   57      C       0.4266736162    -3.4825649805    -2.9931554136
   58      N      -0.3807188337    -5.0587345632    -1.3377784540
   59      C      -0.5187280884    -2.5365326043    -2.5963489620
   60      C      -1.3423183387    -4.1466217822    -1.0751215172
   61      C      -1.4143195200    -2.7994896176    -1.5793791508
   62      C      -2.5041604177    -1.8991135565    -1.2174126243
   63      C      -2.3904421097    -0.5101382490    -1.1508187688
   64      C      -3.8568114723    -2.2553991508    -0.8817197591
   65      N      -3.3107926196     0.4117750462    -0.9595864099
   66      N      -4.2627362271    -3.5511430989    -0.8408087029
   67      C      -4.8403007525    -1.3490154399    -0.6790712842
   68      C      -4.5861108719     0.0443183187    -0.7447564565
   69      S      -5.8208000202    -3.5385666817    -0.4722004413
   70      N      -6.0522443571    -1.9432037531    -0.5134393194
   71      C      -5.6055189816     1.1426880462    -0.5658820663
   72      S      -7.1653504476     0.8411472553     0.3249074424
   73      C      -5.4013906724     2.4655976205    -0.8198523239
   74      C      -7.5890817230     2.5677825671     0.1599701621
   75      S      -4.0273799296     3.3189949072    -1.3687908902
   76      C      -6.4718555633     3.2352041725    -0.3867949691
   77      C      -8.8678252912     3.1882608460     0.4701871703
   78      C      -4.8425712397     4.7861433296    -0.8128199964
   79      C      -6.1607740296     4.6403926423    -0.4374866220
   80      N      -9.6947664817     2.4872576971     1.2172593573
   81      S      -9.4644879055     4.7578128743    -0.1524460725
   82      C     -10.8766473610     3.1558095635     1.4282617007
   83      C     -10.8835872149     4.3818303842     0.8223130348
   84      C       1.4403336755    -5.8124224059    -2.6975616700
   85      H       1.1168788986    -3.3120059653    -3.8130994912
   86      H      -0.5635392608    -1.5587517929    -3.0662804928
   87      H      -2.0756090935    -4.4637896653    -0.3358649969
   88      H      -1.3988198740    -0.1198137355    -1.3757301196
   89      H      -4.3258597367     5.7338121578    -0.7346470177
   90      H      -6.8327445993     5.3788541007    -0.0154863519
   91      H     -11.6458006812     2.7529585239     2.0741465279
   92      H     -11.6420070624     5.1529918210     0.8557850129
   93      H       0.8093285866    -6.6469965984    -3.0274002594
   94      C       2.4710929583    -5.9862498732    -1.5784064919
   95      H       2.0476539874    -5.4570033541    -3.5391817365
   96      H       2.5370388883    -5.0844024400    -0.9569989433
   97      H       3.4890234560    -6.1348686174    -1.9610329034
   98      C       2.1852368409    -7.2534683999    -0.7360867867
   99      H       1.1144812749    -7.4173819578    -0.5655996511
  100      C       2.8013080254    -7.0741416876     0.6791796991
  101      H       2.5184382768    -8.1960576183    -1.1872988971
  102      H       2.5522698244    -7.9866082952     1.2341676849
  103      H       2.3499223646    -6.2245635557     1.2069125699
  104      C       4.3390909692    -7.0349952379     0.6599658166
  105      H       4.5378629099    -7.8994506177     0.0153142737
  106      C       5.1201978915    -7.1719770142     1.9937697635
  107      H       4.7739929844    -6.2283230681     0.0565611036
  108      H       6.1303485446    -7.6004149161     1.9970289738
  109      H       4.5950256269    -7.8621016404     2.6652696464
  110      H       5.3048653736    -6.2253624256     2.5164701956
 ----------------------------------------------------------------

   10   -5663.4879707237      3.76E-06 Convergence criterion met
 Total energy in the final basis set = -5663.4879707237

                    Orbital Energies (a.u.)
 --------------------------------------------------------------

 Alpha MOs
 -- Occupied --
-88.988 -88.986 -88.932 -88.925 -88.924 -88.919 -88.916 -88.904
-14.392 -14.385 -14.376 -14.370 -14.352 -14.346 -14.343 -14.341
-14.335 -14.326 -10.274 -10.272 -10.263 -10.261 -10.258 -10.255
-10.247 -10.247 -10.243 -10.242 -10.241 -10.240 -10.232 -10.232
-10.232 -10.231 -10.231 -10.229 -10.227 -10.227 -10.226 -10.225
-10.223 -10.223 -10.222 -10.221 -10.221 -10.220 -10.219 -10.216
-10.211 -10.209 -10.207 -10.206 -10.201 -10.201 -10.193 -10.190
-10.188 -10.184 -10.181 -10.179 -10.179 -10.176 -10.176 -10.174
-10.172 -10.172 -10.169 -10.169  -8.044  -8.042  -7.992  -7.986
 -7.982  -7.977  -7.976  -7.965  -6.009  -6.007  -6.003  -6.002
 -6.002  -6.000  -5.956  -5.953  -5.950  -5.949  -5.947  -5.947
 -5.944  -5.943  -5.942  -5.941  -5.939  -5.938  -5.937  -5.934
 -5.933  -5.929  -5.926  -5.921  -1.042  -1.042  -0.969  -0.964
 -0.961  -0.952  -0.937  -0.933  -0.915  -0.915  -0.910  -0.894
 -0.843  -0.840  -0.835  -0.827  -0.809  -0.807  -0.805  -0.804
 -0.803  -0.801  -0.796  -0.796  -0.788  -0.779  -0.766  -0.766
 -0.749  -0.749  -0.744  -0.737  -0.725  -0.715  -0.713  -0.709
 -0.696  -0.693  -0.673  -0.673  -0.651  -0.651  -0.647  -0.638
 -0.633  -0.632  -0.625  -0.621  -0.613  -0.609  -0.602  -0.600
 -0.596  -0.592  -0.587  -0.584  -0.579  -0.575  -0.557  -0.554
 -0.550  -0.544  -0.541  -0.536  -0.528  -0.525  -0.519  -0.510
 -0.506  -0.503  -0.496  -0.495  -0.492  -0.483  -0.476  -0.474
 -0.471  -0.470  -0.468  -0.466  -0.460  -0.454  -0.448  -0.445
 -0.442  -0.438  -0.437  -0.436  -0.432  -0.430  -0.428  -0.427
 -0.423  -0.423  -0.421  -0.420  -0.419  -0.418  -0.416  -0.412
 -0.411  -0.407  -0.402  -0.400  -0.396  -0.396  -0.396  -0.394
 -0.393  -0.392  -0.390  -0.389  -0.388  -0.387  -0.386  -0.384
 -0.380  -0.379  -0.374  -0.368  -0.367  -0.363  -0.363  -0.355
 -0.354  -0.352  -0.349  -0.348  -0.347  -0.343  -0.342  -0.340
 -0.339  -0.337  -0.335  -0.332  -0.328  -0.324  -0.324  -0.319
 -0.310  -0.309  -0.304  -0.303  -0.302  -0.299  -0.298  -0.297
 -0.293  -0.292  -0.288  -0.286  -0.285  -0.284  -0.283  -0.278
 -0.273  -0.270  -0.266  -0.264  -0.258  -0.256  -0.251  -0.249
 -0.246  -0.242  -0.233  -0.228  -0.194  -0.192

          Ground-State Mulliken Net Atomic Charges

     Atom                 Charge (a.u.)
  ----------------------------------------
      1 C                     0.248627
      2 C                    -0.093304
      3 N                    -0.476630
      4 C                    -0.072071
      5 C                     0.070759
      6 C                     0.046367
      7 C                     0.043756
      8 C                     0.057670
      9 C                     0.200031
     10 N                    -0.514878
     11 N                    -0.535395
     12 C                     0.235870
     13 C                     0.269647
     14 S                     0.585717
     15 N                    -0.576112
     16 C                    -0.227196
     17 S                     0.301878
     18 C                    -0.089324
     19 C                    -0.237013
     20 S                     0.290878
     21 C                     0.134964
     22 C                     0.069548
     23 C                    -0.310287
     24 C                    -0.044777
     25 N                    -0.452992
     26 S                     0.298801
     27 C                     0.112624
     28 C                    -0.320413
     29 C                    -0.232253
     30 H                     0.099298
     31 H                     0.109269
     32 H                     0.096269
     33 H                     0.121412
     34 H                     0.131478
     35 H                     0.137180
     36 H                     0.119857
     37 H                     0.148224
     38 H                     0.116736
     39 C                    -0.182259
     40 H                     0.101064
     41 H                     0.108733
     42 H                     0.087831
     43 C                    -0.182369
     44 H                     0.093649
     45 C                    -0.174231
     46 H                     0.082779
     47 H                     0.090949
     48 H                     0.096124
     49 C                    -0.182840
     50 H                     0.099176
     51 C                    -0.314770
     52 H                     0.096273
     53 H                     0.105625
     54 H                     0.096730
     55 H                     0.106828
     56 C                     0.254064
     57 C                    -0.115058
     58 N                    -0.477747
     59 C                    -0.078816
     60 C                     0.095297
     61 C                     0.046478
     62 C                     0.083904
     63 C                     0.031472
     64 C                     0.203842
     65 N                    -0.519388
     66 N                    -0.555340
     67 C                     0.226479
     68 C                     0.295714
     69 S                     0.604603
     70 N                    -0.575465
     71 C                    -0.227814
     72 S                     0.327587
     73 C                    -0.083680
     74 C                    -0.203387
     75 S                     0.300677
     76 C                     0.100752
     77 C                     0.060564
     78 C                    -0.313690
     79 C                    -0.068377
     80 N                    -0.434879
     81 S                     0.262313
     82 C                     0.134417
     83 C                    -0.307403
     84 C                    -0.216453
     85 H                     0.090054
     86 H                     0.097423
     87 H                     0.121298
     88 H                     0.112908
     89 H                     0.125514
     90 H                     0.114697
     91 H                     0.121656
     92 H                     0.127755
     93 H                     0.122546
     94 C                    -0.183842
     95 H                     0.086176
     96 H                     0.122471
     97 H                     0.097529
     98 C                    -0.179647
     99 H                     0.115093
    100 C                    -0.189631
    101 H                     0.087932
    102 H                     0.084085
    103 H                     0.092932
    104 C                    -0.170279
    105 H                     0.090993
    106 C                    -0.330654
    107 H                     0.093641
    108 H                     0.101453
    109 H                     0.098547
    110 H                     0.105176
  ----------------------------------------
  Sum of atomic charges =     0.000000

                    Cartesian Multipole Moments
 -----------------------------------------------------------------
    Charge (ESU x 10^10)
                 0.0000
    Dipole Moment (Debye)
         X      -2.0804      Y       4.2228      Z      -0.0031
       Tot       4.7075
    Quadrupole Moments (Debye-Ang)
        XX    -412.1919     XY      -5.2711     YY    -416.2250
        XZ      -5.5934     YZ       0.9084     ZZ    -447.3432

 Total job time:  111.15s(wall), 1197.68s(cpu)
        *  Thank you very much for using Q-Chem.  Have a nice day.  *
