 Q-Chem 4.4, Q-Chem, Inc., Pleasanton, CA (2016)
 Q-Chem 4.4.2 for Intel X86 Linux

User input:
--------------------------------------------------------------
$comment
SP
$end

$rem
MEM_STATIC 5000
MEM_TOTAL 20000
JOBTYPE SP
EXCHANGE B3LYP
BASIS 6-31g(d,p)
$end

$molecule
0 1
C          27.418000     30.489000      0.667000
C          26.132000     30.591000      1.281000
N          27.671000     29.632000     -0.297000
C          25.078000     29.781000      0.806000
C          26.662000     28.883000     -0.761000
C          25.332000     28.872000     -0.227000
C          24.325000     27.888000     -0.786000
C          24.727000     26.691000     -1.276000
C          22.912000     28.164000     -0.929000
N          24.056000     25.861000     -1.983000
N          22.313000     29.244000     -0.456000
C          22.143000     27.277000     -1.694000
C          22.717000     26.061000     -2.175000
S          20.757000     29.067000     -0.839000
N          20.839000     27.735000     -1.808000
C          21.923000     25.062000     -3.008000
S          20.164000     24.927000     -3.022000
C          22.528000     24.328000     -4.008000
C          20.343000     23.578000     -4.141000
S          24.158000     24.243000     -4.587000
C          21.640000     23.477000     -4.616000
C          19.285000     23.206000     -5.058000
C          23.677000     23.060000     -5.769000
C          22.339000     22.772000     -5.647000
N          18.430000     24.138000     -5.347000
S          19.088000     21.719000     -5.972000
C          17.733000     23.793000     -6.447000
C          17.794000     22.428000     -6.707000
C          28.530000     31.422000      1.035000
H          26.035000     31.254000      2.135000
H          24.156000     29.713000      1.377000
H          26.857000     28.245000     -1.621000
H          25.758000     26.356000     -1.171000
H          24.405000     22.716000     -6.491000
H          21.844000     22.065000     -6.303000
H          16.957000     24.438000     -6.838000
H          17.368000     21.815000     -7.490000
H          29.209000     31.507000      0.178000
C          29.216000     31.129000      2.387000
H          28.113000     32.419000      1.226000
H          29.349000     30.043000      2.471000
H          28.555000     31.316000      3.243000
C          30.525000     31.818000      2.528000
H          31.317000     31.515000      1.831000
C          31.316000     31.670000      3.911000
H          30.369000     32.839000      2.158000
H          30.514000     31.906000      4.620000
H          32.227000     32.266000      4.044000
C          31.803000     30.179000      4.134000
H          30.889000     29.604000      4.326000
C          32.667000     30.023000      5.402000
H          32.159000     29.770000      3.181000
H          32.715000     29.018000      5.839000
H          32.256000     30.636000      6.214000
H          33.683000     30.376000      5.184000
C          19.574000     17.638000     -1.632000
C          18.489000     17.283000     -0.829000
N          19.565000     18.704000     -2.472000
C          17.305000     18.014000     -0.929000
C          18.431000     19.438000     -2.442000
C          17.198000     19.094000     -1.782000
C          16.031000     19.969000     -1.826000
C          14.710000     19.526000     -1.753000
C          16.018000     21.403000     -1.939000
N          13.587000     20.207000     -1.660000
N          17.167000     22.119000     -2.051000
C          14.894000     22.150000     -1.847000
C          13.621000     21.551000     -1.671000
S          16.748000     23.663000     -2.115000
N          15.168000     23.482000     -1.848000
C          12.308000     22.281000     -1.527000
S          12.109000     23.986000     -2.136000
C          11.121000     21.718000     -1.166000
C          10.379000     23.937000     -1.697000
S          10.694000     20.107000     -0.792000
C          10.073000     22.618000     -1.298000
C           9.447000     25.054000     -1.687000
C           9.013000     20.609000     -1.012000
C           8.799000     21.964000     -1.146000
N           9.819000     26.135000     -2.340000
S           7.901000     25.138000     -0.787000
C           8.878000     27.132000     -2.246000
C           7.792000     26.740000     -1.513000
C          20.911000     16.938000     -1.576000
H          18.608000     16.453000     -0.140000
H          16.428000     17.741000     -0.350000
H          18.456000     20.333000     -3.061000
H          14.592000     18.446000     -1.676000
H           8.205000     19.892000     -1.077000
H           7.872000     22.489000     -1.346000
H           8.992000     28.068000     -2.777000
H           6.875000     27.279000     -1.314000
H          21.624000     17.697000     -1.231000
C          21.134000     16.170000     -2.882000
H          20.837000     16.138000     -0.829000
H          20.184000     15.980000     -3.397000
H          21.565000     15.174000     -2.718000
C          22.157000     16.889000     -3.795000
H          22.048000     17.980000     -3.778000
C          21.901000     16.476000     -5.271000
H          23.209000     16.734000     -3.526000
H          22.636000     17.027000     -5.870000
H          20.900000     16.779000     -5.603000
C          22.211000     14.993000     -5.538000
H          23.188000     14.917000     -5.046000
C          22.309000     14.488000     -7.002000
H          21.627000     14.283000     -4.939000
H          22.947000     13.629000     -7.245000
H          22.750000     15.266000     -7.637000
H          21.358000     14.158000     -7.438000
$end

--------------------------------------------------------------

             Standard Nuclear Orientation (Angstroms)
    I     Atom           X                Y                Z
 ----------------------------------------------------------------
    1      C      10.4543888827     2.5498770588    -0.0667715588
    2      C       9.4573286226     3.4391159015     0.4395101004
    3      N      10.1527889130     1.3933704935    -0.6138401311
    4      C       8.0956221123     3.0922654196     0.3050068552
    5      C       8.8589145819     1.0795783434    -0.7614941242
    6      C       7.7612007447     1.8684232653    -0.2851276467
    7      C       6.3531028316     1.3283920579    -0.4280001847
    8      C       6.1186387506    -0.0053790936    -0.4036258123
    9      C       5.1903383554     2.1490841376    -0.6880718735
   10      N       5.0500628600    -0.6260326579    -0.7381773316
   11      N       5.1969690818     3.4715352227    -0.6850451763
   12      C       4.0006321235     1.5062061463    -1.0550350463
   13      C       3.9125147060     0.0814550880    -1.0124587322
   14      S       3.6739148978     3.9031186296    -0.9903249098
   15      N       3.0171505963     2.4357322818    -1.3582202190
   16      C       2.6414855418    -0.6654360318    -1.3984179517
   17      S       1.0176757950     0.0241481879    -1.3836697221
   18      C       2.6992048511    -1.8954331702    -2.0217609719
   19      C       0.4147744450    -1.5546804239    -1.8814780955
   20      S       4.0152304904    -2.9157530178    -2.4975654752
   21      C       1.4453396614    -2.3988290804    -2.2601380755
   22      C      -0.8380462969    -1.6993317564    -2.5943267335
   23      C       2.8856401860    -4.0796593285    -3.1279001834
   24      C       1.5937907124    -3.6591744050    -2.9220134023
   25      N      -1.2497835275    -0.6507592081    -3.2378623300
   26      S      -1.7996666931    -3.1459744187    -2.8548746580
   27      C      -2.2008055399    -1.0034434488    -4.1244315367
   28      C      -2.7714548135    -2.2366337068    -3.8275356054
   29      C      11.9021110605     2.9325383019    -0.0780794734
   30      H       9.7965765133     4.3270496627     0.9637032942
   31      H       7.3425989024     3.6611211368     0.8436238048
   32      H       8.6164418904     0.1650730241    -1.2995982173
   33      H       6.9102619117    -0.7129196551    -0.1608705346
   34      H       3.2654066415    -4.9492914710    -3.6466692805
   35      H       0.7426307009    -4.2419485441    -3.2553464755
   36      H      -2.6816219980    -0.2612179574    -4.7481292629
   37      H      -3.5425211945    -2.8193707667    -4.3135481107
   38      H      12.3983781726     2.3872512938    -0.8899267696
   39      C      12.6138902832     2.8594020000     1.2902663964
   40      H      11.9879479060     4.0040231927    -0.2992833719
   41      H      12.2837344615     1.9428053756     1.7952305154
   42      H      12.2492950619     3.6178966628     1.9948103418
   43      C      14.0948101259     2.8724614629     1.1686568988
   44      H      14.5531314757     2.0158539158     0.6577292615
   45      C      14.9668940285     2.8805276005     2.5101779028
   46      H      14.3288964878     3.6451254368     0.4257767210
   47      H      14.4731598774     3.6913325709     3.0582681218
   48      H      16.0529956444     2.9969747605     2.4119468545
   49      C      14.8023119820     1.5210564718     3.3068773443
   50      H      13.7769615623     1.5383907567     3.6957745537
   51      C      15.7166191962     1.4484130233     4.5468052646
   52      H      14.7849231734     0.6866472589     2.5957620972
   53      H      15.4045514585     0.7619656464     5.3434869613
   54      H      15.7483486077     2.4243124864     5.0474523283
   55      H      16.7337603531     1.1941723852     4.2224989821
   56      C      -2.3780502330    -5.1565482481     2.7441808300
   57      C      -3.3593370269    -4.6648619778     3.6063756106
   58      N      -2.0728783581    -4.5811534650     1.5534550134
   59      C      -4.1175157710    -3.5626505601     3.2107596572
   60      C      -2.7635330803    -3.4532535916     1.2769592082
   61      C      -3.8956950806    -2.9356222971     2.0011774406
   62      C      -4.5680476175    -1.7039012539     1.6008583956
   63      C      -5.9190042365    -1.4349654770     1.8226888751
   64      C      -3.9878566609    -0.5687154036     0.9345059819
   65      N      -6.6118895718    -0.3329674884     1.6250798034
   66      N      -2.6801055201    -0.5501944156     0.5672936090
   67      C      -4.6536916547     0.5872035090     0.7100862224
   68      C      -6.0111406707     0.7435121212     1.0885116269
   69      S      -2.4058410692     0.8777896430    -0.1029552548
   70      N      -3.8429869009     1.5476601584     0.1908735235
   71      C      -6.8435439787     1.9904701325     0.9158690750
   72      S      -6.3964587900     3.2557773566    -0.3156419736
   73      C      -8.0781880059     2.2024183409     1.4515845621
   74      C      -7.8819291830     4.1629124098     0.0824857782
   75      S      -9.0812242251     1.2167573076     2.4210775586
   76      C      -8.6488382777     3.3688743011     0.9622311518
   77      C      -8.2332266767     5.5036240830    -0.3596627039
   78      C     -10.3989352883     2.3170155949     1.9977168907
   79      C     -10.0346217878     3.4722784776     1.3401301320
   80      N      -7.5515657877     5.9832997891    -1.3787817594
   81      S      -9.4211867154     6.5985699915     0.4130056622
   82      C      -7.9478893987     7.2600738905    -1.6967463630
   83      C      -8.9575554843     7.6972161351    -0.8844471240
   84      C      -1.4780086428    -6.3190772323     3.0893713525
   85      H      -3.4915111188    -5.1516973022     4.5672623762
   86      H      -4.9164897149    -3.1787043757     3.8377564390
   87      H      -2.4639105659    -2.9544558760     0.3570471539
   88      H      -6.4709486284    -2.2343357196     2.3152511590
   89      H     -11.4335887224     2.0789068278     2.2074178360
   90      H     -10.6687851708     4.2534779822     0.9369947483
   91      H      -7.5369240096     7.7828078411    -2.5505084293
   92      H      -9.5099864652     8.6267919447    -0.9259179027
   93      H      -0.4630031235    -5.9039413289     3.1193876416
   94      C      -1.8257052866    -7.5106030801     2.1923974409
   95      H      -1.7592861997    -6.6725902767     4.0890695387
   96      H      -2.8376111967    -7.4136510324     1.7795152187
   97      H      -1.8391646050    -8.4617498099     2.7399481190
   98      C      -0.7629672668    -7.7161322182     1.0854174616
   99      H      -0.3924138331    -6.7706098842     0.6717404515
  100      C      -1.4138677057    -8.4593716406    -0.1140010557
  101      H       0.1514723363    -8.2283273741     1.4087537176
  102      H      -0.6261114412    -8.5587673088    -0.8704318647
  103      H      -2.2304937635    -7.8721701372    -0.5525786158
  104      C      -1.8145501614    -9.9051674059     0.2263020077
  105      H      -0.8957731150   -10.2395326092     0.7227067315
  106      C      -2.1878684253   -10.8811024417    -0.9209160535
  107      H      -2.5357610290   -10.0044978020     1.0472437576
  108      H      -2.0271552952   -11.9595977223    -0.7984692507
  109      H      -1.5708778574   -10.6736794267    -1.8036891455
  110      H      -3.2470428318   -10.8698296342    -1.2062570782
 ----------------------------------------------------------------

   10   -5663.4793942759      3.20E-06 Convergence criterion met
 Total energy in the final basis set = -5663.4793942759

                    Orbital Energies (a.u.)
 --------------------------------------------------------------

 Alpha MOs
 -- Occupied --
-88.990 -88.986 -88.929 -88.929 -88.925 -88.920 -88.914 -88.907
-14.389 -14.381 -14.374 -14.368 -14.345 -14.344 -14.340 -14.338
-14.329 -14.327 -10.269 -10.266 -10.262 -10.261 -10.256 -10.255
-10.247 -10.245 -10.241 -10.240 -10.239 -10.236 -10.229 -10.229
-10.228 -10.227 -10.227 -10.226 -10.226 -10.226 -10.225 -10.224
-10.224 -10.223 -10.223 -10.221 -10.220 -10.220 -10.216 -10.212
-10.209 -10.209 -10.208 -10.206 -10.203 -10.201 -10.200 -10.196
-10.183 -10.183 -10.182 -10.182 -10.179 -10.178 -10.177 -10.175
-10.174 -10.172 -10.171 -10.170  -8.045  -8.041  -7.989  -7.988
 -7.987  -7.978  -7.974  -7.968  -6.010  -6.006  -6.005  -6.003
 -6.000  -5.999  -5.953  -5.952  -5.951  -5.950  -5.948  -5.948
 -5.946  -5.945  -5.944  -5.942  -5.939  -5.938  -5.935  -5.934
 -5.933  -5.930  -5.929  -5.924  -1.040  -1.040  -0.986  -0.967
 -0.966  -0.963  -0.945  -0.936  -0.919  -0.911  -0.902  -0.892
 -0.851  -0.839  -0.836  -0.830  -0.824  -0.809  -0.809  -0.805
 -0.803  -0.801  -0.795  -0.794  -0.780  -0.779  -0.767  -0.766
 -0.747  -0.746  -0.741  -0.739  -0.731  -0.721  -0.710  -0.709
 -0.693  -0.691  -0.676  -0.671  -0.653  -0.652  -0.644  -0.640
 -0.632  -0.630  -0.624  -0.622  -0.612  -0.607  -0.602  -0.600
 -0.600  -0.593  -0.587  -0.585  -0.577  -0.575  -0.565  -0.558
 -0.543  -0.542  -0.542  -0.539  -0.526  -0.524  -0.518  -0.516
 -0.508  -0.508  -0.499  -0.494  -0.488  -0.485  -0.474  -0.474
 -0.471  -0.470  -0.467  -0.466  -0.463  -0.455  -0.453  -0.444
 -0.444  -0.442  -0.440  -0.438  -0.434  -0.434  -0.429  -0.427
 -0.427  -0.423  -0.421  -0.418  -0.416  -0.414  -0.413  -0.413
 -0.409  -0.407  -0.405  -0.402  -0.400  -0.399  -0.396  -0.396
 -0.394  -0.393  -0.391  -0.388  -0.386  -0.385  -0.383  -0.382
 -0.380  -0.378  -0.375  -0.375  -0.369  -0.366  -0.361  -0.361
 -0.354  -0.353  -0.350  -0.347  -0.346  -0.344  -0.341  -0.340
 -0.338  -0.337  -0.335  -0.329  -0.327  -0.325  -0.321  -0.314
 -0.312  -0.308  -0.304  -0.304  -0.300  -0.300  -0.297  -0.295
 -0.295  -0.294  -0.290  -0.290  -0.288  -0.287  -0.281  -0.281
 -0.274  -0.269  -0.265  -0.263  -0.255  -0.251  -0.250  -0.248
 -0.245  -0.243  -0.232  -0.231  -0.192  -0.191

          Ground-State Mulliken Net Atomic Charges

     Atom                 Charge (a.u.)
  ----------------------------------------
      1 C                     0.282468
      2 C                    -0.124785
      3 N                    -0.481356
      4 C                    -0.065079
      5 C                     0.066666
      6 C                     0.039975
      7 C                     0.062822
      8 C                     0.032440
      9 C                     0.216564
     10 N                    -0.488978
     11 N                    -0.549303
     12 C                     0.213209
     13 C                     0.261762
     14 S                     0.608211
     15 N                    -0.561361
     16 C                    -0.229552
     17 S                     0.371516
     18 C                    -0.105184
     19 C                    -0.223135
     20 S                     0.283548
     21 C                     0.146543
     22 C                     0.038413
     23 C                    -0.302206
     24 C                    -0.081209
     25 N                    -0.393975
     26 S                     0.289286
     27 C                     0.085881
     28 C                    -0.294704
     29 C                    -0.231564
     30 H                     0.090176
     31 H                     0.110675
     32 H                     0.102226
     33 H                     0.106323
     34 H                     0.139267
     35 H                     0.099963
     36 H                     0.112727
     37 H                     0.135008
     38 H                     0.121393
     39 C                    -0.175999
     40 H                     0.104735
     41 H                     0.106578
     42 H                     0.091164
     43 C                    -0.185172
     44 H                     0.096299
     45 C                    -0.187078
     46 H                     0.083734
     47 H                     0.091801
     48 H                     0.094795
     49 C                    -0.176262
     50 H                     0.095784
     51 C                    -0.325515
     52 H                     0.097264
     53 H                     0.103571
     54 H                     0.106211
     55 H                     0.103951
     56 C                     0.248362
     57 C                    -0.116352
     58 N                    -0.476208
     59 C                    -0.078348
     60 C                     0.083587
     61 C                     0.042101
     62 C                     0.071584
     63 C                     0.038340
     64 C                     0.198166
     65 N                    -0.522548
     66 N                    -0.559070
     67 C                     0.201500
     68 C                     0.300847
     69 S                     0.639518
     70 N                    -0.568983
     71 C                    -0.225572
     72 S                     0.345978
     73 C                    -0.083684
     74 C                    -0.204111
     75 S                     0.294328
     76 C                     0.102980
     77 C                     0.060944
     78 C                    -0.313219
     79 C                    -0.068364
     80 N                    -0.432282
     81 S                     0.260372
     82 C                     0.134834
     83 C                    -0.307942
     84 C                    -0.215696
     85 H                     0.091405
     86 H                     0.097427
     87 H                     0.124861
     88 H                     0.092437
     89 H                     0.124700
     90 H                     0.114383
     91 H                     0.121148
     92 H                     0.126746
     93 H                     0.125326
     94 C                    -0.172874
     95 H                     0.086184
     96 H                     0.107278
     97 H                     0.097779
     98 C                    -0.181745
     99 H                     0.116156
    100 C                    -0.180189
    101 H                     0.088119
    102 H                     0.081540
    103 H                     0.094267
    104 C                    -0.170692
    105 H                     0.090808
    106 C                    -0.329024
    107 H                     0.090308
    108 H                     0.101124
    109 H                     0.099001
    110 H                     0.101934
  ----------------------------------------
  Sum of atomic charges =     0.000000

                    Cartesian Multipole Moments
 -----------------------------------------------------------------
    Charge (ESU x 10^10)
                 0.0000
    Dipole Moment (Debye)
         X      -2.9647      Y       1.0604      Z       0.6955
       Tot       3.2245
    Quadrupole Moments (Debye-Ang)
        XX    -418.9794     XY      -1.8911     YY    -405.5386
        XZ       7.0614     YZ       2.1106     ZZ    -431.2058

 Total job time:  95.25s(wall), 1017.60s(cpu)
        *  Thank you very much for using Q-Chem.  Have a nice day.  *
