 Q-Chem 4.4, Q-Chem, Inc., Pleasanton, CA (2016)
 Q-Chem 4.4.2 for Intel X86 Linux

User input:
--------------------------------------------------------------
$comment
SP
$end

$rem
MEM_STATIC 5000
MEM_TOTAL 20000
JOBTYPE SP
EXCHANGE B3LYP
BASIS 6-31g(d,p)
$end

$molecule
0 1
C          24.372000     21.691000     -0.842000
C          24.409000     22.895000     -0.126000
N          23.214000     21.186000     -1.201000
C          23.189000     23.578000      0.221000
C          22.005000     21.802000     -0.925000
C          21.979000     23.014000     -0.155000
C          20.694000     23.667000      0.322000
C          20.547000     25.018000      0.432000
C          19.497000     22.932000      0.614000
N          19.430000     25.702000      0.767000
N          19.393000     21.579000      0.497000
C          18.338000     23.564000      0.972000
C          18.271000     24.978000      1.078000
S          17.902000     21.218000      0.928000
N          17.303000     22.749000      1.317000
C          16.981000     25.650000      1.316000
S          15.326000     24.976000      1.057000
C          16.855000     27.011000      1.637000
C          14.513000     26.547000      1.373000
S          18.101000     28.205000      1.990000
C          15.493000     27.424000      1.717000
C          13.093000     26.836000      1.214000
C          16.786000     29.352000      2.244000
C          15.513000     28.813000      2.019000
N          12.698000     28.034000      1.495000
S          11.926000     25.597000      0.971000
C          11.348000     28.154000      1.327000
C          10.777000     26.939000      1.029000
C          25.534000     20.740000     -0.983000
H          25.331000     23.418000      0.110000
H          23.232000     24.589000      0.613000
H          21.073000     21.288000     -1.155000
H          21.451000     25.618000      0.334000
H          17.002000     30.325000      2.663000
H          14.613000     29.386000      2.211000
H          10.825000     29.095000      1.441000
H           9.780000     26.696000      0.686000
H          26.459000     21.306000     -1.143000
C          25.481000     19.640000     -1.997000
H          25.723000     20.326000      0.015000
H          24.566000     19.094000     -1.733000
H          26.382000     19.030000     -1.859000
C          25.442000     20.231000     -3.374000
H          24.531000     20.835000     -3.469000
C          25.351000     19.207000     -4.573000
H          26.200000     20.997000     -3.579000
H          24.442000     18.601000     -4.474000
H          26.156000     18.464000     -4.628000
C          25.488000     19.865000     -5.932000
H          24.743000     20.665000     -6.027000
C          25.150000     18.864000     -7.103000
H          26.509000     20.162000     -6.205000
H          24.102000     18.548000     -7.033000
H          25.687000     17.908000     -7.080000
H          25.308000     19.338000     -8.080000
C          19.574000     17.638000     -1.632000
C          18.489000     17.283000     -0.829000
N          19.565000     18.704000     -2.472000
C          17.305000     18.014000     -0.929000
C          18.431000     19.438000     -2.442000
C          17.198000     19.094000     -1.782000
C          16.031000     19.969000     -1.826000
C          14.710000     19.526000     -1.753000
C          16.018000     21.403000     -1.939000
N          13.587000     20.207000     -1.660000
N          17.167000     22.119000     -2.051000
C          14.894000     22.150000     -1.847000
C          13.621000     21.551000     -1.671000
S          16.748000     23.663000     -2.115000
N          15.168000     23.482000     -1.848000
C          12.308000     22.281000     -1.527000
S          12.109000     23.986000     -2.136000
C          11.121000     21.718000     -1.166000
C          10.379000     23.937000     -1.697000
S          10.694000     20.107000     -0.792000
C          10.073000     22.618000     -1.298000
C           9.447000     25.054000     -1.687000
C           9.013000     20.609000     -1.012000
C           8.799000     21.964000     -1.146000
N           9.819000     26.135000     -2.340000
S           7.901000     25.138000     -0.787000
C           8.878000     27.132000     -2.246000
C           7.792000     26.740000     -1.513000
C          20.911000     16.938000     -1.576000
H          18.608000     16.453000     -0.140000
H          16.428000     17.741000     -0.350000
H          18.456000     20.333000     -3.061000
H          14.592000     18.446000     -1.676000
H           8.205000     19.892000     -1.077000
H           7.872000     22.489000     -1.346000
H           8.992000     28.068000     -2.777000
H           6.875000     27.279000     -1.314000
H          21.624000     17.697000     -1.231000
C          21.134000     16.170000     -2.882000
H          20.837000     16.138000     -0.829000
H          20.184000     15.980000     -3.397000
H          21.565000     15.174000     -2.718000
C          22.157000     16.889000     -3.795000
H          22.048000     17.980000     -3.778000
C          21.901000     16.476000     -5.271000
H          23.209000     16.734000     -3.526000
H          22.636000     17.027000     -5.870000
H          20.900000     16.779000     -5.603000
C          22.211000     14.993000     -5.538000
H          23.188000     14.917000     -5.046000
C          22.309000     14.488000     -7.002000
H          21.627000     14.283000     -4.939000
H          22.947000     13.629000     -7.245000
H          22.750000     15.266000     -7.637000
H          21.358000     14.158000     -7.438000
$end

--------------------------------------------------------------

             Standard Nuclear Orientation (Angstroms)
    I     Atom           X                Y                Z
 ----------------------------------------------------------------
    1      C       6.8125275384     3.3143705276     0.2714932524
    2      C       6.1345134556     4.5396801544     0.3220325626
    3      N       6.1263968339     2.1948008289     0.2458349948
    4      C       4.6947267282     4.5788877276     0.3498704115
    5      C       4.7421909426     2.1590380430     0.2429936011
    6      C       3.9948008244     3.3815692254     0.3396658275
    7      C       2.4853868134     3.4213668903     0.4985635604
    8      C       1.7096209802     4.4018759804    -0.0452188374
    9      C       1.7340424448     2.3907829350     1.1555843748
   10      N       0.3605384479     4.4889833691    -0.0326242385
   11      N       2.2962644778     1.2782641296     1.7045126883
   12      C       0.3680325828     2.4276701878     1.2149593486
   13      C      -0.3672417945     3.4940912060     0.6342366936
   14      S       1.0891758533     0.4371914486     2.3166375104
   15      N      -0.2181174266     1.4425271524     1.9500759150
   16      C      -1.8390161716     3.4425907265     0.5746054654
   17      S      -2.8956906112     1.9875533006     0.7379676944
   18      C      -2.6461465543     4.5320998791     0.2102589933
   19      C      -4.3901394108     2.8825807133     0.2970428528
   20      S      -2.2022497575     6.2077622744    -0.1025862892
   21      C      -4.0263243854     4.1827712535     0.1389030837
   22      C      -5.7120244551     2.3083570394     0.0777505777
   23      C      -3.9190039101     6.5047896691    -0.3743948737
   24      C      -4.7167771872     5.3591498707    -0.2615132964
   25      N      -6.6665858365     3.1223990626    -0.2326333033
   26      S      -6.0904570044     0.6866307806     0.5053622555
   27      C      -7.8480333762     2.4537886987    -0.3818509035
   28      C      -7.7131182768     1.1290347603    -0.0384926090
   29      C       8.2828415275     3.1344990657     0.5549522983
   30      H       6.6353690240     5.4998207903     0.2408989764
   31      H       4.1800857825     5.5237334831     0.2082893559
   32      H       4.2272877983     1.2031154097     0.3254961526
   33      H       2.2302295011     5.2664668110    -0.4554254483
   34      H      -4.2729250289     7.5207973467    -0.4812323239
   35      H      -5.7973667979     5.4120993569    -0.3301823962
   36      H      -8.7581955211     2.9391715375    -0.7105063001
   37      H      -8.3855117469     0.2935852864    -0.1820829921
   38      H       8.8504345716     3.9576924946     0.1057622330
   39      C       8.9621763988     1.8503011870     0.1939191407
   40      H       8.4253699698     3.3514902855     1.6206546271
   41      H       8.3718396930     1.0918973597     0.7243559498
   42      H       9.9907033246     1.9123820037     0.5697160742
   43      C       8.9471688446     1.6783175618    -1.2950830104
   44      H       7.9036881774     1.6252002061    -1.6298794319
   45      C       9.5978765975     0.3518351138    -1.8531884981
   46      H       9.2879696474     2.5464921857    -1.8725539059
   47      H       9.0755337008    -0.5193407715    -1.4390285348
   48      H      10.6464047604     0.1828150118    -1.5791084061
   49      C       9.6994331836     0.3269882898    -3.3656973064
   50      H       8.7079673645     0.5044061028    -3.8010918967
   51      C      10.1210246857    -1.0957489795    -3.9000803787
   52      H      10.4982461891     0.9496149797    -3.7892687730
   53      H       9.3508851636    -1.8336919457    -3.6443748937
   54      H      11.0210940566    -1.5262069775    -3.4446519654
   55      H      10.2447924596    -1.0826685523    -4.9903461447
   56      C       4.7299346280    -2.4865763579     1.7149387837
   57      C       3.7903994492    -2.9567215464     2.6337946752
   58      N       4.4066497587    -2.0577106922     0.4685046161
   59      C       2.4542546682    -3.0559324806     2.2450900128
   60      C       3.0845326982    -2.0732967433     0.1903400006
   61      C       2.0429258548    -2.6720040686     0.9845878978
   62      C       0.6428008249    -2.6310415261     0.5754155983
   63      C      -0.3040202155    -3.6011094682     0.9057443820
   64      C      -0.0087809086    -1.6165883157    -0.2091989112
   65      N      -1.6054936831    -3.6235116112     0.7077444904
   66      N       0.6718502953    -0.5470390866    -0.6972630574
   67      C      -1.3414810094    -1.5906949838    -0.4396093641
   68      C      -2.1965959091    -2.6083917704     0.0537239500
   69      S      -0.3904157545     0.3643341929    -1.4748121457
   70      N      -1.7226542685    -0.4583047842    -1.0889939823
   71      C      -3.6950731386    -2.6687930365    -0.1151626381
   72      S      -4.5269332359    -1.7602814082    -1.4568490395
   73      C      -4.5321533378    -3.5362733735     0.5196866393
   74      C      -6.0859056934    -2.4865727812    -0.9771327499
   75      S      -4.2325504151    -4.7938682808     1.6360284947
   76      C      -5.8227911699    -3.4541114323     0.0164656127
   77      C      -7.4074269177    -2.1224532008    -1.4643817464
   78      C      -5.8647298327    -5.3680540941     1.2720697048
   79      C      -6.6481886347    -4.5236808805     0.5150999684
   80      N      -7.4495585736    -1.4083209724    -2.5696392205
   81      S      -8.9675884828    -2.4575200688    -0.6514868671
   82      C      -8.7410607478    -1.1021129834    -2.9254267999
   83      C      -9.6494513811    -1.6305144662    -2.0502312044
   84      C       6.1926977508    -2.3054690973     2.0439208603
   85      H       4.1310454550    -3.2186922335     3.6303455559
   86      H       1.7032477192    -3.4557196607     2.9196697139
   87      H       2.8228044922    -1.6595413827    -0.7818306880
   88      H       0.0784822687    -4.4335384655     1.4948172247
   89      H      -6.2139257609    -6.3413577960     1.5913189924
   90      H      -7.6465402441    -4.6890787257     0.1266522670
   91      H      -8.9638946159    -0.5746630036    -3.8436830746
   92      H     -10.7304011830    -1.6085489452    -2.0957948035
   93      H       6.3812484040    -1.2285032596     1.9540975024
   94      C       7.0176768907    -3.3275593975     1.2565646277
   95      H       6.3410755205    -2.6181215741     3.0849383752
   96      H       6.3976850445    -4.1736736749     0.9348104666
   97      H       7.8151407847    -3.7809767672     1.8591731461
   98      C       7.7585779569    -2.6647497115     0.0696324770
   99      H       7.1557135437    -1.8989429363    -0.4329065586
  100      C       8.0430513965    -3.7385576075    -1.0169642581
  101      H       8.6784023198    -2.1301281272     0.3364524594
  102      H       8.5473294243    -3.2121370200    -1.8362395694
  103      H       7.1119127122    -4.1640010152    -1.4119486345
  104      C       9.0535513796    -4.8023504099    -0.5544573310
  105      H       9.8248978793    -4.1508546985    -0.1267343886
  106      C       9.6826779801    -5.7597945840    -1.6010830397
  107      H       8.7528580542    -5.3706754831     0.3346698450
  108      H      10.6811821391    -6.1811472988    -1.4295448980
  109      H       9.8364745629    -5.2288889647    -2.5484350516
  110      H       9.1099160978    -6.6768294280    -1.7865228444
 ----------------------------------------------------------------

   10   -5663.4996032200      4.07E-06 Convergence criterion met
 Total energy in the final basis set = -5663.4996032200

                    Orbital Energies (a.u.)
 --------------------------------------------------------------

 Alpha MOs
 -- Occupied --
-88.993 -88.984 -88.939 -88.927 -88.921 -88.920 -88.918 -88.906
-14.383 -14.381 -14.379 -14.376 -14.352 -14.349 -14.348 -14.334
-14.334 -14.323 -10.278 -10.268 -10.262 -10.261 -10.254 -10.252
-10.250 -10.248 -10.246 -10.246 -10.241 -10.239 -10.237 -10.236
-10.236 -10.233 -10.231 -10.230 -10.229 -10.229 -10.228 -10.227
-10.227 -10.226 -10.225 -10.223 -10.218 -10.217 -10.216 -10.215
-10.215 -10.214 -10.209 -10.209 -10.201 -10.200 -10.199 -10.187
-10.181 -10.178 -10.177 -10.173 -10.171 -10.168 -10.168 -10.168
-10.167 -10.167 -10.165 -10.164  -8.048  -8.038  -7.999  -7.984
 -7.982  -7.980  -7.976  -7.966  -6.013  -6.007  -6.006  -6.003
 -5.998  -5.997  -5.963  -5.960  -5.956  -5.949  -5.946  -5.945
 -5.945  -5.943  -5.941  -5.941  -5.940  -5.939  -5.937  -5.936
 -5.932  -5.930  -5.927  -5.922  -1.048  -1.032  -0.976  -0.975
 -0.970  -0.942  -0.941  -0.932  -0.918  -0.901  -0.900  -0.895
 -0.846  -0.843  -0.832  -0.829  -0.816  -0.811  -0.803  -0.803
 -0.802  -0.802  -0.799  -0.789  -0.783  -0.773  -0.770  -0.762
 -0.754  -0.746  -0.741  -0.735  -0.728  -0.712  -0.712  -0.700
 -0.696  -0.690  -0.678  -0.668  -0.655  -0.648  -0.645  -0.640
 -0.637  -0.629  -0.628  -0.623  -0.616  -0.606  -0.606  -0.600
 -0.592  -0.588  -0.587  -0.581  -0.575  -0.566  -0.563  -0.555
 -0.549  -0.547  -0.546  -0.531  -0.529  -0.524  -0.517  -0.513
 -0.508  -0.505  -0.501  -0.492  -0.491  -0.484  -0.478  -0.476
 -0.472  -0.471  -0.464  -0.460  -0.458  -0.453  -0.450  -0.443
 -0.442  -0.440  -0.439  -0.438  -0.434  -0.432  -0.431  -0.429
 -0.425  -0.422  -0.421  -0.420  -0.417  -0.415  -0.413  -0.411
 -0.406  -0.405  -0.405  -0.401  -0.400  -0.399  -0.396  -0.394
 -0.393  -0.392  -0.390  -0.388  -0.386  -0.383  -0.382  -0.380
 -0.377  -0.376  -0.372  -0.369  -0.368  -0.367  -0.362  -0.355
 -0.351  -0.350  -0.348  -0.347  -0.346  -0.342  -0.338  -0.337
 -0.335  -0.330  -0.330  -0.326  -0.324  -0.321  -0.316  -0.310
 -0.308  -0.307  -0.305  -0.303  -0.303  -0.302  -0.300  -0.297
 -0.294  -0.291  -0.290  -0.288  -0.287  -0.286  -0.281  -0.281
 -0.275  -0.271  -0.270  -0.262  -0.257  -0.257  -0.249  -0.246
 -0.240  -0.239  -0.236  -0.226  -0.198  -0.189

          Ground-State Mulliken Net Atomic Charges

     Atom                 Charge (a.u.)
  ----------------------------------------
      1 C                     0.311256
      2 C                    -0.140380
      3 N                    -0.496945
      4 C                    -0.083487
      5 C                     0.075293
      6 C                     0.031387
      7 C                     0.069315
      8 C                     0.046188
      9 C                     0.206053
     10 N                    -0.525822
     11 N                    -0.535348
     12 C                     0.193605
     13 C                     0.277991
     14 S                     0.617773
     15 N                    -0.582855
     16 C                    -0.228671
     17 S                     0.323851
     18 C                    -0.121348
     19 C                    -0.244761
     20 S                     0.288246
     21 C                     0.168641
     22 C                     0.099451
     23 C                    -0.306321
     24 C                    -0.069308
     25 N                    -0.447144
     26 S                     0.285482
     27 C                     0.135732
     28 C                    -0.318124
     29 C                    -0.238700
     30 H                     0.085400
     31 H                     0.100998
     32 H                     0.147034
     33 H                     0.099782
     34 H                     0.125121
     35 H                     0.119078
     36 H                     0.116398
     37 H                     0.129122
     38 H                     0.092376
     39 C                    -0.161865
     40 H                     0.112157
     41 H                     0.117541
     42 H                     0.085582
     43 C                    -0.179234
     44 H                     0.114292
     45 C                    -0.178625
     46 H                     0.081572
     47 H                     0.104125
     48 H                     0.080907
     49 C                    -0.177309
     50 H                     0.094793
     51 C                    -0.338362
     52 H                     0.096835
     53 H                     0.108509
     54 H                     0.096877
     55 H                     0.095148
     56 C                     0.251763
     57 C                    -0.115373
     58 N                    -0.468350
     59 C                    -0.083635
     60 C                     0.092283
     61 C                     0.025736
     62 C                     0.073240
     63 C                     0.041287
     64 C                     0.202050
     65 N                    -0.522598
     66 N                    -0.565905
     67 C                     0.212098
     68 C                     0.304628
     69 S                     0.633802
     70 N                    -0.560092
     71 C                    -0.223411
     72 S                     0.358239
     73 C                    -0.085439
     74 C                    -0.208455
     75 S                     0.300331
     76 C                     0.103913
     77 C                     0.053248
     78 C                    -0.311087
     79 C                    -0.069509
     80 N                    -0.425958
     81 S                     0.253412
     82 C                     0.137763
     83 C                    -0.314445
     84 C                    -0.222214
     85 H                     0.094941
     86 H                     0.099011
     87 H                     0.119164
     88 H                     0.095832
     89 H                     0.127736
     90 H                     0.116169
     91 H                     0.126117
     92 H                     0.130256
     93 H                     0.140705
     94 C                    -0.178205
     95 H                     0.085338
     96 H                     0.106365
     97 H                     0.098371
     98 C                    -0.184368
     99 H                     0.125570
    100 C                    -0.195093
    101 H                     0.093539
    102 H                     0.094201
    103 H                     0.094870
    104 C                    -0.169955
    105 H                     0.090702
    106 C                    -0.329614
    107 H                     0.088717
    108 H                     0.100105
    109 H                     0.101455
    110 H                     0.101449
  ----------------------------------------
  Sum of atomic charges =     0.000000

                    Cartesian Multipole Moments
 -----------------------------------------------------------------
    Charge (ESU x 10^10)
                 0.0000
    Dipole Moment (Debye)
         X      -4.0666      Y      -1.7470      Z       1.3383
       Tot       4.6239
    Quadrupole Moments (Debye-Ang)
        XX    -390.1414     XY      21.9946     YY    -428.0803
        XZ      17.9033     YZ     -13.0938     ZZ    -444.6965

 Total job time:  110.34s(wall), 1201.98s(cpu)
        *  Thank you very much for using Q-Chem.  Have a nice day.  *
