 Q-Chem 4.4, Q-Chem, Inc., Pleasanton, CA (2016)
 Q-Chem 4.4.2 for Intel X86 Linux

User input:
--------------------------------------------------------------
$comment
SP
$end

$rem
MEM_STATIC 5000
MEM_TOTAL 20000
JOBTYPE SP
EXCHANGE B3LYP
BASIS 6-31g(d,p)
$end

$molecule
0 1
C           0.396000     14.313000     -4.655000
C           0.832000     14.452000     -5.973000
N           1.075000     14.728000     -3.611000
C           1.738000     15.477000     -6.214000
C           2.129000     15.575000     -3.872000
C           2.400000     16.066000     -5.157000
C           3.267000     17.311000     -5.245000
C           2.891000     18.313000     -6.108000
C           4.373000     17.670000     -4.436000
N           3.493000     19.493000     -6.262000
N           4.931000     16.715000     -3.621000
C           5.006000     18.899000     -4.507000
C           4.505000     19.850000     -5.420000
S           6.330000     17.379000     -3.139000
N           6.083000     18.945000     -3.680000
C           5.022000     21.181000     -5.686000
S           5.096000     22.073000     -7.228000
C           5.412000     22.054000     -4.695000
C           5.693000     23.559000     -6.426000
S           5.287000     21.791000     -3.005000
C           5.788000     23.359000     -5.055000
C           5.867000     24.821000     -7.158000
C           5.646000     23.501000     -2.757000
C           5.880000     24.224000     -3.937000
N           6.459000     25.836000     -6.569000
S           5.368000     24.916000     -8.802000
C           6.732000     26.752000     -7.590000
C           6.178000     26.497000     -8.806000
C          -0.836000     13.416000     -4.278000
H           0.210000     14.010000     -6.746000
H           1.948000     15.856000     -7.209000
H           2.546000     16.105000     -3.017000
H           2.103000     18.118000     -6.834000
H           5.521000     23.956000     -1.783000
H           5.912000     25.307000     -3.987000
H           7.315000     27.631000     -7.346000
H           6.300000     27.099000     -9.697000
H          -0.906000     12.711000     -5.116000
C          -2.118000     14.191000     -3.965000
H          -0.537000     12.798000     -3.422000
H          -2.350000     14.939000     -4.733000
H          -1.960000     14.787000     -3.058000
C          -3.340000     13.237000     -3.794000
H          -3.333000     12.635000     -4.711000
C          -4.672000     14.043000     -3.836000
H          -3.227000     12.560000     -2.939000
H          -4.846000     14.495000     -4.820000
H          -4.673000     14.882000     -3.129000
C          -5.973000     13.084000     -3.648000
H          -6.871000     13.540000     -4.083000
C          -6.256000     12.856000     -2.196000
H          -5.753000     12.166000     -4.206000
H          -5.317000     12.555000     -1.715000
H          -6.986000     12.061000     -1.998000
H          -6.494000     13.799000     -1.689000
C          19.574000     17.638000     -1.632000
C          18.489000     17.283000     -0.829000
N          19.565000     18.704000     -2.472000
C          17.305000     18.014000     -0.929000
C          18.431000     19.438000     -2.442000
C          17.198000     19.094000     -1.782000
C          16.031000     19.969000     -1.826000
C          14.710000     19.526000     -1.753000
C          16.018000     21.403000     -1.939000
N          13.587000     20.207000     -1.660000
N          17.167000     22.119000     -2.051000
C          14.894000     22.150000     -1.847000
C          13.621000     21.551000     -1.671000
S          16.748000     23.663000     -2.115000
N          15.168000     23.482000     -1.848000
C          12.308000     22.281000     -1.527000
S          12.109000     23.986000     -2.136000
C          11.121000     21.718000     -1.166000
C          10.379000     23.937000     -1.697000
S          10.694000     20.107000     -0.792000
C          10.073000     22.618000     -1.298000
C           9.447000     25.054000     -1.687000
C           9.013000     20.609000     -1.012000
C           8.799000     21.964000     -1.146000
N           9.819000     26.135000     -2.340000
S           7.901000     25.138000     -0.787000
C           8.878000     27.132000     -2.246000
C           7.792000     26.740000     -1.513000
C          20.911000     16.938000     -1.576000
H          18.608000     16.453000     -0.140000
H          16.428000     17.741000     -0.350000
H          18.456000     20.333000     -3.061000
H          14.592000     18.446000     -1.676000
H           8.205000     19.892000     -1.077000
H           7.872000     22.489000     -1.346000
H           8.992000     28.068000     -2.777000
H           6.875000     27.279000     -1.314000
H          21.624000     17.697000     -1.231000
C          21.134000     16.170000     -2.882000
H          20.837000     16.138000     -0.829000
H          20.184000     15.980000     -3.397000
H          21.565000     15.174000     -2.718000
C          22.157000     16.889000     -3.795000
H          22.048000     17.980000     -3.778000
C          21.901000     16.476000     -5.271000
H          23.209000     16.734000     -3.526000
H          22.636000     17.027000     -5.870000
H          20.900000     16.779000     -5.603000
C          22.211000     14.993000     -5.538000
H          23.188000     14.917000     -5.046000
C          22.309000     14.488000     -7.002000
H          21.627000     14.283000     -4.939000
H          22.947000     13.629000     -7.245000
H          22.750000     15.266000     -7.637000
H          21.358000     14.158000     -7.438000
$end

--------------------------------------------------------------

             Standard Nuclear Orientation (Angstroms)
    I     Atom           X                Y                Z
 ----------------------------------------------------------------
    1      C      -9.2639054225    -4.5500426301    -0.3164687868
    2      C      -8.9506973731    -4.4114158082    -1.6689569834
    3      N      -8.4317794682    -4.2735200647     0.6604158875
    4      C      -7.9446213652    -3.5039151423    -1.9752176693
    5      C      -7.3058270764    -3.5607700737     0.3130476941
    6      C      -7.1045154552    -3.0534028940    -0.9783852992
    7      C      -6.0915943534    -1.9296272173    -1.1218323972
    8      C      -6.4159452216    -0.8501792335    -1.9090665203
    9      C      -4.8702595534    -1.7540089262    -0.4260612265
   10      N      -5.6797180103     0.2467199597    -2.0915539259
   11      N      -4.3651340643    -2.8085633183     0.2953105738
   12      C      -4.0883746265    -0.6162705277    -0.5279351572
   13      C      -4.5479124949     0.4311828972    -1.3529425937
   14      S      -2.8475459293    -2.3547528280     0.6437403249
   15      N      -2.9358711384    -0.7476710407     0.1794852376
   16      C      -3.8866415993     1.6936609189    -1.6330783596
   17      S      -3.8519241770     2.6352168380    -3.1467398646
   18      C      -3.2831913737     2.4638826626    -0.6641014297
   19      C      -2.9814018192     3.9938628941    -2.3695135664
   20      S      -3.2683969050     2.1454880901     1.0209208313
   21      C      -2.7740282856     3.7231495773    -1.0232682255
   22      C      -2.7152718519     5.2532563755    -3.0779250990
   23      C      -2.6591498648     3.7814091398     1.2798906426
   24      C      -2.4523320368     4.5187839116     0.1037147067
   25      N      -1.9348727565     6.1554019440    -2.5259100401
   26      S      -3.3629505978     5.4847174554    -4.6551695349
   27      C      -1.6473495210     7.0718600819    -3.5425028153
   28      C      -2.3524022769     6.9450429877    -4.6989694322
   29      C     -10.5601179352    -5.2941665369     0.1638173086
   30      H      -9.7024760560    -4.7340266753    -2.3834694328
   31      H      -7.7887448376    -3.1122512012    -2.9752516015
   32      H      -6.7358475173    -3.1278300290     1.1337182856
   33      H      -7.2932913181    -0.9085327505    -2.5516423478
   34      H      -2.6212399653     4.2056146985     2.2748471660
   35      H      -2.2802685629     5.5894735897     0.0829596068
   36      H      -0.9295024733     7.8556304002    -3.3364307308
   37      H      -2.2425976689     7.5645040803    -5.5795260192
   38      H     -10.8098895370    -5.9464972553    -0.6824969243
   39      C     -11.6873063974    -4.3728947297     0.6358580145
   40      H     -10.2607311038    -5.9829139424     0.9638520181
   41      H     -11.8941475691    -3.5680011937    -0.0800436026
   42      H     -11.3583841354    -3.8430465298     1.5380220964
   43      C     -13.0024609821    -5.1657332986     0.9086517495
   44      H     -13.1705935504    -5.7226315326    -0.0213685709
   45      C     -14.2111765471    -4.1916361042     1.0342118500
   46      H     -12.8944315682    -5.8885854192     1.7259261572
   47      H     -14.4228205991    -3.6780069476     0.0885756172
   48      H     -14.0267984049    -3.3915581374     1.7619830693
   49      C     -15.6031213489    -4.9798574590     1.3322433325
   50      H     -16.4714773070    -4.3918355660     1.0101359228
   51      C     -15.7637576616    -5.2325003527     2.7987850275
   52      H     -15.5669951215    -5.8933242490     0.7266351100
   53      H     -14.8294275931    -5.6743746585     3.1668304337
   54      H     -16.5698478367    -5.9332886358     3.0502674559
   55      H     -15.8194939552    -4.2896814981     3.3563942751
   56      C      10.3950422016    -3.8938730864     0.7251923098
   57      C       9.3603057597    -4.1390716493     1.6292150753
   58      N      10.4433699362    -2.7999701286    -0.0767289763
   59      C       8.2814210114    -3.2560383731     1.6789838713
   60      C       9.4275039203    -1.9262043554     0.0969420099
   61      C       8.2337101587    -2.1349006658     0.8750983597
   62      C       7.1966917686    -1.1139200800     0.9829941528
   63      C       5.8426354947    -1.3833995340     1.1843183462
   64      C       7.3651472867     0.3130657105     0.9149626010
   65      N       4.8369456537    -0.5663317674     1.4178289640
   66      N       8.5823972726     0.8771152457     0.7015344081
   67      C       6.3672456751     1.1956785969     1.1495598440
   68      C       5.0500831640     0.7608949091     1.4434170615
   69      S       8.3705235157     2.4639172963     0.7291344708
   70      N       6.8163368855     2.4792402025     1.1589241017
   71      C       3.8689528552     1.6490665297     1.7495009814
   72      S       3.8396546311     3.3905413278     1.2166650389
   73      C       2.6603705804     1.2305839738     2.2190329137
   74      C       2.1730263919     3.5486388241     1.8374528400
   75      S       2.0612242918    -0.3257199552     2.5884484054
   76      C       1.7349724966     2.2646515951     2.2274317886
   77      C       1.4057080793     4.7762525800     1.9809800973
   78      C       0.4493926415     0.4006680946     2.5655544677
   79      C       0.4069654127     1.7765770717     2.4959023546
   80      N       1.8507461599     5.8270466359     1.3243775091
   81      S      -0.0143936437     5.0218068547     3.0440822535
   82      C       1.0670355473     6.9332906676     1.5487607036
   83      C       0.0191565746     6.6546499618     2.3822221698
   84      C      11.6243779155    -4.7642489217     0.6161757615
   85      H       9.4366429078    -5.0069574442     2.2763077168
   86      H       7.4397372116    -3.4373422999     2.3404944662
   87      H       9.5090145188    -1.0158170245    -0.4941264550
   88      H       5.5889844214    -2.4410734001     1.2412404515
   89      H      -0.4500625113    -0.2011273178     2.5663969302
   90      H      -0.4565859126     2.4264066057     2.4125075986
   91      H       1.2508051063     7.8687999847     1.0367997023
   92      H      -0.7917255531     7.2995158632     2.6946787975
   93      H      12.4645736722    -4.1207462329     0.9050535556
   94      C      11.6069028473    -5.4966853503    -0.7285994985
   95      H      11.5204805731    -5.5797653658     1.3425525725
   96      H      10.5922084207    -5.5381990719    -1.1439268772
   97      H      11.9145629820    -6.5466722713    -0.6417334681
   98      C      12.6182032963    -4.8780304433    -1.7243888879
   99      H      12.6592474375    -3.7839473020    -1.6631642322
  100      C      12.1589355474    -5.1888357017    -3.1759929062
  101      H      13.6617933017    -5.1807419367    -1.5748039538
  102      H      12.8960023023    -4.7127614014    -3.8338020423
  103      H      11.1790526302    -4.7434283791    -3.3892434294
  104      C      12.2376290590    -6.6864480509    -3.5189835513
  105      H      13.2408004447    -6.9109133280    -3.1373665832
  106      C      12.1161182384    -7.1351299723    -4.9994715296
  107      H      11.6280024381    -7.3397243766    -2.8821614212
  108      H      12.6044698292    -8.0585787083    -5.3352231579
  109      H      12.5902578046    -6.3942473709    -5.6546620689
  110      H      11.0897135059    -7.3186477694    -5.3403696716
 ----------------------------------------------------------------

   10   -5663.4985836897      3.12E-06 Convergence criterion met
 Total energy in the final basis set = -5663.4985836897

                    Orbital Energies (a.u.)
 --------------------------------------------------------------

 Alpha MOs
 -- Occupied --
-88.995 -88.988 -88.927 -88.926 -88.926 -88.919 -88.912 -88.911
-14.390 -14.389 -14.376 -14.371 -14.352 -14.345 -14.344 -14.338
-14.332 -14.329 -10.270 -10.268 -10.267 -10.262 -10.262 -10.261
-10.249 -10.247 -10.243 -10.240 -10.239 -10.238 -10.234 -10.230
-10.229 -10.229 -10.229 -10.229 -10.229 -10.229 -10.228 -10.228
-10.227 -10.225 -10.224 -10.223 -10.222 -10.221 -10.218 -10.216
-10.213 -10.211 -10.210 -10.205 -10.204 -10.203 -10.198 -10.197
-10.187 -10.184 -10.184 -10.183 -10.182 -10.180 -10.179 -10.174
-10.170 -10.169 -10.169 -10.168  -8.050  -8.044  -7.988  -7.987
 -7.985  -7.976  -7.972  -7.972  -6.015  -6.010  -6.009  -6.008
 -6.003  -6.002  -5.952  -5.951  -5.949  -5.949  -5.948  -5.946
 -5.945  -5.944  -5.941  -5.941  -5.937  -5.937  -5.936  -5.933
 -5.933  -5.933  -5.928  -5.928  -1.042  -1.037  -0.970  -0.964
 -0.963  -0.962  -0.947  -0.936  -0.915  -0.910  -0.902  -0.894
 -0.846  -0.838  -0.837  -0.836  -0.814  -0.811  -0.807  -0.804
 -0.802  -0.801  -0.800  -0.794  -0.783  -0.780  -0.769  -0.765
 -0.753  -0.747  -0.745  -0.738  -0.723  -0.719  -0.712  -0.709
 -0.697  -0.692  -0.677  -0.671  -0.655  -0.652  -0.650  -0.640
 -0.637  -0.633  -0.632  -0.623  -0.612  -0.610  -0.601  -0.597
 -0.592  -0.589  -0.585  -0.584  -0.580  -0.574  -0.570  -0.557
 -0.553  -0.546  -0.541  -0.539  -0.525  -0.523  -0.517  -0.516
 -0.511  -0.508  -0.504  -0.494  -0.489  -0.485  -0.477  -0.474
 -0.473  -0.472  -0.466  -0.466  -0.463  -0.454  -0.449  -0.444
 -0.444  -0.440  -0.436  -0.435  -0.432  -0.430  -0.430  -0.428
 -0.427  -0.426  -0.422  -0.418  -0.417  -0.416  -0.414  -0.413
 -0.412  -0.409  -0.408  -0.405  -0.402  -0.398  -0.397  -0.396
 -0.394  -0.392  -0.390  -0.389  -0.388  -0.384  -0.384  -0.382
 -0.381  -0.380  -0.377  -0.375  -0.369  -0.368  -0.363  -0.359
 -0.353  -0.352  -0.349  -0.346  -0.343  -0.341  -0.341  -0.339
 -0.339  -0.337  -0.335  -0.334  -0.328  -0.326  -0.324  -0.319
 -0.315  -0.311  -0.303  -0.303  -0.301  -0.300  -0.300  -0.298
 -0.297  -0.295  -0.290  -0.289  -0.288  -0.287  -0.283  -0.280
 -0.280  -0.274  -0.271  -0.266  -0.256  -0.254  -0.254  -0.250
 -0.247  -0.241  -0.237  -0.230  -0.195  -0.189

          Ground-State Mulliken Net Atomic Charges

     Atom                 Charge (a.u.)
  ----------------------------------------
      1 C                     0.251494
      2 C                    -0.119334
      3 N                    -0.463913
      4 C                    -0.085890
      5 C                     0.081662
      6 C                     0.065095
      7 C                     0.062449
      8 C                     0.054632
      9 C                     0.154053
     10 N                    -0.498311
     11 N                    -0.526909
     12 C                     0.279904
     13 C                     0.223826
     14 S                     0.612279
     15 N                    -0.577706
     16 C                    -0.176650
     17 S                     0.309461
     18 C                    -0.135440
     19 C                    -0.256792
     20 S                     0.271563
     21 C                     0.176143
     22 C                     0.086848
     23 C                    -0.311439
     24 C                    -0.052792
     25 N                    -0.439566
     26 S                     0.267696
     27 C                     0.119874
     28 C                    -0.303476
     29 C                    -0.218580
     30 H                     0.095550
     31 H                     0.102369
     32 H                     0.112645
     33 H                     0.100864
     34 H                     0.128481
     35 H                     0.131049
     36 H                     0.112098
     37 H                     0.130437
     38 H                     0.087031
     39 C                    -0.178481
     40 H                     0.119834
     41 H                     0.092292
     42 H                     0.111957
     43 C                    -0.170432
     44 H                     0.095100
     45 C                    -0.190191
     46 H                     0.100910
     47 H                     0.091437
     48 H                     0.091767
     49 C                    -0.179483
     50 H                     0.089918
     51 C                    -0.307544
     52 H                     0.092308
     53 H                     0.098347
     54 H                     0.098139
     55 H                     0.103468
     56 C                     0.248934
     57 C                    -0.116659
     58 N                    -0.473680
     59 C                    -0.078312
     60 C                     0.088965
     61 C                     0.041878
     62 C                     0.072277
     63 C                     0.039937
     64 C                     0.200395
     65 N                    -0.521812
     66 N                    -0.554252
     67 C                     0.205501
     68 C                     0.303141
     69 S                     0.613141
     70 N                    -0.562927
     71 C                    -0.226819
     72 S                     0.345031
     73 C                    -0.082175
     74 C                    -0.203470
     75 S                     0.289482
     76 C                     0.100368
     77 C                     0.069722
     78 C                    -0.319365
     79 C                    -0.053455
     80 N                    -0.432305
     81 S                     0.253151
     82 C                     0.139595
     83 C                    -0.311109
     84 C                    -0.216114
     85 H                     0.091704
     86 H                     0.097660
     87 H                     0.115783
     88 H                     0.093148
     89 H                     0.128442
     90 H                     0.113364
     91 H                     0.120294
     92 H                     0.124472
     93 H                     0.123652
     94 C                    -0.172816
     95 H                     0.086337
     96 H                     0.108121
     97 H                     0.097758
     98 C                    -0.181688
     99 H                     0.115568
    100 C                    -0.180840
    101 H                     0.087260
    102 H                     0.083251
    103 H                     0.096382
    104 C                    -0.170472
    105 H                     0.090093
    106 C                    -0.328973
    107 H                     0.089573
    108 H                     0.100398
    109 H                     0.100131
    110 H                     0.102276
  ----------------------------------------
  Sum of atomic charges =     0.000000

                    Cartesian Multipole Moments
 -----------------------------------------------------------------
    Charge (ESU x 10^10)
                 0.0000
    Dipole Moment (Debye)
         X      -3.0298      Y       0.6716      Z      -0.5889
       Tot       3.1587
    Quadrupole Moments (Debye-Ang)
        XX    -440.9356     XY      -5.6300     YY    -407.4272
        XZ      20.2264     YZ      -6.0286     ZZ    -434.5453

 Total job time:  93.93s(wall), 1017.94s(cpu)
        *  Thank you very much for using Q-Chem.  Have a nice day.  *
