 Q-Chem 4.4, Q-Chem, Inc., Pleasanton, CA (2016)
 Q-Chem 4.4.2 for Intel X86 Linux

User input:
--------------------------------------------------------------
$comment
SP
$end

$rem
MEM_STATIC 5000
MEM_TOTAL 20000
JOBTYPE SP
EXCHANGE B3LYP
BASIS 6-31g(d,p)
$end

$molecule
0 1
C           1.881000     19.603000     10.990000
C           3.262000     19.890000     11.033000
N           1.274000     18.867000     10.017000
C           4.061000     19.367000      9.974000
C           2.009000     18.528000      8.971000
C           3.456000     18.636000      8.947000
C           4.249000     18.107000      7.830000
C           5.451000     17.358000      8.074000
C           3.897000     18.088000      6.446000
N           6.313000     16.885000      7.147000
N           2.753000     18.551000      5.970000
C           4.766000     17.536000      5.425000
C           6.051000     17.064000      5.799000
S           2.736000     18.317000      4.322000
N           4.190000     17.589000      4.180000
C           7.107000     16.580000      4.924000
S           8.389000     15.450000      5.392000
C           7.349000     16.994000      3.582000
C           9.360000     15.859000      3.980000
S           6.436000     17.826000      2.390000
C           8.615000     16.623000      3.112000
C          10.737000     15.368000      3.807000
C           7.801000     17.938000      1.359000
C           8.844000     17.174000      1.825000
N          11.237000     15.402000      2.615000
S          11.740000     14.868000      5.081000
C          12.489000     14.919000      2.555000
C          12.998000     14.692000      3.867000
C           0.876000     20.133000     12.021000
H           3.644000     20.434000     11.892000
H           5.141000     19.483000      9.939000
H           1.435000     18.002000      8.210000
H           5.661000     17.181000      9.128000
H           7.725000     18.398000      0.382000
H           9.732000     16.906000      1.265000
H          12.992000     14.975000      1.599000
H          14.041000     14.491000      4.073000
H           1.237000     21.141000     12.259000
C           0.958000     19.260000     13.317000
H          -0.181000     20.220000     11.742000
H           0.539000     19.807000     14.171000
H           1.999000     19.108000     13.630000
C           0.389000     17.885000     13.086000
H          -0.699000     17.972000     12.979000
C           0.751000     16.796000     14.160000
H           0.578000     17.379000     12.130000
H           1.835000     16.629000     14.206000
H           0.321000     15.852000     13.804000
C           0.335000     17.093000     15.673000
H           0.879000     17.957000     16.073000
C           0.542000     15.839000     16.597000
H          -0.678000     17.513000     15.683000
H           1.575000     15.708000     16.941000
H           0.223000     14.963000     16.019000
H          -0.140000     15.914000     17.454000
C          19.574000     17.638000     -1.632000
C          18.489000     17.283000     -0.829000
N          19.565000     18.704000     -2.472000
C          17.305000     18.014000     -0.929000
C          18.431000     19.438000     -2.442000
C          17.198000     19.094000     -1.782000
C          16.031000     19.969000     -1.826000
C          14.710000     19.526000     -1.753000
C          16.018000     21.403000     -1.939000
N          13.587000     20.207000     -1.660000
N          17.167000     22.119000     -2.051000
C          14.894000     22.150000     -1.847000
C          13.621000     21.551000     -1.671000
S          16.748000     23.663000     -2.115000
N          15.168000     23.482000     -1.848000
C          12.308000     22.281000     -1.527000
S          12.109000     23.986000     -2.136000
C          11.121000     21.718000     -1.166000
C          10.379000     23.937000     -1.697000
S          10.694000     20.107000     -0.792000
C          10.073000     22.618000     -1.298000
C           9.447000     25.054000     -1.687000
C           9.013000     20.609000     -1.012000
C           8.799000     21.964000     -1.146000
N           9.819000     26.135000     -2.340000
S           7.901000     25.138000     -0.787000
C           8.878000     27.132000     -2.246000
C           7.792000     26.740000     -1.513000
C          20.911000     16.938000     -1.576000
H          18.608000     16.453000     -0.140000
H          16.428000     17.741000     -0.350000
H          18.456000     20.333000     -3.061000
H          14.592000     18.446000     -1.676000
H           8.205000     19.892000     -1.077000
H           7.872000     22.489000     -1.346000
H           8.992000     28.068000     -2.777000
H           6.875000     27.279000     -1.314000
H          21.624000     17.697000     -1.231000
C          21.134000     16.170000     -2.882000
H          20.837000     16.138000     -0.829000
H          20.184000     15.980000     -3.397000
H          21.565000     15.174000     -2.718000
C          22.157000     16.889000     -3.795000
H          22.048000     17.980000     -3.778000
C          21.901000     16.476000     -5.271000
H          23.209000     16.734000     -3.526000
H          22.636000     17.027000     -5.870000
H          20.900000     16.779000     -5.603000
C          22.211000     14.993000     -5.538000
H          23.188000     14.917000     -5.046000
C          22.309000     14.488000     -7.002000
H          21.627000     14.283000     -4.939000
H          22.947000     13.629000     -7.245000
H          22.750000     15.266000     -7.637000
H          21.358000     14.158000     -7.438000
$end

--------------------------------------------------------------

             Standard Nuclear Orientation (Angstroms)
    I     Atom           X                Y                Z
 ----------------------------------------------------------------
    1      C     -11.7552486198    -0.5109479744    -1.5578322068
    2      C     -10.7233168500    -0.1922822784    -2.4660986857
    3      N     -11.6259909594    -0.4883707778    -0.2014927480
    4      C      -9.4639162370     0.1736876366    -1.9062887918
    5      C     -10.4109447272    -0.2978109443     0.2849346398
    6      C      -9.2975062907     0.1729799144    -0.5179724630
    7      C      -8.0051067932     0.5203027513     0.0865516355
    8      C      -7.3091881238     1.7147887720    -0.3061840925
    9      C      -7.3667079497    -0.1115705202     1.1969137771
   10      N      -6.0852565966     2.1120463373     0.1064659328
   11      N      -7.8864587439    -1.1276675580     1.8655593646
   12      C      -6.0813519262     0.3204012172     1.7103008736
   13      C      -5.3892525905     1.3621571657     1.0397577703
   14      S      -6.8374410159    -1.5434903881     3.0893249387
   15      N      -5.6978068201    -0.4093047925     2.8080405017
   16      C      -4.0538607004     1.8643022713     1.3218850337
   17      S      -3.4697475519     3.4935867468     0.9428178528
   18      C      -2.9661501046     1.1174483569     1.8604190534
   19      C      -1.7872174595     3.0126497991     1.1469211123
   20      S      -2.8188266925    -0.3816820152     2.6835599525
   21      C      -1.7297132426     1.7562070488     1.7038680400
   22      C      -0.6693993938     3.9054807333     0.7998264639
   23      C      -1.1084733967    -0.3169976683     2.5874478354
   24      C      -0.6785465762     0.9090829655     2.1395748530
   25      N       0.4891024252     3.6355514820     1.3068094368
   26      S      -0.7801815950     5.1906670958    -0.3024930530
   27      C       1.4393700038     4.5139207904     0.9464597637
   28      C       0.9498191873     5.3883867037    -0.0672479676
   29      C     -13.1511148085    -0.9743406761    -1.9945366690
   30      H     -10.9605125994    -0.1838194497    -3.5260079068
   31      H      -8.6193238177     0.4889822439    -2.5131940199
   32      H     -10.3813110118    -0.3610933319     1.3713922700
   33      H      -7.8520092145     2.3343475076    -1.0188110893
   34      H      -0.4959788208    -1.0937243734     3.0272785074
   35      H       0.3388002649     1.2789450715     2.1862163317
   36      H       2.4473003757     4.3134548958     1.2840553657
   37      H       1.5876225533     6.0447005522    -0.6444351111
   38      H     -12.9668740871    -1.5933386602    -2.8810612611
   39      C     -13.9954521590     0.2698979466    -2.4274727940
   40      H     -13.7594051224    -1.5670212177    -1.3007271349
   41      H     -14.8328223271    -0.0418496410    -3.0644269864
   42      H     -13.4258234868     0.9235155076    -3.1005710481
   43      C     -14.3657090128     1.1185231024    -1.2398313468
   44      H     -15.1098261959     0.5768855148    -0.6434419258
   45      C     -14.8684059032     2.5734159315    -1.5576735910
   46      H     -13.6322180615     1.2675318693    -0.4364133909
   47      H     -14.0927988056     3.1584107690    -2.0688249092
   48      H     -15.0231848450     3.0679047597    -0.5910835652
   49      C     -16.1512292406     2.7157886782    -2.4981672306
   50      H     -15.9446896657     2.3498081386    -3.5110007058
   51      C     -16.6837558076     4.1933435095    -2.5470361972
   52      H     -16.8929274495     1.9663242628    -2.1967441774
   53      H     -16.1390132570     4.8375241022    -3.2476594323
   54      H     -16.6051512389     4.5926766800    -1.5284217752
   55      H     -17.7530385559     4.1764904317    -2.7951256531
   56      C       9.6993654306     3.4777183443    -1.4659902443
   57      C       8.3327595632     3.6442193101    -1.2363713608
   58      N      10.3135367869     2.2674596127    -1.4762053149
   59      C       7.5550385648     2.5249570848    -0.9386817246
   60      C       9.4886958665     1.2132044153    -1.2923699683
   61      C       8.1047976515     1.2594837671    -0.8962526216
   62      C       7.3129581785     0.0462535376    -0.7215738908
   63      C       6.2399012148    -0.0747095677     0.1619054128
   64      C       7.4735095481    -1.2080821026    -1.4072555659
   65      N       5.3785913759    -1.0568200524     0.3266578240
   66      N       8.4608095161    -1.3991934851    -2.3205551952
   67      C       6.6165396147    -2.2465367102    -1.2766279996
   68      C       5.5018143252    -2.1793107648    -0.4030295786
   69      S       8.2907532630    -2.8882332472    -2.8839684161
   70      N       6.9132842821    -3.2606081630    -2.1327253604
   71      C       4.4672666371    -3.2588468528    -0.1982909267
   72      S       4.8301922436    -4.9971911090    -0.6031998683
   73      C       3.2988088066    -3.1199789787     0.4884994430
   74      C       3.2360955291    -5.4766102936     0.0425825333
   75      S       2.6241017203    -1.7940768697     1.3277133282
   76      C       2.6558713298    -4.3397087158     0.6454031375
   77      C       2.6023255787    -6.7811147435    -0.0715086144
   78      C       1.5348936693    -2.9605996220     2.0886440018
   79      C       1.5523854764    -4.2353866727     1.5648224558
   80      N       3.3823604461    -7.7849883392    -0.4137620433
   81      S       0.8544087496    -7.1304170596     0.1015423911
   82      C       2.6788111878    -8.9610857897    -0.5144557779
   83      C       1.3547333688    -8.7895676017    -0.2182321454
   84      C      10.6232448705     4.6150192958    -1.8316380613
   85      H       7.9160946171     4.6435625556    -1.3104348499
   86      H       6.4971663301     2.6220249904    -0.7142197973
   87      H       9.9724831872     0.2416504910    -1.3750972329
   88      H       6.0279781334     0.8166076628     0.7508835128
   89      H       0.9202432526    -2.6992911198     2.9401724698
   90      H       1.0198729210    -5.1166102160     1.9036873921
   91      H       3.1748880699    -9.8997050562    -0.7241093006
   92      H       0.5698065102    -9.5318741903    -0.1559284126
   93      H      10.9860448618     4.3838729342    -2.8408072869
   94      C      11.5935874475     4.8693380293    -0.6745096046
   95      H      10.0252260918     5.5343296777    -1.8586002961
   96      H      11.2016130078     4.4653171352     0.2672696454
   97      H      11.7441631562     5.9383936248    -0.4767216128
   98      C      13.0098797288     4.3313853700    -0.9935426911
   99      H      12.9900088424     3.3758713620    -1.5311755849
  100      C      13.7542778019     4.0353334311     0.3379623814
  101      H      13.6163664294     4.9756823344    -1.6417288554
  102      H      14.7369143879     3.6407984346     0.0526652093
  103      H      13.2373745574     3.2633348024     0.9217972494
  104      C      14.0627227138     5.3082702985     1.1449143427
  105      H      14.4721904987     5.9384897940     0.3464605114
  106      C      15.0598654746     5.2336970720     2.3315356590
  107      H      13.1831864468     5.8962486208     1.4358687165
  108      H      15.6417782374     6.1192941925     2.6162623289
  109      H      15.8597481446     4.5188238304     2.1032070302
  110      H      14.6060646220     4.9762415596     3.2965115371
 ----------------------------------------------------------------

   10   -5663.5100706382      3.45E-06 Convergence criterion met
 Total energy in the final basis set = -5663.5100706382

                    Orbital Energies (a.u.)
 --------------------------------------------------------------

 Alpha MOs
 -- Occupied --
-88.992 -88.986 -88.938 -88.931 -88.926 -88.924 -88.917 -88.910
-14.386 -14.380 -14.374 -14.373 -14.349 -14.348 -14.343 -14.341
-14.333 -14.327 -10.272 -10.269 -10.266 -10.264 -10.261 -10.255
-10.252 -10.251 -10.245 -10.245 -10.244 -10.243 -10.240 -10.239
-10.238 -10.233 -10.232 -10.232 -10.231 -10.231 -10.230 -10.229
-10.228 -10.227 -10.226 -10.225 -10.222 -10.220 -10.217 -10.216
-10.216 -10.214 -10.211 -10.207 -10.206 -10.206 -10.200 -10.193
-10.186 -10.185 -10.181 -10.180 -10.178 -10.177 -10.176 -10.173
-10.172 -10.172 -10.171 -10.170  -8.047  -8.041  -7.999  -7.992
 -7.985  -7.981  -7.977  -7.971  -6.012  -6.007  -6.006  -6.005
 -6.000  -5.998  -5.963  -5.960  -5.956  -5.956  -5.952  -5.950
 -5.949  -5.946  -5.946  -5.942  -5.942  -5.942  -5.938  -5.938
 -5.936  -5.933  -5.932  -5.927  -1.046  -1.025  -0.987  -0.969
 -0.967  -0.944  -0.940  -0.938  -0.916  -0.915  -0.898  -0.897
 -0.854  -0.843  -0.840  -0.826  -0.817  -0.814  -0.805  -0.804
 -0.804  -0.801  -0.798  -0.793  -0.783  -0.775  -0.769  -0.761
 -0.750  -0.748  -0.741  -0.737  -0.728  -0.724  -0.712  -0.708
 -0.696  -0.690  -0.676  -0.671  -0.655  -0.647  -0.644  -0.641
 -0.635  -0.631  -0.627  -0.626  -0.615  -0.611  -0.604  -0.604
 -0.598  -0.594  -0.588  -0.587  -0.579  -0.579  -0.559  -0.559
 -0.548  -0.545  -0.543  -0.539  -0.528  -0.522  -0.520  -0.513
 -0.512  -0.507  -0.499  -0.499  -0.488  -0.483  -0.478  -0.476
 -0.475  -0.473  -0.470  -0.460  -0.456  -0.450  -0.447  -0.446
 -0.445  -0.442  -0.440  -0.437  -0.437  -0.433  -0.432  -0.432
 -0.430  -0.425  -0.422  -0.421  -0.420  -0.417  -0.415  -0.415
 -0.413  -0.411  -0.404  -0.403  -0.400  -0.399  -0.398  -0.397
 -0.394  -0.394  -0.392  -0.392  -0.388  -0.388  -0.386  -0.384
 -0.382  -0.382  -0.378  -0.375  -0.372  -0.364  -0.364  -0.362
 -0.356  -0.352  -0.348  -0.348  -0.345  -0.343  -0.342  -0.340
 -0.339  -0.338  -0.332  -0.330  -0.329  -0.324  -0.315  -0.313
 -0.312  -0.306  -0.304  -0.303  -0.301  -0.300  -0.299  -0.294
 -0.294  -0.293  -0.292  -0.291  -0.289  -0.286  -0.284  -0.282
 -0.278  -0.277  -0.269  -0.263  -0.258  -0.254  -0.254  -0.251
 -0.247  -0.245  -0.235  -0.231  -0.194  -0.191

          Ground-State Mulliken Net Atomic Charges

     Atom                 Charge (a.u.)
  ----------------------------------------
      1 C                     0.261801
      2 C                    -0.112081
      3 N                    -0.460556
      4 C                    -0.085212
      5 C                     0.096861
      6 C                     0.025156
      7 C                     0.040544
      8 C                     0.060636
      9 C                     0.226048
     10 N                    -0.513748
     11 N                    -0.577417
     12 C                     0.237062
     13 C                     0.278394
     14 S                     0.598731
     15 N                    -0.569418
     16 C                    -0.230208
     17 S                     0.312548
     18 C                    -0.128342
     19 C                    -0.237463
     20 S                     0.305007
     21 C                     0.169358
     22 C                     0.072633
     23 C                    -0.317004
     24 C                    -0.054647
     25 N                    -0.411196
     26 S                     0.292339
     27 C                     0.119947
     28 C                    -0.321742
     29 C                    -0.220114
     30 H                     0.097698
     31 H                     0.104211
     32 H                     0.113795
     33 H                     0.108708
     34 H                     0.116005
     35 H                     0.123050
     36 H                     0.118934
     37 H                     0.130546
     38 H                     0.091751
     39 C                    -0.182211
     40 H                     0.119181
     41 H                     0.094501
     42 H                     0.089819
     43 C                    -0.177041
     44 H                     0.087722
     45 C                    -0.183149
     46 H                     0.115227
     47 H                     0.089723
     48 H                     0.087646
     49 C                    -0.183005
     50 H                     0.090355
     51 C                    -0.321598
     52 H                     0.091467
     53 H                     0.107487
     54 H                     0.105882
     55 H                     0.102431
     56 C                     0.249197
     57 C                    -0.115872
     58 N                    -0.473327
     59 C                    -0.077366
     60 C                     0.089983
     61 C                     0.041776
     62 C                     0.072478
     63 C                     0.040380
     64 C                     0.200770
     65 N                    -0.521824
     66 N                    -0.553450
     67 C                     0.205393
     68 C                     0.303168
     69 S                     0.615723
     70 N                    -0.563218
     71 C                    -0.226481
     72 S                     0.347880
     73 C                    -0.084526
     74 C                    -0.201816
     75 S                     0.302450
     76 C                     0.102000
     77 C                     0.060383
     78 C                    -0.313676
     79 C                    -0.067828
     80 N                    -0.431626
     81 S                     0.263301
     82 C                     0.134909
     83 C                    -0.307230
     84 C                    -0.215986
     85 H                     0.090200
     86 H                     0.095123
     87 H                     0.116490
     88 H                     0.092331
     89 H                     0.119230
     90 H                     0.115876
     91 H                     0.122316
     92 H                     0.128282
     93 H                     0.124372
     94 C                    -0.173447
     95 H                     0.086004
     96 H                     0.108124
     97 H                     0.098272
     98 C                    -0.181669
     99 H                     0.115565
    100 C                    -0.180995
    101 H                     0.087734
    102 H                     0.083793
    103 H                     0.096287
    104 C                    -0.170808
    105 H                     0.090317
    106 C                    -0.329082
    107 H                     0.089380
    108 H                     0.100854
    109 H                     0.100385
    110 H                     0.102452
  ----------------------------------------
  Sum of atomic charges =     0.000000

                    Cartesian Multipole Moments
 -----------------------------------------------------------------
    Charge (ESU x 10^10)
                 0.0000
    Dipole Moment (Debye)
         X       0.2160      Y       0.1427      Z      -1.3521
       Tot       1.3767
    Quadrupole Moments (Debye-Ang)
        XX    -480.6667     XY      20.4782     YY    -404.9554
        XZ      10.3633     YZ      -8.9021     ZZ    -439.0708

 Total job time:  91.89s(wall), 985.45s(cpu)
        *  Thank you very much for using Q-Chem.  Have a nice day.  *
