 Q-Chem 4.4, Q-Chem, Inc., Pleasanton, CA (2016)
 Q-Chem 4.4.2 for Intel X86 Linux

User input:
--------------------------------------------------------------
$comment
SP
$end

$rem
MEM_STATIC 5000
MEM_TOTAL 20000
JOBTYPE SP
EXCHANGE B3LYP
BASIS 6-31g(d,p)
$end

$molecule
0 1
C          27.418000     30.489000      0.667000
C          26.132000     30.591000      1.281000
N          27.671000     29.632000     -0.297000
C          25.078000     29.781000      0.806000
C          26.662000     28.883000     -0.761000
C          25.332000     28.872000     -0.227000
C          24.325000     27.888000     -0.786000
C          24.727000     26.691000     -1.276000
C          22.912000     28.164000     -0.929000
N          24.056000     25.861000     -1.983000
N          22.313000     29.244000     -0.456000
C          22.143000     27.277000     -1.694000
C          22.717000     26.061000     -2.175000
S          20.757000     29.067000     -0.839000
N          20.839000     27.735000     -1.808000
C          21.923000     25.062000     -3.008000
S          20.164000     24.927000     -3.022000
C          22.528000     24.328000     -4.008000
C          20.343000     23.578000     -4.141000
S          24.158000     24.243000     -4.587000
C          21.640000     23.477000     -4.616000
C          19.285000     23.206000     -5.058000
C          23.677000     23.060000     -5.769000
C          22.339000     22.772000     -5.647000
N          18.430000     24.138000     -5.347000
S          19.088000     21.719000     -5.972000
C          17.733000     23.793000     -6.447000
C          17.794000     22.428000     -6.707000
C          28.530000     31.422000      1.035000
H          26.035000     31.254000      2.135000
H          24.156000     29.713000      1.377000
H          26.857000     28.245000     -1.621000
H          25.758000     26.356000     -1.171000
H          24.405000     22.716000     -6.491000
H          21.844000     22.065000     -6.303000
H          16.957000     24.438000     -6.838000
H          17.368000     21.815000     -7.490000
H          29.209000     31.507000      0.178000
C          29.216000     31.129000      2.387000
H          28.113000     32.419000      1.226000
H          29.349000     30.043000      2.471000
H          28.555000     31.316000      3.243000
C          30.525000     31.818000      2.528000
H          31.317000     31.515000      1.831000
C          31.316000     31.670000      3.911000
H          30.369000     32.839000      2.158000
H          30.514000     31.906000      4.620000
H          32.227000     32.266000      4.044000
C          31.803000     30.179000      4.134000
H          30.889000     29.604000      4.326000
C          32.667000     30.023000      5.402000
H          32.159000     29.770000      3.181000
H          32.715000     29.018000      5.839000
H          32.256000     30.636000      6.214000
H          33.683000     30.376000      5.184000
C          14.308000      7.777000     -3.066000
C          13.109000      8.488000     -2.997000
N          15.553000      8.360000     -3.050000
C          13.190000      9.879000     -2.859000
C          15.577000      9.693000     -2.938000
C          14.486000     10.515000     -2.972000
C          14.599000     12.091000     -3.141000
C          15.553000     12.579000     -4.037000
C          13.792000     13.049000     -2.559000
N          15.742000     13.892000     -4.274000
N          12.769000     12.744000     -1.738000
C          13.883000     14.441000     -2.782000
C          14.895000     14.827000     -3.762000
S          12.128000     14.145000     -1.266000
N          13.044000     15.243000     -2.143000
C          14.916000     16.260000     -4.295000
S          13.642000     17.538000     -4.280000
C          15.970000     16.751000     -4.989000
C          14.623000     18.668000     -5.213000
S          17.615000     16.280000     -5.035000
C          15.752000     18.033000     -5.584000
C          14.343000     20.063000     -5.277000
C          17.904000     17.654000     -6.136000
C          16.837000     18.512000     -6.333000
N          15.349000     20.934000     -5.476000
S          12.810000     20.699000     -4.963000
C          14.883000     22.249000     -5.307000
C          13.534000     22.291000     -5.018000
C          14.205000      6.301000     -3.462000
H          12.211000      7.887000     -3.107000
H          12.289000     10.480000     -2.941000
H          16.523000     10.232000     -2.933000
H          16.094000     11.810000     -4.587000
H          18.888000     17.673000     -6.584000
H          16.966000     19.511000     -6.733000
H          15.622000     23.039000     -5.286000
H          12.896000     23.141000     -4.818000
H          15.184000      5.837000     -3.289000
C          13.797000      6.130000     -4.959000
H          13.520000      5.746000     -2.810000
H          14.609000      6.452000     -5.622000
H          13.012000      6.860000     -5.194000
C          13.510000      4.670000     -5.434000
H          14.427000      4.108000     -5.217000
C          13.109000      4.352000     -6.836000
H          12.718000      4.272000     -4.787000
H          12.020000      4.486000     -6.846000
H          13.324000      3.286000     -6.983000
C          13.835000      5.188000     -7.986000
H          13.361000      6.176000     -7.957000
C          13.602000      4.547000     -9.343000
H          14.897000      5.407000     -7.818000
H          14.211000      3.656000     -9.539000
H          14.043000      5.241000    -10.070000
H          12.522000      4.449000     -9.508000
$end

--------------------------------------------------------------

             Standard Nuclear Orientation (Angstroms)
    I     Atom           X                Y                Z
 ----------------------------------------------------------------
    1      C     -13.6101616894    -1.4886037473    -0.1788159649
    2      C     -13.1268098814    -0.8470382853    -1.3603238098
    3      N     -12.8453925937    -1.7013364866     0.8688609948
    4      C     -11.7959977860    -0.3773344058    -1.3912823696
    5      C     -11.5909036045    -1.2322587711     0.8443360473
    6      C     -10.9748123787    -0.5883917386    -0.2781806990
    7      C      -9.5101278313    -0.2108980529    -0.1946122019
    8      C      -8.6505035754    -0.9392610827     0.5570835048
    9      C      -8.9383797795     0.9681189712    -0.8079775273
   10      N      -7.4616290596    -0.6318375650     0.9191030713
   11      N      -9.5925015711     1.7705580210    -1.6308664949
   12      C      -7.6377138974     1.3361257592    -0.4389324528
   13      C      -6.8577661220     0.4765046406     0.3930687492
   14      S      -8.5238853762     2.8987022575    -2.0604057943
   15      N      -7.2791812656     2.5321185412    -1.0424484985
   16      C      -5.4380232215     0.8289667431     0.8201829758
   17      S      -4.3720475712     1.9466413257    -0.0324608188
   18      C      -4.9563570028     0.4655248254     2.0614277648
   19      C      -3.1341763610     1.5745729246     1.1647204423
   20      S      -5.6473966451    -0.4150038655     3.3829796698
   21      C      -3.6538733373     0.8614916600     2.2321777777
   22      C      -2.0632851247     2.5031169007     1.4641115650
   23      C      -4.1734245749    -0.2169167646     4.2863853576
   24      C      -3.2401311899     0.4655511730     3.5439077676
   25      N      -2.2962343357     3.7482987584     1.1840637008
   26      S      -0.5530623454     2.2107812116     2.3121333818
   27      C      -1.4039965879     4.5335176065     1.8182380947
   28      C      -0.2719146426     3.8324521154     2.2200386002
   29      C     -15.0496480750    -1.8773640167    -0.0402468544
   30      H     -13.7949831579    -0.7995025814    -2.2144776774
   31      H     -11.3625362393    -0.0589281570    -2.3354632571
   32      H     -10.9948883609    -1.3289123027     1.7499258685
   33      H      -8.9591841744    -1.8762709602     1.0185374865
   34      H      -4.1346495428    -0.5696862687     5.3079792954
   35      H      -2.2574904083     0.7007031865     3.9367571341
   36      H      -1.4247096635     5.6086056430     1.6964239652
   37      H       0.6239242960     4.1338308819     2.7463250577
   38      H     -15.3044015504    -1.8888412300     1.0263758251
   39      C     -15.4708034781    -3.1373119313    -0.8273354001
   40      H     -15.6749220693    -1.1141883391    -0.5208447292
   41      H     -14.6777661879    -3.8874424637    -0.7153664724
   42      H     -15.4467439876    -2.9819437274    -1.9135710385
   43      C     -16.7703690117    -3.6931465689    -0.3687939303
   44      H     -16.8049307170    -4.0773310043     0.6588683722
   45      C     -17.3729144406    -4.9555109863    -1.1457425024
   46      H     -17.4372493670    -2.8316242288    -0.2394616086
   47      H     -17.2810114556    -4.6084770195    -2.1814559122
   48      H     -18.3794800364    -5.2919317545    -0.8692054017
   49      C     -16.4719981086    -6.2411247687    -0.9323743570
   50      H     -15.5500218541    -6.0418395364    -1.4919547197
   51      C     -17.0831338724    -7.5038916725    -1.5731464108
   52      H     -16.1296374240    -6.2723007806     0.1087996044
   53      H     -16.3849889481    -8.3144620626    -1.8157722695
   54      H     -17.5315567101    -7.2532810543    -2.5427573001
   55      H     -17.8743553031    -7.8869805179    -0.9161832580
   56      C      12.7547576748    -3.8865356459    -1.0638484680
   57      C      12.8117532079    -2.7018854787    -1.7995375943
   58      N      11.6026518554    -4.4016207453    -0.5184041341
   59      C      11.6075337298    -2.0251346051    -2.0283381699
   60      C      10.4820104401    -3.7074431684    -0.7470726931
   61      C      10.4121415198    -2.4843542148    -1.3522939300
   62      C       9.1054761470    -1.5805989810    -1.3213410472
   63      C       8.3823290510    -1.5292058163    -0.1274009230
   64      C       8.6400778445    -0.7581215484    -2.3286504798
   65      N       7.2627789432    -0.7956045456     0.0284699587
   66      N       9.2677829835    -0.6233339484    -3.5124636244
   67      C       7.5064256480     0.0803653522    -2.2423578687
   68      C       6.8526496156     0.0733014096    -0.9361928714
   69      S       8.3756423854     0.3915606886    -4.3902677192
   70      N       7.1730797790     0.8087148234    -3.2977410122
   71      C       5.7895459861     1.1267301086    -0.6229555026
   72      S       5.4376686431     2.7114982235    -1.4111669953
   73      C       4.9667941897     1.0183183149     0.4470722375
   74      C       4.1857769432     3.1290910855    -0.2414946594
   75      S       4.4680757722    -0.3410664562     1.3599440708
   76      C       4.1691709644     2.1756818409     0.7104728053
   77      C       3.2169114169     4.1459830870    -0.4776116841
   78      C       3.4285454838     0.7617589434     2.3016185992
   79      C       3.3510771747     2.0650456549     1.8445579809
   80      N       2.0059022428     4.0571134539     0.1019027406
   81      S       3.4637655577     5.3994212065    -1.5826623226
   82      C       1.1533096108     5.0455261042    -0.4187393983
   83      C       1.7887266882     5.8465084454    -1.3459709911
   84      C      14.0948966108    -4.4770347791    -0.6151398702
   85      H      13.8104461195    -2.3878060911    -2.0887980420
   86      H      11.6245980694    -1.0344968697    -2.4733906226
   87      H       9.5300529552    -4.0405750494    -0.3368750617
   88      H       8.8314016446    -2.0787481600     0.6989640195
   89      H       2.9751577715     0.3162231422     3.1764091068
   90      H       2.5540196545     2.7353918056     2.1445202249
   91      H       0.1060474041     4.9883758473    -0.1529618248
   92      H       1.4008217156     6.6707203305    -1.9288504819
   93      H      13.9048140513    -5.4843329914    -0.2241348420
   94      C      14.7735058195    -3.6028696510     0.4857864992
   95      H      14.7786515015    -4.6349923191    -1.4576852191
   96      H      14.2127103350    -3.6588751671     1.4265143061
   97      H      14.6553723408    -2.5456441450     0.2162151530
   98      C      16.2171553084    -4.0231588300     0.9086661029
   99      H      16.1309909105    -5.0650933943     1.2414874667
  100      C      16.9912804417    -3.2819978430     1.9473863103
  101      H      16.8323088101    -4.0166956598    -0.0000810549
  102      H      17.4746068685    -2.4649665124     1.3970842387
  103      H      17.7727624285    -3.9686373190     2.2966743495
  104      C      16.1627822185    -2.7593592978     3.2079066970
  105      H      15.6101791539    -1.8874677016     2.8389949225
  106      C      17.0989099688    -2.3373904674     4.3269358035
  107      H      15.3734644764    -3.4297239959     3.5706981984
  108      H      17.5350150485    -3.1673229095     4.8963236336
  109      H      16.4503234385    -1.9001902593     5.0968952120
  110      H      17.7989638112    -1.5870472032     3.9394585738
 ----------------------------------------------------------------

   10   -5663.4594486071      3.52E-06 Convergence criterion met
 Total energy in the final basis set = -5663.4594486071

                    Orbital Energies (a.u.)
 --------------------------------------------------------------

 Alpha MOs
 -- Occupied --
-88.990 -88.987 -88.929 -88.928 -88.924 -88.922 -88.909 -88.908
-14.393 -14.389 -14.385 -14.381 -14.354 -14.344 -14.344 -14.338
-14.335 -14.327 -10.276 -10.267 -10.266 -10.262 -10.258 -10.256
-10.256 -10.255 -10.244 -10.242 -10.241 -10.236 -10.236 -10.233
-10.232 -10.231 -10.227 -10.227 -10.227 -10.227 -10.227 -10.226
-10.226 -10.224 -10.224 -10.223 -10.222 -10.222 -10.220 -10.217
-10.216 -10.209 -10.206 -10.205 -10.202 -10.202 -10.200 -10.198
-10.189 -10.185 -10.183 -10.183 -10.182 -10.182 -10.179 -10.179
-10.177 -10.177 -10.174 -10.173  -8.045  -8.043  -7.992  -7.987
 -7.986  -7.981  -7.970  -7.968  -6.011  -6.008  -6.005  -6.003
 -6.003  -6.001  -5.955  -5.952  -5.951  -5.950  -5.949  -5.948
 -5.947  -5.946  -5.945  -5.943  -5.942  -5.938  -5.934  -5.933
 -5.931  -5.929  -5.926  -5.925  -1.042  -1.040  -0.986  -0.967
 -0.965  -0.954  -0.945  -0.938  -0.919  -0.917  -0.913  -0.902
 -0.851  -0.845  -0.831  -0.828  -0.824  -0.809  -0.809  -0.807
 -0.806  -0.805  -0.797  -0.794  -0.789  -0.779  -0.768  -0.767
 -0.752  -0.747  -0.746  -0.741  -0.731  -0.719  -0.715  -0.709
 -0.699  -0.691  -0.676  -0.675  -0.653  -0.652  -0.648  -0.644
 -0.635  -0.630  -0.626  -0.624  -0.610  -0.607  -0.603  -0.600
 -0.600  -0.595  -0.588  -0.587  -0.584  -0.577  -0.565  -0.555
 -0.554  -0.544  -0.542  -0.538  -0.531  -0.526  -0.518  -0.513
 -0.508  -0.504  -0.500  -0.499  -0.493  -0.488  -0.475  -0.474
 -0.473  -0.470  -0.469  -0.467  -0.463  -0.461  -0.453  -0.450
 -0.444  -0.443  -0.443  -0.440  -0.437  -0.434  -0.431  -0.430
 -0.427  -0.427  -0.425  -0.422  -0.421  -0.420  -0.416  -0.413
 -0.411  -0.407  -0.406  -0.405  -0.402  -0.400  -0.397  -0.397
 -0.397  -0.396  -0.394  -0.393  -0.390  -0.388  -0.387  -0.383
 -0.380  -0.378  -0.375  -0.368  -0.366  -0.364  -0.361  -0.358
 -0.355  -0.354  -0.351  -0.350  -0.348  -0.347  -0.347  -0.343
 -0.340  -0.340  -0.338  -0.335  -0.333  -0.326  -0.324  -0.321
 -0.321  -0.314  -0.309  -0.308  -0.305  -0.304  -0.301  -0.300
 -0.296  -0.295  -0.294  -0.290  -0.287  -0.284  -0.283  -0.280
 -0.272  -0.269  -0.268  -0.263  -0.259  -0.254  -0.250  -0.248
 -0.245  -0.244  -0.236  -0.232  -0.197  -0.192

          Ground-State Mulliken Net Atomic Charges

     Atom                 Charge (a.u.)
  ----------------------------------------
      1 C                     0.282427
      2 C                    -0.124780
      3 N                    -0.481267
      4 C                    -0.064881
      5 C                     0.066382
      6 C                     0.040228
      7 C                     0.062183
      8 C                     0.032763
      9 C                     0.216686
     10 N                    -0.489539
     11 N                    -0.549696
     12 C                     0.213577
     13 C                     0.260521
     14 S                     0.606698
     15 N                    -0.560325
     16 C                    -0.226057
     17 S                     0.372287
     18 C                    -0.102626
     19 C                    -0.229215
     20 S                     0.283317
     21 C                     0.145637
     22 C                     0.040002
     23 C                    -0.301981
     24 C                    -0.083338
     25 N                    -0.388893
     26 S                     0.285590
     27 C                     0.060546
     28 C                    -0.266735
     29 C                    -0.231855
     30 H                     0.090062
     31 H                     0.110484
     32 H                     0.102199
     33 H                     0.106252
     34 H                     0.138687
     35 H                     0.097223
     36 H                     0.108092
     37 H                     0.137245
     38 H                     0.121419
     39 C                    -0.175621
     40 H                     0.104677
     41 H                     0.106608
     42 H                     0.091000
     43 C                    -0.184562
     44 H                     0.096223
     45 C                    -0.187552
     46 H                     0.083557
     47 H                     0.091827
     48 H                     0.094825
     49 C                    -0.176559
     50 H                     0.095827
     51 C                    -0.325009
     52 H                     0.097327
     53 H                     0.103563
     54 H                     0.106094
     55 H                     0.103869
     56 C                     0.249233
     57 C                    -0.093567
     58 N                    -0.476611
     59 C                    -0.071269
     60 C                     0.071376
     61 C                     0.045636
     62 C                     0.045356
     63 C                     0.058695
     64 C                     0.200476
     65 N                    -0.515977
     66 N                    -0.534959
     67 C                     0.237888
     68 C                     0.269857
     69 S                     0.589523
     70 N                    -0.572962
     71 C                    -0.217645
     72 S                     0.297741
     73 C                    -0.080738
     74 C                    -0.237427
     75 S                     0.282867
     76 C                     0.133020
     77 C                     0.078027
     78 C                    -0.311794
     79 C                    -0.030978
     80 N                    -0.460775
     81 S                     0.279790
     82 C                     0.129998
     83 C                    -0.319307
     84 C                    -0.232886
     85 H                     0.099584
     86 H                     0.109287
     87 H                     0.097205
     88 H                     0.121555
     89 H                     0.124044
     90 H                     0.121642
     91 H                     0.129314
     92 H                     0.132404
     93 H                     0.117126
     94 C                    -0.182359
     95 H                     0.101525
     96 H                     0.108653
     97 H                     0.087808
     98 C                    -0.182550
     99 H                     0.093823
    100 C                    -0.174164
    101 H                     0.083014
    102 H                     0.091058
    103 H                     0.096268
    104 C                    -0.182884
    105 H                     0.098918
    106 C                    -0.314571
    107 H                     0.096257
    108 H                     0.105725
    109 H                     0.096451
    110 H                     0.106864
  ----------------------------------------
  Sum of atomic charges =     0.000000

                    Cartesian Multipole Moments
 -----------------------------------------------------------------
    Charge (ESU x 10^10)
                 0.0000
    Dipole Moment (Debye)
         X       1.9005      Y       3.4106      Z      -1.3115
       Tot       4.1187
    Quadrupole Moments (Debye-Ang)
        XX    -413.1608     XY       9.4457     YY    -441.6217
        XZ      14.0804     YZ      -5.6371     ZZ    -424.0260

 Total job time:  92.07s(wall), 975.20s(cpu)
        *  Thank you very much for using Q-Chem.  Have a nice day.  *
