 Q-Chem 4.4, Q-Chem, Inc., Pleasanton, CA (2016)
 Q-Chem 4.4.2 for Intel X86 Linux

User input:
--------------------------------------------------------------
$comment
SP
$end

$rem
MEM_STATIC 5000
MEM_TOTAL 20000
JOBTYPE SP
EXCHANGE B3LYP
BASIS 6-31g(d,p)
$end

$molecule
0 1
C          11.427000     11.518000      1.449000
C          10.377000     11.744000      0.525000
N          11.340000     11.901000      2.782000
C           9.201000     12.327000      0.957000
C          10.222000     12.398000      3.228000
C           9.093000     12.593000      2.372000
C           7.810000     12.947000      3.021000
C           6.889000     13.748000      2.305000
C           7.274000     12.284000      4.159000
N           5.629000     14.095000      2.743000
N           7.806000     11.252000      4.756000
C           6.036000     12.648000      4.635000
C           5.235000     13.575000      3.934000
S           6.713000     10.669000      5.770000
N           5.630000     11.805000      5.639000
C           3.943000     14.128000      4.487000
S           2.557000     14.603000      3.388000
C           3.673000     14.310000      5.762000
C           1.525000     15.028000      4.776000
S           4.542000     14.133000      7.210000
C           2.372000     14.927000      5.858000
C           0.189000     15.642000      4.630000
C           3.183000     14.999000      7.983000
C           2.062000     15.206000      7.225000
N          -0.502000     15.355000      3.554000
S          -0.634000     16.641000      5.825000
C          -1.663000     16.039000      3.487000
C          -1.789000     17.002000      4.520000
C          12.736000     10.896000      1.138000
H          10.531000     11.496000     -0.522000
H           8.435000     12.553000      0.221000
H          10.117000     12.579000      4.297000
H           7.166000     14.012000      1.285000
H           3.173000     15.252000      9.034000
H           1.167000     15.584000      7.705000
H          -2.275000     15.824000      2.621000
H          -2.598000     17.650000      4.830000
H          13.040000     11.155000      0.116000
C          12.669000      9.360000      1.154000
H          13.524000     11.152000      1.858000
H          11.911000      8.914000      0.498000
H          12.332000      9.090000      2.163000
C          14.051000      8.662000      0.977000
H          14.646000      9.175000      0.211000
C          13.822000      7.226000      0.468000
H          14.655000      8.683000      1.893000
H          13.445000      7.268000     -0.561000
H          13.146000      6.589000      1.051000
C          15.136000      6.506000      0.316000
H          15.753000      6.975000     -0.460000
C          14.937000      5.090000     -0.092000
H          15.739000      6.542000      1.232000
H          15.877000      4.523000     -0.093000
H          14.435000      4.958000     -1.059000
H          14.275000      4.594000      0.628000
C          14.308000      7.777000     -3.066000
C          13.109000      8.488000     -2.997000
N          15.553000      8.360000     -3.050000
C          13.190000      9.879000     -2.859000
C          15.577000      9.693000     -2.938000
C          14.486000     10.515000     -2.972000
C          14.599000     12.091000     -3.141000
C          15.553000     12.579000     -4.037000
C          13.792000     13.049000     -2.559000
N          15.742000     13.892000     -4.274000
N          12.769000     12.744000     -1.738000
C          13.883000     14.441000     -2.782000
C          14.895000     14.827000     -3.762000
S          12.128000     14.145000     -1.266000
N          13.044000     15.243000     -2.143000
C          14.916000     16.260000     -4.295000
S          13.642000     17.538000     -4.280000
C          15.970000     16.751000     -4.989000
C          14.623000     18.668000     -5.213000
S          17.615000     16.280000     -5.035000
C          15.752000     18.033000     -5.584000
C          14.343000     20.063000     -5.277000
C          17.904000     17.654000     -6.136000
C          16.837000     18.512000     -6.333000
N          15.349000     20.934000     -5.476000
S          12.810000     20.699000     -4.963000
C          14.883000     22.249000     -5.307000
C          13.534000     22.291000     -5.018000
C          14.205000      6.301000     -3.462000
H          12.211000      7.887000     -3.107000
H          12.289000     10.480000     -2.941000
H          16.523000     10.232000     -2.933000
H          16.094000     11.810000     -4.587000
H          18.888000     17.673000     -6.584000
H          16.966000     19.511000     -6.733000
H          15.622000     23.039000     -5.286000
H          12.896000     23.141000     -4.818000
H          15.184000      5.837000     -3.289000
C          13.797000      6.130000     -4.959000
H          13.520000      5.746000     -2.810000
H          14.609000      6.452000     -5.622000
H          13.012000      6.860000     -5.194000
C          13.510000      4.670000     -5.434000
H          14.427000      4.108000     -5.217000
C          13.109000      4.352000     -6.836000
H          12.718000      4.272000     -4.787000
H          12.020000      4.486000     -6.846000
H          13.324000      3.286000     -6.983000
C          13.835000      5.188000     -7.986000
H          13.361000      6.176000     -7.957000
C          13.602000      4.547000     -9.343000
H          14.897000      5.407000     -7.818000
H          14.211000      3.656000     -9.539000
H          14.043000      5.241000    -10.070000
H          12.522000      4.449000     -9.508000
$end

--------------------------------------------------------------

             Standard Nuclear Orientation (Angstroms)
    I     Atom           X                Y                Z
 ----------------------------------------------------------------
    1      C       0.1087306354    -1.9095463085    -1.8218489124
    2      C       0.3788768708    -1.5420500058    -0.4804617651
    3      N       1.0486168983    -1.7677354478    -2.8355798888
    4      C       1.6301970659    -1.0630027123    -0.1425261797
    5      C       2.2530343315    -1.3748584688    -2.5341245423
    6      C       2.6227366633    -1.0510849432    -1.1910337449
    7      C       4.0632056739    -0.8372515952    -0.9228354432
    8      C       4.4328469902     0.0618667315     0.1054882081
    9      C       5.1018648957    -1.6981685989    -1.3721882375
   10      N       5.7239843438     0.3061890986     0.5215698286
   11      N       4.9318266714    -2.8101128355    -2.0348525696
   12      C       6.4015574462    -1.4434199320    -1.0012187094
   13      C       6.7029217873    -0.4209562569    -0.0759735704
   14      S       6.3355740570    -3.5795654114    -2.0478913816
   15      N       7.2342729801    -2.4559128117    -1.4073517023
   16      C       8.1154310241     0.0054571057     0.2463171373
   17      S       8.5684843340     0.6433043524     1.9023109743
   18      C       9.1366042994    -0.0433848716    -0.5822168711
   19      C      10.2805350230     0.8014873597     1.4374953392
   20      S       9.3372843849    -0.4574851238    -2.2166716684
   21      C      10.2810402873     0.5260336868     0.0875105175
   22      C      11.3019243575     1.4098288094     2.3149305265
   23      C      10.9764877279     0.2373632076    -2.0599419759
   24      C      11.4021345784     0.5558909646    -0.7984274787
   25      N      11.1363828088     1.3048259696     3.6107686334
   26      S      12.8030376547     2.1702768912     1.7936507707
   27      C      12.0795670259     1.9710554491     4.3084847744
   28      C      12.9353594857     2.7357821689     3.4759306861
   29      C      -1.1756332276    -2.4460488222    -2.3314178677
   30      H      -0.4192941587    -1.6000455136     0.2550574588
   31      H       1.7964640706    -0.7238735124     0.8757442504
   32      H       3.0185744756    -1.3858793661    -3.3089624785
   33      H       3.6190122469     0.5051258773     0.6782179353
   34      H      11.6660638885     0.3019142307    -2.8900190110
   35      H      12.4399951897     0.8292816021    -0.6487213965
   36      H      11.9916271298     1.9013768926     5.3846522676
   37      H      13.8345033595     3.3061620304     3.6674825268
   38      H      -2.0122628654    -2.0069228772    -1.7735646130
   39      C      -1.3028207360    -3.9619277926    -2.1078663418
   40      H      -1.3095422013    -2.3075506276    -3.4120503847
   41      H      -1.1759432381    -4.2981937785    -1.0712163106
   42      H      -0.4499985294    -4.4101368943    -2.6335591086
   43      C      -2.5701979116    -4.5955601105    -2.7564973465
   44      H      -3.4427732506    -3.9465850691    -2.6102315834
   45      C      -2.8844596329    -5.9235515960    -2.0414475685
   46      H      -2.4689764221    -4.7257476375    -3.8414482292
   47      H      -3.2239473601    -5.7078490776    -1.0211757877
   48      H      -2.0776193192    -6.6638058300    -1.9808969505
   49      C      -4.0863260978    -6.5843273829    -2.6635346685
   50      H      -4.9875714770    -5.9765538091    -2.5179529060
   51      C      -4.3588645529    -7.9098590971    -2.0472478318
   52      H      -3.9824827313    -6.6997656360    -3.7497443927
   53      H      -5.1583389014    -8.4525753857    -2.5681986895
   54      H      -4.5844342677    -7.8783373575    -0.9736363175
   55      H      -3.4607102650    -8.5351186592    -2.1181657786
   56      C      -5.3815004870    -4.7534679085     0.2876389772
   57      C      -4.3213217757    -4.0851293781     0.9018276364
   58      N      -6.2654609786    -4.1621986634    -0.5836729813
   59      C      -4.1274978097    -2.7387659997     0.5698277515
   60      C      -6.0506633541    -2.8692928243    -0.8524953612
   61      C      -5.1243550883    -2.0718734088    -0.2415974382
   62      C      -5.1226449872    -0.4890396550    -0.3820979120
   63      C      -6.3572223209     0.1639483686    -0.3597048731
   64      C      -4.0184993389     0.3388209342    -0.4390736300
   65      N      -6.4889284957     1.5010526304    -0.4629747945
   66      N      -2.7543137969    -0.1219930654    -0.3835725197
   67      C      -4.0558053117     1.7496454450    -0.5011740636
   68      C      -5.3999270834     2.3179011936    -0.4382291114
   69      S      -1.7924930423     1.1639262236    -0.5169082540
   70      N      -2.9107526511     2.4134289483    -0.5619347836
   71      C      -5.5698170519     3.8223194064    -0.2240277117
   72      S      -4.4151106738     5.0570481018     0.4073859635
   73      C      -6.7565260851     4.4444541042    -0.4197394597
   74      C      -5.6145156002     6.3489262928     0.3601783148
   75      S      -8.1188435539     4.0155622637    -1.3632037692
   76      C      -6.7980174904     5.8072311825     0.0117580467
   77      C      -5.2652661689     7.7288009516     0.4100958540
   78      C      -8.8555087152     5.5658686494    -0.8758922153
   79      C      -8.0442980011     6.4277024796    -0.1599022528
   80      N      -6.0615168944     8.6373999226    -0.1821124641
   81      S      -3.8035869103     8.2749258470     1.0569515905
   82      C      -5.4336007277     9.8946438559    -0.1831022498
   83      C      -4.2032223852     9.8634238927     0.4416220480
   84      C      -5.7284525880    -6.1386094048     0.8417222514
   85      H      -3.7669066680    -4.6720036025     1.6284000919
   86      H      -3.4054727943    -2.1473917110     1.1254196230
   87      H      -6.7149446892    -2.3242552812    -1.5211704576
   88      H      -7.2119833563    -0.4877931036    -0.1831868128
   89      H      -9.8937218129     5.6791022623    -1.1562718021
   90      H      -8.2690308891     7.4833308202    -0.0609783651
   91      H      -5.8965323941    10.6805941944    -0.7650286520
   92      H      -3.4799448977    10.6547113208     0.5840224771
   93      H      -6.4377733515    -6.6098208170     0.1499926370
   94      C      -6.3598550151    -6.0509986043     2.2666325372
   95      H      -4.8618206222    -6.8103932568     0.8448031806
   96      H      -7.3604774185    -5.6045832433     2.2211888192
   97      H      -5.8066449962    -5.3039257715     2.8498913627
   98      C      -6.6110362701    -7.4095186021     2.9952788112
   99      H      -7.2570913948    -7.9859203489     2.3213383078
  100      C      -7.2071464051    -7.4831578289     4.3615726929
  101      H      -5.6451860538    -7.9276152579     3.0499250822
  102      H      -6.3522132878    -7.3671591023     5.0395186055
  103      H      -7.5961179453    -8.5032235621     4.4727349201
  104      C      -8.3793056030    -6.4467596495     4.6784222292
  105      H      -7.8721081469    -5.4869790119     4.8308455480
  106      C      -9.1176136190    -6.8435170744     5.9449544315
  107      H      -9.0720298287    -6.2434261148     3.8520944366
  108      H      -9.8209687065    -7.6763353470     5.8229571131
  109      H      -9.8243227331    -6.0257092599     6.1357386201
  110      H      -8.3941779548    -6.9285603812     6.7650992210
 ----------------------------------------------------------------

   10   -5663.4668813934      5.63E-06 Convergence criterion met
 Total energy in the final basis set = -5663.4668813934

                    Orbital Energies (a.u.)
 --------------------------------------------------------------

 Alpha MOs
 -- Occupied --
-88.994 -88.989 -88.930 -88.926 -88.922 -88.915 -88.911 -88.908
-14.394 -14.388 -14.382 -14.372 -14.355 -14.353 -14.344 -14.341
-14.338 -14.326 -10.277 -10.271 -10.268 -10.263 -10.260 -10.258
-10.252 -10.251 -10.244 -10.244 -10.238 -10.238 -10.237 -10.236
-10.235 -10.234 -10.234 -10.234 -10.234 -10.232 -10.230 -10.229
-10.227 -10.226 -10.225 -10.225 -10.224 -10.224 -10.223 -10.222
-10.220 -10.217 -10.210 -10.207 -10.204 -10.203 -10.201 -10.194
-10.192 -10.188 -10.183 -10.180 -10.179 -10.174 -10.174 -10.174
-10.173 -10.167 -10.161 -10.161  -8.050  -8.044  -7.992  -7.987
 -7.981  -7.976  -7.969  -7.969  -6.015  -6.009  -6.009  -6.008
 -6.004  -6.002  -5.956  -5.953  -5.951  -5.950  -5.948  -5.946
 -5.944  -5.942  -5.941  -5.938  -5.937  -5.934  -5.933  -5.932
 -5.930  -5.930  -5.926  -5.925  -1.058  -1.044  -0.971  -0.965
 -0.955  -0.949  -0.944  -0.938  -0.918  -0.914  -0.913  -0.908
 -0.844  -0.839  -0.831  -0.831  -0.813  -0.811  -0.810  -0.807
 -0.806  -0.802  -0.801  -0.797  -0.791  -0.789  -0.770  -0.769
 -0.753  -0.748  -0.747  -0.741  -0.719  -0.716  -0.715  -0.710
 -0.700  -0.691  -0.676  -0.674  -0.655  -0.654  -0.651  -0.646
 -0.637  -0.630  -0.626  -0.623  -0.612  -0.610  -0.604  -0.602
 -0.597  -0.592  -0.591  -0.583  -0.573  -0.571  -0.568  -0.556
 -0.554  -0.546  -0.541  -0.539  -0.531  -0.529  -0.520  -0.514
 -0.509  -0.508  -0.505  -0.499  -0.497  -0.485  -0.478  -0.476
 -0.474  -0.473  -0.471  -0.469  -0.468  -0.465  -0.452  -0.447
 -0.444  -0.441  -0.440  -0.436  -0.433  -0.431  -0.430  -0.428
 -0.427  -0.426  -0.424  -0.423  -0.422  -0.420  -0.416  -0.415
 -0.411  -0.410  -0.406  -0.406  -0.401  -0.400  -0.399  -0.398
 -0.397  -0.396  -0.394  -0.392  -0.390  -0.389  -0.386  -0.385
 -0.383  -0.377  -0.372  -0.371  -0.366  -0.366  -0.362  -0.358
 -0.357  -0.353  -0.351  -0.347  -0.346  -0.344  -0.342  -0.341
 -0.339  -0.336  -0.332  -0.331  -0.327  -0.325  -0.324  -0.323
 -0.313  -0.312  -0.309  -0.309  -0.304  -0.302  -0.298  -0.296
 -0.295  -0.295  -0.291  -0.290  -0.289  -0.288  -0.283  -0.282
 -0.279  -0.274  -0.271  -0.269  -0.264  -0.254  -0.251  -0.246
 -0.246  -0.238  -0.236  -0.227  -0.196  -0.194

          Ground-State Mulliken Net Atomic Charges

     Atom                 Charge (a.u.)
  ----------------------------------------
      1 C                     0.265475
      2 C                    -0.135913
      3 N                    -0.477632
      4 C                    -0.059907
      5 C                     0.117468
      6 C                     0.001132
      7 C                     0.032940
      8 C                     0.049001
      9 C                     0.234772
     10 N                    -0.495184
     11 N                    -0.553315
     12 C                     0.178358
     13 C                     0.254658
     14 S                     0.619917
     15 N                    -0.519194
     16 C                    -0.229040
     17 S                     0.305508
     18 C                    -0.039599
     19 C                    -0.185833
     20 S                     0.276499
     21 C                     0.078416
     22 C                     0.052671
     23 C                    -0.296023
     24 C                    -0.080389
     25 N                    -0.405447
     26 S                     0.258978
     27 C                     0.119633
     28 C                    -0.313855
     29 C                    -0.237888
     30 H                     0.103653
     31 H                     0.106018
     32 H                     0.111725
     33 H                     0.106270
     34 H                     0.115885
     35 H                     0.118871
     36 H                     0.120012
     37 H                     0.130442
     38 H                     0.126441
     39 C                    -0.186775
     40 H                     0.117694
     41 H                     0.088325
     42 H                     0.105226
     43 C                    -0.179612
     44 H                     0.098167
     45 C                    -0.172637
     46 H                     0.095379
     47 H                     0.090668
     48 H                     0.086238
     49 C                    -0.180273
     50 H                     0.107652
     51 C                    -0.319724
     52 H                     0.085607
     53 H                     0.094615
     54 H                     0.095182
     55 H                     0.091150
     56 C                     0.255830
     57 C                    -0.093539
     58 N                    -0.477647
     59 C                    -0.075217
     60 C                     0.068888
     61 C                     0.046775
     62 C                     0.045356
     63 C                     0.059390
     64 C                     0.212769
     65 N                    -0.515850
     66 N                    -0.558877
     67 C                     0.232912
     68 C                     0.271234
     69 S                     0.598893
     70 N                    -0.570683
     71 C                    -0.218045
     72 S                     0.296726
     73 C                    -0.081042
     74 C                    -0.234048
     75 S                     0.280028
     76 C                     0.133758
     77 C                     0.074314
     78 C                    -0.309049
     79 C                    -0.040823
     80 N                    -0.448067
     81 S                     0.284212
     82 C                     0.125215
     83 C                    -0.314328
     84 C                    -0.233797
     85 H                     0.103211
     86 H                     0.109515
     87 H                     0.100847
     88 H                     0.121656
     89 H                     0.125554
     90 H                     0.137364
     91 H                     0.123208
     92 H                     0.132930
     93 H                     0.122834
     94 C                    -0.186051
     95 H                     0.107973
     96 H                     0.109170
     97 H                     0.086843
     98 C                    -0.182747
     99 H                     0.094816
    100 C                    -0.174404
    101 H                     0.083833
    102 H                     0.091320
    103 H                     0.097083
    104 C                    -0.183040
    105 H                     0.098749
    106 C                    -0.314718
    107 H                     0.096222
    108 H                     0.106120
    109 H                     0.096834
    110 H                     0.107190
  ----------------------------------------
  Sum of atomic charges =     0.000000

                    Cartesian Multipole Moments
 -----------------------------------------------------------------
    Charge (ESU x 10^10)
                 0.0000
    Dipole Moment (Debye)
         X       1.8369      Y       1.5352      Z       1.7700
       Tot       2.9772
    Quadrupole Moments (Debye-Ang)
        XX    -405.4671     XY       1.0134     YY    -408.7447
        XZ     -15.2559     YZ      -4.5945     ZZ    -446.1712

 Total job time:  99.84s(wall), 1094.93s(cpu)
        *  Thank you very much for using Q-Chem.  Have a nice day.  *
