 Q-Chem 4.4, Q-Chem, Inc., Pleasanton, CA (2016)
 Q-Chem 4.4.2 for Intel X86 Linux

User input:
--------------------------------------------------------------
$comment
SP
$end

$rem
MEM_STATIC 5000
MEM_TOTAL 20000
JOBTYPE SP
EXCHANGE B3LYP
BASIS 6-31g(d,p)
$end

$molecule
0 1
C           1.881000     19.603000     10.990000
C           3.262000     19.890000     11.033000
N           1.274000     18.867000     10.017000
C           4.061000     19.367000      9.974000
C           2.009000     18.528000      8.971000
C           3.456000     18.636000      8.947000
C           4.249000     18.107000      7.830000
C           5.451000     17.358000      8.074000
C           3.897000     18.088000      6.446000
N           6.313000     16.885000      7.147000
N           2.753000     18.551000      5.970000
C           4.766000     17.536000      5.425000
C           6.051000     17.064000      5.799000
S           2.736000     18.317000      4.322000
N           4.190000     17.589000      4.180000
C           7.107000     16.580000      4.924000
S           8.389000     15.450000      5.392000
C           7.349000     16.994000      3.582000
C           9.360000     15.859000      3.980000
S           6.436000     17.826000      2.390000
C           8.615000     16.623000      3.112000
C          10.737000     15.368000      3.807000
C           7.801000     17.938000      1.359000
C           8.844000     17.174000      1.825000
N          11.237000     15.402000      2.615000
S          11.740000     14.868000      5.081000
C          12.489000     14.919000      2.555000
C          12.998000     14.692000      3.867000
C           0.876000     20.133000     12.021000
H           3.644000     20.434000     11.892000
H           5.141000     19.483000      9.939000
H           1.435000     18.002000      8.210000
H           5.661000     17.181000      9.128000
H           7.725000     18.398000      0.382000
H           9.732000     16.906000      1.265000
H          12.992000     14.975000      1.599000
H          14.041000     14.491000      4.073000
H           1.237000     21.141000     12.259000
C           0.958000     19.260000     13.317000
H          -0.181000     20.220000     11.742000
H           0.539000     19.807000     14.171000
H           1.999000     19.108000     13.630000
C           0.389000     17.885000     13.086000
H          -0.699000     17.972000     12.979000
C           0.751000     16.796000     14.160000
H           0.578000     17.379000     12.130000
H           1.835000     16.629000     14.206000
H           0.321000     15.852000     13.804000
C           0.335000     17.093000     15.673000
H           0.879000     17.957000     16.073000
C           0.542000     15.839000     16.597000
H          -0.678000     17.513000     15.683000
H           1.575000     15.708000     16.941000
H           0.223000     14.963000     16.019000
H          -0.140000     15.914000     17.454000
C          14.308000      7.777000     -3.066000
C          13.109000      8.488000     -2.997000
N          15.553000      8.360000     -3.050000
C          13.190000      9.879000     -2.859000
C          15.577000      9.693000     -2.938000
C          14.486000     10.515000     -2.972000
C          14.599000     12.091000     -3.141000
C          15.553000     12.579000     -4.037000
C          13.792000     13.049000     -2.559000
N          15.742000     13.892000     -4.274000
N          12.769000     12.744000     -1.738000
C          13.883000     14.441000     -2.782000
C          14.895000     14.827000     -3.762000
S          12.128000     14.145000     -1.266000
N          13.044000     15.243000     -2.143000
C          14.916000     16.260000     -4.295000
S          13.642000     17.538000     -4.280000
C          15.970000     16.751000     -4.989000
C          14.623000     18.668000     -5.213000
S          17.615000     16.280000     -5.035000
C          15.752000     18.033000     -5.584000
C          14.343000     20.063000     -5.277000
C          17.904000     17.654000     -6.136000
C          16.837000     18.512000     -6.333000
N          15.349000     20.934000     -5.476000
S          12.810000     20.699000     -4.963000
C          14.883000     22.249000     -5.307000
C          13.534000     22.291000     -5.018000
C          14.205000      6.301000     -3.462000
H          12.211000      7.887000     -3.107000
H          12.289000     10.480000     -2.941000
H          16.523000     10.232000     -2.933000
H          16.094000     11.810000     -4.587000
H          18.888000     17.673000     -6.584000
H          16.966000     19.511000     -6.733000
H          15.622000     23.039000     -5.286000
H          12.896000     23.141000     -4.818000
H          15.184000      5.837000     -3.289000
C          13.797000      6.130000     -4.959000
H          13.520000      5.746000     -2.810000
H          14.609000      6.452000     -5.622000
H          13.012000      6.860000     -5.194000
C          13.510000      4.670000     -5.434000
H          14.427000      4.108000     -5.217000
C          13.109000      4.352000     -6.836000
H          12.718000      4.272000     -4.787000
H          12.020000      4.486000     -6.846000
H          13.324000      3.286000     -6.983000
C          13.835000      5.188000     -7.986000
H          13.361000      6.176000     -7.957000
C          13.602000      4.547000     -9.343000
H          14.897000      5.407000     -7.818000
H          14.211000      3.656000     -9.539000
H          14.043000      5.241000    -10.070000
H          12.522000      4.449000     -9.508000
$end

--------------------------------------------------------------

             Standard Nuclear Orientation (Angstroms)
    I     Atom           X                Y                Z
 ----------------------------------------------------------------
    1      C     -13.2532292749    -0.5481747871     0.3215770491
    2      C     -12.5385752977    -1.0574923115    -0.7835222008
    3      N     -12.6816321524     0.0625005694     1.3973215999
    4      C     -11.1199368525    -0.9163545834    -0.7526012778
    5      C     -11.3612992641     0.0405875490     1.4715030231
    6      C     -10.5078072466    -0.3221503582     0.3552496528
    7      C      -9.0473988106    -0.1863367710     0.4269495089
    8      C      -8.3082953450     0.3744312918    -0.6705960468
    9      C      -8.2094135669    -0.3961995672     1.5642530472
   10      N      -6.9651515877     0.4840682689    -0.7708286781
   11      N      -8.6608685376    -0.7406153478     2.7589275550
   12      C      -6.7696571484    -0.2314846167     1.5165409886
   13      C      -6.1545831853     0.0754914882     0.2750359782
   14      S      -7.3649378330    -0.8577161423     3.7970990306
   15      N      -6.1899964599    -0.4422020640     2.7429999743
   16      C      -4.7316729678     0.1725718687    -0.0094265196
   17      S      -4.0095364114     1.1327301437    -1.3117563092
   18      C      -3.6885587093    -0.5492150628     0.6400811936
   19      C      -2.4765573982     0.2732165746    -1.1889647391
   20      S      -3.5630330367    -1.4390818791     2.1026260151
   21      C      -2.4762590567    -0.5128430958    -0.0601356529
   22      C      -1.3890018226     0.4677605782    -2.1618545070
   23      C      -2.0006180098    -2.0022043082     1.6777937971
   24      C      -1.5197879989    -1.3526177141     0.5662449869
   25      N      -0.2009560985     0.0976791312    -1.8102765213
   26      S      -1.6132140928     1.0396461608    -3.7435500334
   27      C       0.7245258154     0.3301221872    -2.7557110524
   28      C       0.1018383057     0.7340059995    -3.9727123389
   29      C     -14.7758043958    -0.6657762601     0.4692960212
   30      H     -13.1062935474    -1.4678823644    -1.6135926758
   31      H     -10.4797010341    -1.2247162980    -1.5748495066
   32      H     -10.9871266433     0.4878678154     2.3908550847
   33      H      -8.9288882047     0.7286259918    -1.4926396083
   34      H      -1.4352608442    -2.6360097389     2.3490366380
   35      H      -0.4937187782    -1.3678727645     0.2185134270
   36      H       1.7304707125    -0.0122173355    -2.5533264795
   37      H       0.6248811633     0.7875531037    -4.9183575561
   38      H     -15.0147191763    -1.6489014720     0.0457236598
   39      C     -15.4652264428     0.4310805494    -0.4082410894
   40      H     -15.2210565078    -0.6224947510     1.4705633520
   41      H     -16.5087675224     0.1572615728    -0.6085687791
   42      H     -15.0374130385     0.4602542189    -1.4186264556
   43      C     -15.2556807843     1.8051953896     0.1711085659
   44      H     -15.8491075184     1.8899407657     1.0894902581
   45      C     -15.5514163439     3.0142208397    -0.7887033634
   46      H     -14.2839298086     2.0585543593     0.6151831922
   47      H     -14.8925525542     2.9943569036    -1.6665216423
   48      H     -15.2822806114     3.9231686104    -0.2372036739
   49      C     -17.0216086102     3.1183950339    -1.4036150948
   50      H     -17.2339205128     2.2756228975    -2.0722635691
   51      C     -17.2518640050     4.4819138453    -2.1498991587
   52      H     -17.7493421506     2.8941592828    -0.6144438699
   53      H     -16.8579340366     4.4987828015    -3.1731882764
   54      H     -16.7676202860     5.2594791296    -1.5464745576
   55      H     -18.3259568180     4.7088996960    -2.1496698330
   56      C       7.9991896621     5.7039992385    -0.7275894202
   57      C       7.0363332470     5.2448184525     0.1723792068
   58      N       8.5720637867     4.9281432844    -1.7074020431
   59      C       6.6008302574     3.9214336404     0.0328235360
   60      C       8.1379289778     3.6651045550    -1.7865799167
   61      C       7.2869470315     3.0586284472    -0.9061610064
   62      C       7.0514469837     1.4873661233    -0.8782247000
   63      C       8.1637527733     0.6629183716    -1.0629886980
   64      C       5.8687623242     0.8292710332    -0.6027163541
   65      N       8.0967632029    -0.6829235707    -1.0539962718
   66      N       4.7217656837     1.4740750764    -0.3159735208
   67      C       5.7110679066    -0.5724428185    -0.5252260416
   68      C       6.9492140651    -1.3265390212    -0.7037561711
   69      S       3.6002258498     0.3376751575    -0.0986957599
   70      N       4.5088980462    -1.0629206843    -0.2612845898
   71      C       6.9721448843    -2.8203451186    -0.3781236773
   72      S       5.8503070710    -3.8231098249     0.6181332497
   73      C       7.9911452295    -3.6229100875    -0.7669176678
   74      C       6.8313014446    -5.2776194197     0.4398024409
   75      S       9.1377004958    -3.4680146735    -2.0284248743
   76      C       7.9591941200    -4.9425237158    -0.2167613276
   77      C       6.3311876662    -6.5838384360     0.7085013247
   78      C       9.7650646439    -5.0710454962    -1.5590589111
   79      C       9.0414574508    -5.7505029325    -0.5956315800
   80      N       6.8446072645    -7.6398472290     0.0515966549
   81      S       5.0045076076    -6.8609689401     1.7166182355
   82      C       6.0795427218    -8.7876804614     0.3201057162
   83      C       5.0439158111    -8.5309209085     1.1956840586
   84      C       8.6392255071     7.0589701889    -0.4107158796
   85      H       6.7466360586     5.9574333039     0.9391651043
   86      H       5.9599528660     3.4841679795     0.7929557027
   87      H       8.5523936217     2.9817185723    -2.5259476585
   88      H       9.1117059510     1.1925655852    -1.1490154499
   89      H      10.6857111046    -5.3557625865    -2.0496374195
   90      H       9.1472239056    -6.8179069764    -0.4403767440
   91      H       6.2896682747    -9.6728561277    -0.2655335003
   92      H       4.2796750377    -9.1947806910     1.5761708907
   93      H       9.2207169759     7.3698261133    -1.2875866033
   94      C       9.5704257160     6.9814794387     0.8397141882
   95      H       7.8899199935     7.8495766219    -0.2848718676
   96      H      10.4675680705     6.3904276276     0.6197361156
   97      H       9.0789761065     6.3677272437     1.6053090709
   98      C      10.1556580232     8.3367878303     1.3498478084
   99      H      10.6936909612     8.7620069394     0.4933834093
  100      C      11.0595834421     8.4193749289     2.5345955487
  101      H       9.3032866638     8.9940888319     1.5636127702
  102      H      10.3796087200     8.4794008296     3.3936696250
  103      H      11.5900330082     9.3763172000     2.4504840298
  104      C      12.1320191485     7.2469587250     2.6888482654
  105      H      11.5570061483     6.3857648975     3.0485234537
  106      C      13.1906579185     7.6202140969     3.7118748447
  107      H      12.5803537132     6.8851921170     1.7549585291
  108      H      13.9457474953     8.3294388235     3.3512947313
  109      H      13.8126888802     6.7229869584     3.8245999287
  110      H      12.6962564810     7.8693697544     4.6588266264
 ----------------------------------------------------------------

   10   -5663.4958335076      4.76E-06 Convergence criterion met
 Total energy in the final basis set = -5663.4958335076

                    Orbital Energies (a.u.)
 --------------------------------------------------------------

 Alpha MOs
 -- Occupied --
-88.988 -88.985 -88.937 -88.930 -88.926 -88.922 -88.909 -88.908
-14.394 -14.386 -14.386 -14.372 -14.355 -14.348 -14.344 -14.341
-14.336 -14.327 -10.277 -10.268 -10.268 -10.264 -10.260 -10.260
-10.257 -10.254 -10.244 -10.244 -10.244 -10.243 -10.239 -10.238
-10.237 -10.236 -10.235 -10.234 -10.233 -10.232 -10.230 -10.228
-10.226 -10.225 -10.225 -10.225 -10.222 -10.221 -10.219 -10.217
-10.216 -10.215 -10.205 -10.205 -10.204 -10.202 -10.194 -10.192
-10.189 -10.186 -10.185 -10.181 -10.180 -10.179 -10.178 -10.177
-10.176 -10.173 -10.173 -10.170  -8.044  -8.040  -7.999  -7.993
 -7.985  -7.981  -7.970  -7.969  -6.009  -6.005  -6.003  -6.002
 -6.000  -5.998  -5.962  -5.959  -5.957  -5.956  -5.953  -5.950
 -5.949  -5.946  -5.946  -5.942  -5.942  -5.938  -5.935  -5.933
 -5.931  -5.930  -5.927  -5.925  -1.044  -1.025  -0.987  -0.965
 -0.954  -0.944  -0.938  -0.938  -0.918  -0.915  -0.913  -0.897
 -0.853  -0.844  -0.829  -0.826  -0.817  -0.810  -0.808  -0.806
 -0.804  -0.801  -0.798  -0.792  -0.789  -0.775  -0.768  -0.761
 -0.752  -0.748  -0.746  -0.737  -0.727  -0.719  -0.715  -0.708
 -0.699  -0.690  -0.676  -0.670  -0.652  -0.648  -0.647  -0.640
 -0.636  -0.631  -0.627  -0.625  -0.611  -0.610  -0.603  -0.603
 -0.597  -0.594  -0.588  -0.587  -0.583  -0.578  -0.559  -0.555
 -0.554  -0.548  -0.538  -0.538  -0.531  -0.521  -0.514  -0.513
 -0.507  -0.504  -0.499  -0.499  -0.493  -0.483  -0.476  -0.475
 -0.473  -0.473  -0.469  -0.461  -0.459  -0.450  -0.447  -0.446
 -0.443  -0.443  -0.440  -0.439  -0.437  -0.433  -0.431  -0.431
 -0.430  -0.427  -0.425  -0.423  -0.422  -0.420  -0.420  -0.415
 -0.411  -0.411  -0.406  -0.404  -0.398  -0.398  -0.397  -0.397
 -0.396  -0.394  -0.394  -0.392  -0.389  -0.388  -0.388  -0.385
 -0.382  -0.381  -0.375  -0.369  -0.364  -0.364  -0.362  -0.357
 -0.355  -0.352  -0.351  -0.349  -0.347  -0.343  -0.343  -0.340
 -0.340  -0.339  -0.338  -0.332  -0.330  -0.324  -0.324  -0.321
 -0.315  -0.312  -0.309  -0.306  -0.303  -0.301  -0.299  -0.294
 -0.294  -0.293  -0.291  -0.289  -0.286  -0.285  -0.283  -0.283
 -0.277  -0.273  -0.269  -0.263  -0.259  -0.254  -0.253  -0.250
 -0.245  -0.245  -0.235  -0.231  -0.196  -0.190

          Ground-State Mulliken Net Atomic Charges

     Atom                 Charge (a.u.)
  ----------------------------------------
      1 C                     0.261494
      2 C                    -0.112055
      3 N                    -0.460640
      4 C                    -0.084934
      5 C                     0.097165
      6 C                     0.025419
      7 C                     0.040047
      8 C                     0.060562
      9 C                     0.226100
     10 N                    -0.514077
     11 N                    -0.577294
     12 C                     0.235906
     13 C                     0.278705
     14 S                     0.599729
     15 N                    -0.569716
     16 C                    -0.230187
     17 S                     0.312360
     18 C                    -0.130075
     19 C                    -0.237759
     20 S                     0.305849
     21 C                     0.169965
     22 C                     0.072678
     23 C                    -0.323223
     24 C                    -0.056714
     25 N                    -0.416869
     26 S                     0.293297
     27 C                     0.119638
     28 C                    -0.321836
     29 C                    -0.219395
     30 H                     0.097520
     31 H                     0.104065
     32 H                     0.113782
     33 H                     0.108634
     34 H                     0.132790
     35 H                     0.118604
     36 H                     0.120491
     37 H                     0.133500
     38 H                     0.091596
     39 C                    -0.182679
     40 H                     0.119048
     41 H                     0.094526
     42 H                     0.089814
     43 C                    -0.176691
     44 H                     0.087716
     45 C                    -0.183322
     46 H                     0.115241
     47 H                     0.089770
     48 H                     0.087602
     49 C                    -0.182924
     50 H                     0.090294
     51 C                    -0.321448
     52 H                     0.091448
     53 H                     0.107452
     54 H                     0.105839
     55 H                     0.102337
     56 C                     0.249751
     57 C                    -0.093667
     58 N                    -0.476503
     59 C                    -0.072335
     60 C                     0.070419
     61 C                     0.046495
     62 C                     0.044424
     63 C                     0.058550
     64 C                     0.198725
     65 N                    -0.514987
     66 N                    -0.533840
     67 C                     0.234959
     68 C                     0.269176
     69 S                     0.590959
     70 N                    -0.575936
     71 C                    -0.217916
     72 S                     0.294718
     73 C                    -0.080798
     74 C                    -0.234713
     75 S                     0.278676
     76 C                     0.133789
     77 C                     0.074565
     78 C                    -0.308827
     79 C                    -0.041057
     80 N                    -0.448266
     81 S                     0.281862
     82 C                     0.125209
     83 C                    -0.314088
     84 C                    -0.232901
     85 H                     0.100407
     86 H                     0.110136
     87 H                     0.096537
     88 H                     0.122047
     89 H                     0.125372
     90 H                     0.137183
     91 H                     0.123000
     92 H                     0.132375
     93 H                     0.116956
     94 C                    -0.182364
     95 H                     0.101753
     96 H                     0.108640
     97 H                     0.087940
     98 C                    -0.182590
     99 H                     0.093706
    100 C                    -0.174309
    101 H                     0.083220
    102 H                     0.091222
    103 H                     0.096258
    104 C                    -0.182539
    105 H                     0.098996
    106 C                    -0.314742
    107 H                     0.096057
    108 H                     0.105676
    109 H                     0.096518
    110 H                     0.106957
  ----------------------------------------
  Sum of atomic charges =     0.000000

                    Cartesian Multipole Moments
 -----------------------------------------------------------------
    Charge (ESU x 10^10)
                 0.0000
    Dipole Moment (Debye)
         X       0.6719      Y      -2.3014      Z       0.2031
       Tot       2.4061
    Quadrupole Moments (Debye-Ang)
        XX    -464.4538     XY       6.7755     YY    -414.6037
        XZ      23.6453     YZ       2.7410     ZZ    -434.1349

 Total job time:  91.22s(wall), 976.41s(cpu)
        *  Thank you very much for using Q-Chem.  Have a nice day.  *
