 Q-Chem 4.4, Q-Chem, Inc., Pleasanton, CA (2016)
 Q-Chem 4.4.2 for Intel X86 Linux

User input:
--------------------------------------------------------------
$comment
SP
$end

$rem
MEM_STATIC 5000
MEM_TOTAL 20000
JOBTYPE SP
EXCHANGE B3LYP
BASIS 6-31g(d,p)
$end

$molecule
0 1
C          12.172000    -11.482000      8.951000
C          11.562000    -11.056000     10.110000
N          12.032000    -12.749000      8.471000
C          10.725000    -11.906000     10.806000
C          11.210000    -13.583000      9.219000
C          10.566000    -13.262000     10.415000
C           9.654000    -14.259000     11.107000
C           8.881000    -13.808000     12.169000
C           9.579000    -15.741000     10.892000
N           7.954000    -14.576000     12.757000
N          10.309000    -16.419000     10.017000
C           8.537000    -16.511000     11.497000
C           7.683000    -15.869000     12.404000
S           9.638000    -17.876000      9.946000
N           8.448000    -17.757000     10.990000
C           6.592000    -16.650000     13.084000
S           5.883000    -18.162000     12.685000
C           5.820000    -16.067000     14.083000
C           4.606000    -18.021000     13.834000
S           6.117000    -14.631000     15.000000
C           4.751000    -16.857000     14.513000
C           3.752000    -19.079000     14.249000
C           4.575000    -14.946000     15.750000
C           4.023000    -16.225000     15.469000
N           3.178000    -19.166000     15.443000
S           3.516000    -20.415000     13.137000
C           2.661000    -20.407000     15.607000
C           2.646000    -21.219000     14.467000
C          13.068000    -10.643000      8.057000
H          11.731000    -10.030000     10.424000
H          10.193000    -11.562000     11.688000
H          11.163000    -14.611000      8.862000
H           9.026000    -12.818000     12.598000
H           4.185000    -14.349000     16.564000
H           3.127000    -16.514000     16.007000
H           2.340000    -20.653000     16.610000
H           2.257000    -22.221000     14.343000
H          12.795000    -10.817000      7.009000
C          14.591000    -10.866000      8.040000
H          12.872000     -9.569000      8.160000
H          15.097000    -10.498000      7.140000
H          14.735000    -11.945000      7.900000
C          15.274000    -10.562000      9.337000
H          14.597000    -10.815000     10.163000
C          15.719000     -9.121000      9.433000
H          16.147000    -11.221000      9.422000
H          14.878000     -8.418000      9.410000
H          16.341000     -8.783000      8.595000
C          16.460000     -8.854000     10.733000
H          17.128000     -9.709000     10.894000
C          15.600000     -8.626000     11.909000
H          17.067000     -7.951000     10.592000
H          16.353000     -8.424000     12.681000
H          14.982000     -9.482000     12.205000
H          15.007000     -7.713000     11.777000
C          14.616000    -16.244000      8.681000
C          13.648000    -16.466000      9.723000
N          15.564000    -15.309000      8.732000
C          13.714000    -15.654000     10.830000
C          15.598000    -14.513000      9.852000
C          14.609000    -14.583000     10.930000
C          14.418000    -13.503000     11.975000
C          13.218000    -13.362000     12.623000
C          15.466000    -12.651000     12.533000
N          12.925000    -12.490000     13.560000
N          16.740000    -12.787000     12.213000
C          15.207000    -11.818000     13.660000
C          13.825000    -11.669000     13.999000
S          17.525000    -11.850000     13.285000
N          16.302000    -11.171000     14.099000
C          13.224000    -10.647000     14.861000
S          11.657000    -10.909000     15.543000
C          13.717000     -9.507000     15.481000
C          11.657000     -9.560000     16.598000
S          15.334000     -8.743000     15.402000
C          12.816000     -8.880000     16.331000
C          10.509000     -9.090000     17.365000
C          14.656000     -7.393000     16.360000
C          13.380000     -7.660000     16.832000
N          10.480000     -7.781000     17.579000
S           8.967000     -9.959000     17.556000
C           9.302000     -7.402000     18.150000
C           8.462000     -8.486000     18.424000
C          14.491000    -17.081000      7.435000
H          12.892000    -17.238000      9.610000
H          13.038000    -15.874000     11.650000
H          16.309000    -13.689000      9.831000
H          12.435000    -14.015000     12.243000
H          15.297000     -6.535000     16.514000
H          12.887000     -6.978000     17.516000
H           9.184000     -6.363000     18.427000
H           7.555000     -8.587000     19.005000
H          15.223000    -16.635000      6.750000
C          13.074000    -17.153000      6.776000
H          14.935000    -18.052000      7.685000
H          12.349000    -17.485000      7.528000
H          13.145000    -17.831000      5.916000
C          12.449000    -15.843000      6.265000
H          12.696000    -15.057000      6.990000
C          10.944000    -15.836000      6.089000
H          12.895000    -15.500000      5.323000
H          10.365000    -16.207000      6.943000
H          10.686000    -16.484000      5.242000
C          10.471000    -14.414000      5.629000
H          10.693000    -13.619000      6.352000
C           8.944000    -14.533000      5.416000
H          11.009000    -14.000000      4.768000
H           8.783000    -15.020000      4.446000
H           8.397000    -13.583000      5.454000
H           8.470000    -15.197000      6.149000
$end

--------------------------------------------------------------

             Standard Nuclear Orientation (Angstroms)
    I     Atom           X                Y                Z
 ----------------------------------------------------------------
    1      C       2.4619029699    -2.4217917108    -2.4524059528
    2      C       2.2131943870    -1.0672029748    -2.4619136964
    3      N       1.5735547260    -3.3275191703    -1.9566397108
    4      C       1.0023222137    -0.5812357999    -2.0090235499
    5      C       0.3824401850    -2.7949801339    -1.4787356147
    6      C       0.0398431874    -1.4431997496    -1.4194896040
    7      C      -1.3216349377    -1.0003973592    -0.9145932205
    8      C      -1.6774351363     0.3316976887    -1.0810354084
    9      C      -2.3048906308    -1.7914958564    -0.1049356326
   10      N      -2.9024494261     0.7878605836    -0.7875181123
   11      N      -2.1324234432    -3.0477238110     0.2828212437
   12      C      -3.6210396947    -1.2867371456     0.1351878471
   13      C      -3.9135978801     0.0191397436    -0.2810143375
   14      S      -3.5678300194    -3.5242767515     0.8219281494
   15      N      -4.4555752556    -2.2220447960     0.6314095686
   16      C      -5.2775169705     0.5980394866    -0.0217040942
   17      S      -6.7647014500    -0.1699421464     0.3610654651
   18      C      -5.5470567815     1.9323018348    -0.3062498314
   19      C      -7.7100534178     1.2575952141     0.1629298010
   20      S      -4.4469110320     3.2347036946    -0.5971496858
   21      C      -6.8901662776     2.2875934550    -0.1593289478
   22      C      -9.0545134571     1.4207050391     0.5950494462
   23      C      -5.8700048946     4.2086577543    -0.8534821806
   24      C      -7.0930929143     3.5926804791    -0.4738327470
   25      N      -9.5996164406     2.5758857396     0.9571285627
   26      S     -10.0370238963    -0.0238968443     0.7529564923
   27      C     -10.7883602266     2.3447416040     1.5635332129
   28      C     -11.2683905638     1.0320745421     1.4883995975
   29      C       3.7190798194    -3.0991420866    -2.9688126116
   30      H       2.9785441341    -0.4143362456    -2.8715938137
   31      H       0.7729282759     0.4786447782    -2.0666046353
   32      H      -0.2878835049    -3.5224340657    -1.0227543345
   33      H      -0.9577024911     1.0745624295    -1.4205982102
   34      H      -5.8273512496     5.2750732135    -1.0324898200
   35      H      -7.9905670994     4.2006317970    -0.5005961941
   36      H     -11.2300735408     3.1925565241     2.0691666862
   37      H     -12.1964887922     0.6182433870     1.8599886900
   38      H       3.4371086293    -3.9834778102    -3.5532367521
   39      C       4.7611004053    -3.6714740714    -1.9909699875
   40      H       4.2393639726    -2.4947491043    -3.7214842019
   41      H       5.4193099304    -4.4358153151    -2.4199253281
   42      H       4.1987098118    -4.2937256712    -1.2830880998
   43      C       5.4337043597    -2.6442088218    -1.1345565198
   44      H       4.7179990587    -1.8420272662    -0.9134577319
   45      C       6.6827279896    -2.0844577910    -1.7751349736
   46      H       5.6929816799    -3.1175502388    -0.1793820990
   47      H       6.4736537921    -1.5492734950    -2.7088826640
   48      H       7.4097272701    -2.8439790927    -2.0881388688
   49      C       7.3769278280    -1.0880104583    -0.8610511167
   50      H       7.3508611031    -1.5176623448     0.1478541228
   51      C       6.8089171350     0.2728059819    -0.8711737995
   52      H       8.4218201543    -1.0084491095    -1.1860265285
   53      H       7.4913649625     0.7878979664    -0.1836112857
   54      H       5.7792516654     0.3487047119    -0.5019795368
   55      H       6.9286101000     0.7290594209    -1.8611982404
   56      C       1.3701064574    -5.4212180533     1.8527191314
   57      C       0.4399886303    -4.3332787817     2.0054966461
   58      N       2.6925283327    -5.2680400185     1.7955625632
   59      C       0.9608346476    -3.0642422614     2.0916055108
   60      C       3.1779799545    -3.9850041965     1.8811651469
   61      C       2.3259198898    -2.7953155976     1.9423181009
   62      C       2.8184227648    -1.3869625083     1.6798519236
   63      C       1.9516682005    -0.4098652365     1.2629557176
   64      C       4.1471059507    -0.8673522508     1.9963612785
   65      N       2.2381177929     0.8489270098     1.0229750688
   66      N       5.0620904490    -1.5852403842     2.6219905582
   67      C       4.4282338382     0.5264583701     1.8996241915
   68      C       3.4369158813     1.2989022253     1.2157636802
   69      S       6.2208783452    -0.5114004537     3.0059910987
   70      N       5.6687852336     0.8431166615     2.3132843925
   71      C       3.5816380745     2.6512200930     0.6689356713
   72      S       2.1750749820     3.5973658748     0.3288688745
   73      C       4.6586687855     3.5149341080     0.5238427774
   74      C       2.9847877154     5.0706521450     0.0023434460
   75      S       6.3974308021     3.2811821385     0.8797819106
   76      C       4.3223398651     4.7801299280     0.0616822055
   77      C       2.3610624870     6.2733741710    -0.5375820744
   78      C       6.6853185506     4.8783071504     0.1272791926
   79      C       5.5093132560     5.5548732259    -0.1582359425
   80      N       3.1547253990     7.0216163151    -1.2927978554
   81      S       0.6101705997     6.5351122136    -0.7254032551
   82      C       2.4577964694     8.0276707660    -1.8923898074
   83      C       1.1131335012     8.0552778604    -1.5091779204
   84      C       0.7929665199    -6.8014371435     1.6777484038
   85      H      -0.6284820065    -4.5283041753     2.0304885289
   86      H       0.2669096117    -2.2534363114     2.2886784819
   87      H       4.2493154080    -3.8683892034     1.7276096537
   88      H       0.9472201414    -0.7736262791     1.0564127429
   89      H       7.7171610399     5.1798318901     0.0042145404
   90      H       5.5304538713     6.5779606214    -0.5172265490
   91      H       3.0100219043     8.7417716931    -2.4884442806
   92      H       0.3238809112     8.7832244846    -1.6417865981
   93      H       1.6675684745    -7.4180261763     1.4351491754
   94      C      -0.3271178735    -6.9630559690     0.5976353046
   95      H       0.5166956538    -7.1365007726     2.6846663612
   96      H      -1.1270281574    -6.2429757315     0.8049538743
   97      H      -0.6665755573    -8.0061814132     0.6289847651
   98      C       0.0319751517    -6.6511852405    -0.8657972521
   99      H       0.6912709705    -5.7738343437    -0.8619989264
  100      C      -1.1248224273    -6.3407458323    -1.7939657363
  101      H       0.6294655509    -7.4437257869    -1.3335725243
  102      H      -1.8398357486    -5.5947000212    -1.4274011471
  103      H      -1.7011718673    -7.2600180519    -1.9571739140
  104      C      -0.5791802606    -5.9839486157    -3.2195825754
  105      H       0.0664585736    -5.0968733794    -3.2364947300
  106      C      -1.8309934532    -5.7519763086    -4.0973135020
  107      H       0.1313569787    -6.7052002860    -3.6404077882
  108      H      -2.2260726988    -6.7370638786    -4.3757104652
  109      H      -1.6587045125    -5.1490590118    -4.9972914207
  110      H      -2.6444669180    -5.2656643210    -3.5453872635
 ----------------------------------------------------------------

   10   -5663.4942741565      5.99E-06 Convergence criterion met
 Total energy in the final basis set = -5663.4942741565

                    Orbital Energies (a.u.)
 --------------------------------------------------------------

 Alpha MOs
 -- Occupied --
-88.996 -88.986 -88.931 -88.929 -88.926 -88.917 -88.912 -88.903
-14.395 -14.392 -14.390 -14.383 -14.352 -14.346 -14.344 -14.343
-14.334 -14.328 -10.275 -10.272 -10.271 -10.270 -10.262 -10.261
-10.261 -10.258 -10.244 -10.243 -10.238 -10.238 -10.237 -10.237
-10.235 -10.234 -10.234 -10.233 -10.231 -10.229 -10.227 -10.226
-10.226 -10.224 -10.223 -10.223 -10.221 -10.221 -10.220 -10.217
-10.216 -10.203 -10.202 -10.200 -10.199 -10.193 -10.192 -10.192
-10.181 -10.181 -10.179 -10.171 -10.170 -10.168 -10.167 -10.165
-10.164 -10.164 -10.163 -10.161  -8.053  -8.043  -7.991  -7.989
 -7.987  -7.978  -7.972  -7.962  -6.018  -6.012  -6.010  -6.008
 -6.002  -6.000  -5.955  -5.954  -5.952  -5.950  -5.950  -5.948
 -5.947  -5.946  -5.944  -5.942  -5.938  -5.937  -5.935  -5.933
 -5.929  -5.927  -5.923  -5.918  -1.062  -1.049  -0.980  -0.972
 -0.971  -0.957  -0.932  -0.929  -0.927  -0.923  -0.919  -0.914
 -0.856  -0.842  -0.831  -0.829  -0.818  -0.810  -0.808  -0.804
 -0.803  -0.800  -0.798  -0.796  -0.786  -0.776  -0.774  -0.766
 -0.754  -0.748  -0.741  -0.734  -0.723  -0.721  -0.712  -0.707
 -0.697  -0.689  -0.680  -0.675  -0.658  -0.652  -0.651  -0.644
 -0.638  -0.633  -0.629  -0.622  -0.613  -0.605  -0.599  -0.594
 -0.593  -0.589  -0.584  -0.578  -0.576  -0.574  -0.563  -0.557
 -0.556  -0.551  -0.547  -0.547  -0.530  -0.524  -0.517  -0.515
 -0.510  -0.506  -0.505  -0.502  -0.486  -0.485  -0.483  -0.479
 -0.472  -0.471  -0.469  -0.466  -0.462  -0.455  -0.452  -0.447
 -0.443  -0.442  -0.440  -0.436  -0.435  -0.435  -0.433  -0.430
 -0.429  -0.426  -0.425  -0.422  -0.421  -0.418  -0.415  -0.414
 -0.413  -0.410  -0.409  -0.403  -0.401  -0.398  -0.395  -0.394
 -0.393  -0.390  -0.390  -0.386  -0.385  -0.385  -0.384  -0.383
 -0.378  -0.377  -0.375  -0.371  -0.368  -0.364  -0.362  -0.360
 -0.359  -0.354  -0.348  -0.346  -0.345  -0.343  -0.342  -0.341
 -0.337  -0.336  -0.333  -0.331  -0.329  -0.324  -0.318  -0.315
 -0.313  -0.312  -0.310  -0.306  -0.303  -0.301  -0.299  -0.297
 -0.296  -0.294  -0.291  -0.290  -0.287  -0.286  -0.284  -0.281
 -0.278  -0.275  -0.271  -0.263  -0.258  -0.252  -0.249  -0.247
 -0.246  -0.241  -0.231  -0.227  -0.195  -0.192

          Ground-State Mulliken Net Atomic Charges

     Atom                 Charge (a.u.)
  ----------------------------------------
      1 C                     0.279680
      2 C                    -0.116395
      3 N                    -0.494844
      4 C                    -0.073472
      5 C                     0.051007
      6 C                     0.045592
      7 C                     0.052142
      8 C                     0.068376
      9 C                     0.213914
     10 N                    -0.541058
     11 N                    -0.554991
     12 C                     0.189205
     13 C                     0.315316
     14 S                     0.611502
     15 N                    -0.539375
     16 C                    -0.221989
     17 S                     0.334513
     18 C                    -0.129712
     19 C                    -0.250316
     20 S                     0.304319
     21 C                     0.204831
     22 C                     0.075742
     23 C                    -0.304900
     24 C                    -0.088949
     25 N                    -0.434357
     26 S                     0.254743
     27 C                     0.129029
     28 C                    -0.314443
     29 C                    -0.226926
     30 H                     0.100892
     31 H                     0.106955
     32 H                     0.138599
     33 H                     0.125100
     34 H                     0.115623
     35 H                     0.123699
     36 H                     0.115082
     37 H                     0.133114
     38 H                     0.118184
     39 C                    -0.188369
     40 H                     0.089411
     41 H                     0.092843
     42 H                     0.116710
     43 C                    -0.175357
     44 H                     0.090499
     45 C                    -0.162299
     46 H                     0.094980
     47 H                     0.079520
     48 H                     0.083425
     49 C                    -0.188211
     50 H                     0.087401
     51 C                    -0.294353
     52 H                     0.082624
     53 H                     0.112086
     54 H                     0.093005
     55 H                     0.097788
     56 C                     0.275273
     57 C                    -0.084102
     58 N                    -0.483964
     59 C                    -0.101237
     60 C                     0.071929
     61 C                     0.048013
     62 C                     0.074620
     63 C                     0.058141
     64 C                     0.184849
     65 N                    -0.527192
     66 N                    -0.532943
     67 C                     0.223918
     68 C                     0.317479
     69 S                     0.606156
     70 N                    -0.544222
     71 C                    -0.260186
     72 S                     0.302168
     73 C                    -0.123937
     74 C                    -0.224052
     75 S                     0.283648
     76 C                     0.153359
     77 C                     0.060908
     78 C                    -0.314926
     79 C                    -0.054526
     80 N                    -0.420453
     81 S                     0.265402
     82 C                     0.132975
     83 C                    -0.312590
     84 C                    -0.242312
     85 H                     0.090371
     86 H                     0.093877
     87 H                     0.120472
     88 H                     0.098078
     89 H                     0.127839
     90 H                     0.117857
     91 H                     0.120428
     92 H                     0.135714
     93 H                     0.116683
     94 C                    -0.184571
     95 H                     0.110160
     96 H                     0.084573
     97 H                     0.094905
     98 C                    -0.190432
     99 H                     0.130261
    100 C                    -0.176759
    101 H                     0.088210
    102 H                     0.087256
    103 H                     0.086887
    104 C                    -0.189580
    105 H                     0.119592
    106 C                    -0.321282
    107 H                     0.090780
    108 H                     0.100474
    109 H                     0.093908
    110 H                     0.094968
  ----------------------------------------
  Sum of atomic charges =     0.000000

                    Cartesian Multipole Moments
 -----------------------------------------------------------------
    Charge (ESU x 10^10)
                 0.0000
    Dipole Moment (Debye)
         X      -2.2076      Y       3.1577      Z      -0.1768
       Tot       3.8569
    Quadrupole Moments (Debye-Ang)
        XX    -407.1410     XY      10.5863     YY    -429.1397
        XZ     -14.9325     YZ     -11.9442     ZZ    -447.0085

 Total job time:  115.64s(wall), 1301.65s(cpu)
        *  Thank you very much for using Q-Chem.  Have a nice day.  *
