 Q-Chem 4.4, Q-Chem, Inc., Pleasanton, CA (2016)
 Q-Chem 4.4.2 for Intel X86 Linux

User input:
--------------------------------------------------------------
$comment
SP
$end

$rem
MEM_STATIC 5000
MEM_TOTAL 20000
JOBTYPE SP
EXCHANGE B3LYP
BASIS 6-31g(d,p)
$end

$molecule
0 1
C          19.454000    -26.748000     13.438000
C          20.682000    -26.136000     13.225000
N          18.330000    -26.474000     12.625000
C          20.907000    -25.319000     12.060000
C          18.607000    -25.655000     11.509000
C          19.843000    -25.141000     11.127000
C          19.994000    -24.178000      9.952000
C          18.934000    -23.354000      9.523000
C          21.181000    -24.106000      9.205000
N          19.078000    -22.406000      8.532000
N          22.237000    -24.914000      9.366000
C          21.353000    -23.105000      8.258000
C          20.298000    -22.154000      8.012000
S          23.350000    -24.294000      8.328000
N          22.495000    -23.176000      7.542000
C          20.299000    -21.072000      7.056000
S          21.219000    -20.991000      5.555000
C          19.425000    -20.002000      7.098000
C          20.347000    -19.551000      4.936000
S          18.474000    -19.476000      8.486000
C          19.521000    -19.160000      5.979000
C          20.625000    -18.716000      3.825000
C          18.030000    -18.089000      7.441000
C          18.633000    -18.112000      6.209000
N          21.910000    -18.557000      3.601000
S          19.491000    -17.960000      2.757000
C          22.121000    -17.828000      2.428000
C          20.906000    -17.498000      1.827000
C          19.096000    -27.710000     14.652000
H          21.439000    -26.392000     13.961000
H          21.874000    -24.829000     12.004000
H          17.759000    -25.359000     10.892000
H          17.984000    -23.217000     10.039000
H          17.194000    -17.465000      7.729000
H          18.514000    -17.357000      5.441000
H          23.128000    -17.763000      2.037000
H          20.785000    -17.134000      0.816000
H          18.437000    -28.507000     14.287000
C          18.420000    -26.995000     15.911000
H          19.998000    -28.245000     14.973000
H          19.081000    -26.388000     16.543000
H          18.180000    -27.826000     16.585000
C          17.173000    -26.168000     15.522000
H          17.010000    -25.560000     16.420000
C          16.007000    -27.059000     15.103000
H          17.422000    -25.407000     14.772000
H          15.840000    -27.754000     15.936000
H          16.458000    -27.658000     14.302000
C          14.856000    -26.145000     14.694000
H          14.014000    -26.847000     14.725000
C          14.951000    -25.502000     13.271000
H          14.654000    -25.488000     15.549000
H          14.658000    -26.301000     12.579000
H          15.951000    -25.148000     12.992000
H          14.220000    -24.684000     13.272000
C          14.616000    -16.244000      8.681000
C          13.648000    -16.466000      9.723000
N          15.564000    -15.309000      8.732000
C          13.714000    -15.654000     10.830000
C          15.598000    -14.513000      9.852000
C          14.609000    -14.583000     10.930000
C          14.418000    -13.503000     11.975000
C          13.218000    -13.362000     12.623000
C          15.466000    -12.651000     12.533000
N          12.925000    -12.490000     13.560000
N          16.740000    -12.787000     12.213000
C          15.207000    -11.818000     13.660000
C          13.825000    -11.669000     13.999000
S          17.525000    -11.850000     13.285000
N          16.302000    -11.171000     14.099000
C          13.224000    -10.647000     14.861000
S          11.657000    -10.909000     15.543000
C          13.717000     -9.507000     15.481000
C          11.657000     -9.560000     16.598000
S          15.334000     -8.743000     15.402000
C          12.816000     -8.880000     16.331000
C          10.509000     -9.090000     17.365000
C          14.656000     -7.393000     16.360000
C          13.380000     -7.660000     16.832000
N          10.480000     -7.781000     17.579000
S           8.967000     -9.959000     17.556000
C           9.302000     -7.402000     18.150000
C           8.462000     -8.486000     18.424000
C          14.491000    -17.081000      7.435000
H          12.892000    -17.238000      9.610000
H          13.038000    -15.874000     11.650000
H          16.309000    -13.689000      9.831000
H          12.435000    -14.015000     12.243000
H          15.297000     -6.535000     16.514000
H          12.887000     -6.978000     17.516000
H           9.184000     -6.363000     18.427000
H           7.555000     -8.587000     19.005000
H          15.223000    -16.635000      6.750000
C          13.074000    -17.153000      6.776000
H          14.935000    -18.052000      7.685000
H          12.349000    -17.485000      7.528000
H          13.145000    -17.831000      5.916000
C          12.449000    -15.843000      6.265000
H          12.696000    -15.057000      6.990000
C          10.944000    -15.836000      6.089000
H          12.895000    -15.500000      5.323000
H          10.365000    -16.207000      6.943000
H          10.686000    -16.484000      5.242000
C          10.471000    -14.414000      5.629000
H          10.693000    -13.619000      6.352000
C           8.944000    -14.533000      5.416000
H          11.009000    -14.000000      4.768000
H           8.783000    -15.020000      4.446000
H           8.397000    -13.583000      5.454000
H           8.470000    -15.197000      6.149000
$end

--------------------------------------------------------------

             Standard Nuclear Orientation (Angstroms)
    I     Atom           X                Y                Z
 ----------------------------------------------------------------
    1      C      -7.9875347541    -6.3903196070    -0.0302801776
    2      C      -8.1595002289    -5.7683102755    -1.2596821733
    3      N      -7.5428892024    -5.6833010302     1.1107001314
    4      C      -8.0511544301    -4.3371808434    -1.3840555483
    5      C      -7.4391378077    -4.2877666617     0.9245134658
    6      C      -7.7564308108    -3.5646576731    -0.2218959466
    7      C      -7.5004297808    -2.0636163368    -0.3320475659
    8      C      -6.5033364675    -1.4200422729     0.4283696544
    9      C      -8.2839946075    -1.2401536385    -1.1567277141
   10      N      -6.1869786287    -0.0871164565     0.2710563178
   11      N      -9.3669560239    -1.6433243644    -1.8339048965
   12      C      -7.9220918801     0.0831261613    -1.3720205082
   13      C      -6.7574327968     0.6288185673    -0.7210742602
   14      S      -9.7876411989    -0.3130324124    -2.7022137736
   15      N      -8.7868198914     0.8059069910    -2.1147818015
   16      C      -6.2535124517     1.9786762688    -0.8138614977
   17      S      -7.1865553041     3.4313209818    -1.1677207541
   18      C      -4.9714388435     2.3518915923    -0.4567374499
   19      C      -5.8582509456     4.5570501177    -0.7370393827
   20      S      -3.5820135503     1.2844505356    -0.2626036169
   21      C      -4.7649532945     3.7398541137    -0.4923008747
   22      C      -5.7403356940     5.9560078747    -0.9315726386
   23      C      -2.6579733493     2.8056274912    -0.0502351238
   24      C      -3.4232982891     3.9373035273    -0.1749310973
   25      N      -6.3046520617     6.3774643225    -2.0408983346
   26      S      -5.0021844489     7.1144344744     0.1226078736
   27      C      -6.2628776793     7.7718010634    -2.1181702829
   28      C      -5.6510598183     8.3104838797    -0.9859928549
   29      C      -8.1303110015    -7.9490539764     0.2478674611
   30      H      -8.4452768656    -6.4426738466    -2.0620826269
   31      H      -8.1382238099    -3.9407360152    -2.3908203774
   32      H      -7.0338313901    -3.7084673413     1.7536986111
   33      H      -5.7516961408    -1.9147184494     1.0430706384
   34      H      -1.6572978118     2.7557735986     0.3588847340
   35      H      -3.0529715583     4.9530179246    -0.1028729573
   36      H      -6.8334572874     8.2610487642    -2.8967783987
   37      H      -5.6827764015     9.3502973531    -0.6909674344
   38      H      -8.5915154045    -8.0900106470     1.2328226458
   39      C      -6.7684577424    -8.7815921362     0.1735848043
   40      H      -8.8627681315    -8.3788328649    -0.4461546276
   41      H      -6.3595908813    -8.9636762102    -0.8286463466
   42      H      -7.0650421184    -9.7939083307     0.4730687444
   43      C      -5.6656186795    -8.1932827198     1.0834732765
   44      H      -4.7668774511    -8.7028286751     0.7156905638
   45      C      -5.9825097319    -8.3915903088     2.5630854423
   46      H      -5.4576210408    -7.1472783094     0.8261140810
   47      H      -6.1454793507    -9.4686352168     2.6980601416
   48      H      -6.9737598996    -7.9284302821     2.6449932843
   49      C      -4.8631406079    -7.7330012827     3.3635548416
   50      H      -5.0135884325    -8.1945167867     4.3469661958
   51      C      -4.9289185564    -6.1758522929     3.4990660404
   52      H      -3.9230209710    -8.1862437253     3.0255839013
   53      H      -5.6872869588    -5.9903618667     4.2695105018
   54      H      -5.2236880978    -5.6465762503     2.5846619786
   55      H      -3.9307699965    -5.8708204500     3.8369136794
   56      C       0.8915955232     2.2098814909     1.8583424938
   57      C       1.5627031153     1.0835601277     2.4525535563
   58      N       1.2085498027     2.7239597910     0.6705742142
   59      C       2.5943427832     0.5165820735     1.7430435272
   60      C       2.2474231816     2.1342654981    -0.0092601360
   61      C       3.0631841691     1.0469029870     0.5359753917
   62      C       4.4067381593     0.6320505055    -0.0276433571
   63      C       5.3291933446    -0.0048458517     0.7618023101
   64      C       4.8004095908     0.6769208043    -1.4342639386
   65      N       6.5145382084    -0.4372029992     0.3981722085
   66      N       3.9700032254     1.0394468907    -2.3949783107
   67      C       6.0098493295     0.0645408405    -1.8739744098
   68      C       6.9087761304    -0.3209411917    -0.8297616875
   69      S       4.7485108560     0.6469229329    -3.7672861522
   70      N       6.1731818194     0.1203580433    -3.2083513946
   71      C       8.3311428021    -0.6523035695    -0.9554638189
   72      S       9.1183268385    -1.5546209111     0.2917016505
   73      C       9.2399819531    -0.5885283399    -2.0028382112
   74      C      10.5899351716    -1.8270759747    -0.5407424332
   75      S       9.0557176948     0.0351591371    -3.6706771166
   76      C      10.4845498114    -1.1336099552    -1.7175894095
   77      C      11.7948531194    -2.4039848882     0.0444428747
   78      C      10.8120704413    -0.2317818913    -3.8802374114
   79      C      11.3790156447    -0.9196819194    -2.8183449084
   80      N      12.9328260636    -1.9671379673    -0.4792940305
   81      S      11.9019468569    -3.1666059528     1.6495428850
   82      C      14.0058260259    -2.4205503734     0.2281338958
   83      C      13.6409073832    -3.2761097237     1.2724444733
   84      C      -0.1842427511     2.8789459312     2.6729803164
   85      H       1.2617842417     0.7239210892     3.4325518183
   86      H       3.0458211564    -0.3814123920     2.1523712912
   87      H       2.5608164898     2.6301298071    -0.9262340840
   88      H       5.0357967597    -0.0783503260     1.8069881961
   89      H      11.2512904353     0.1198738164    -4.8044587378
   90      H      12.4124234334    -1.2462228287    -2.8566643141
   91      H      14.9941361756    -2.1781629909    -0.1388339569
   92      H      14.2067921075    -3.9362177995     1.9162167989
   93      H      -0.4312957910     3.7741788196     2.0886106808
   94      C       0.1806389295     3.2520617135     4.1477684274
   95      H      -1.0746789609     2.2486706166     2.5618345383
   96      H       0.5404363465     2.3539032281     4.6627540135
   97      H      -0.7162124090     3.6842686103     4.6094824894
   98      C       1.3290701492     4.2505097208     4.3759203732
   99      H       2.1111808118     4.0246957584     3.6398898264
  100      C       1.9796947680     4.2308234682     5.7442588025
  101      H       1.0385991641     5.2866082775     4.1613151836
  102      H       2.2776651943     3.2423319558     6.1134418939
  103      H       1.2670858939     4.6275588374     6.4781979276
  104      C       3.1647672398     5.2562872614     5.7822093657
  105      H       3.9651173344     5.0335941753     5.0653512796
  106      C       3.7114157929     5.2059214643     7.2278571948
  107      H       2.9178373231     6.2666493524     5.4352870959
  108      H       3.0352517139     5.7980995330     7.8572356766
  109      H       4.7417870649     5.5634698670     7.3446783472
  110      H       3.6807090777     4.1947920676     7.6515734216
 ----------------------------------------------------------------

    9   -5663.4699438230      9.00E-06 Convergence criterion met
 Total energy in the final basis set = -5663.4699438230

                    Orbital Energies (a.u.)
 --------------------------------------------------------------

 Alpha MOs
 -- Occupied --
-88.988 -88.987 -88.933 -88.931 -88.919 -88.916 -88.905 -88.904
-14.394 -14.391 -14.385 -14.384 -14.347 -14.346 -14.344 -14.341
-14.338 -14.338 -10.275 -10.264 -10.263 -10.263 -10.262 -10.260
-10.256 -10.254 -10.242 -10.238 -10.237 -10.237 -10.236 -10.236
-10.236 -10.235 -10.234 -10.232 -10.232 -10.232 -10.231 -10.230
-10.229 -10.229 -10.226 -10.225 -10.222 -10.222 -10.221 -10.221
-10.218 -10.211 -10.203 -10.203 -10.202 -10.199 -10.193 -10.193
-10.191 -10.190 -10.188 -10.182 -10.182 -10.181 -10.177 -10.173
-10.168 -10.166 -10.161 -10.160  -8.044  -8.043  -7.994  -7.991
 -7.978  -7.977  -7.965  -7.964  -6.009  -6.008  -6.003  -6.003
 -6.002  -6.001  -5.958  -5.955  -5.955  -5.952  -5.951  -5.948
 -5.942  -5.942  -5.938  -5.938  -5.934  -5.934  -5.929  -5.928
 -5.926  -5.925  -5.921  -5.920  -1.050  -1.047  -0.981  -0.971
 -0.967  -0.952  -0.939  -0.920  -0.917  -0.915  -0.911  -0.905
 -0.843  -0.837  -0.833  -0.829  -0.810  -0.809  -0.807  -0.804
 -0.803  -0.800  -0.798  -0.791  -0.785  -0.776  -0.771  -0.761
 -0.747  -0.745  -0.738  -0.736  -0.721  -0.714  -0.712  -0.701
 -0.695  -0.688  -0.676  -0.672  -0.658  -0.651  -0.649  -0.648
 -0.637  -0.636  -0.628  -0.625  -0.609  -0.608  -0.600  -0.598
 -0.591  -0.590  -0.587  -0.579  -0.578  -0.574  -0.572  -0.553
 -0.551  -0.548  -0.545  -0.536  -0.526  -0.521  -0.518  -0.517
 -0.509  -0.506  -0.502  -0.497  -0.488  -0.486  -0.480  -0.476
 -0.473  -0.473  -0.470  -0.464  -0.459  -0.449  -0.448  -0.446
 -0.444  -0.440  -0.439  -0.436  -0.435  -0.432  -0.431  -0.428
 -0.427  -0.424  -0.422  -0.422  -0.420  -0.418  -0.414  -0.413
 -0.411  -0.404  -0.403  -0.401  -0.400  -0.396  -0.396  -0.395
 -0.393  -0.390  -0.388  -0.386  -0.386  -0.385  -0.384  -0.383
 -0.377  -0.376  -0.374  -0.371  -0.370  -0.363  -0.358  -0.355
 -0.354  -0.353  -0.353  -0.349  -0.347  -0.344  -0.337  -0.336
 -0.334  -0.332  -0.332  -0.328  -0.327  -0.326  -0.324  -0.318
 -0.317  -0.316  -0.313  -0.308  -0.304  -0.303  -0.301  -0.298
 -0.294  -0.293  -0.289  -0.289  -0.286  -0.280  -0.280  -0.279
 -0.278  -0.269  -0.269  -0.268  -0.259  -0.256  -0.250  -0.250
 -0.242  -0.241  -0.233  -0.230  -0.194  -0.193

          Ground-State Mulliken Net Atomic Charges

     Atom                 Charge (a.u.)
  ----------------------------------------
      1 C                     0.249377
      2 C                    -0.113859
      3 N                    -0.482025
      4 C                    -0.070296
      5 C                     0.055934
      6 C                     0.068698
      7 C                     0.032127
      8 C                     0.035617
      9 C                     0.242731
     10 N                    -0.489563
     11 N                    -0.551459
     12 C                     0.178077
     13 C                     0.252722
     14 S                     0.597996
     15 N                    -0.525047
     16 C                    -0.201502
     17 S                     0.337833
     18 C                    -0.107291
     19 C                    -0.200497
     20 S                     0.262268
     21 C                     0.155202
     22 C                     0.024360
     23 C                    -0.304974
     24 C                    -0.083459
     25 N                    -0.405930
     26 S                     0.285458
     27 C                     0.115630
     28 C                    -0.309000
     29 C                    -0.228030
     30 H                     0.094362
     31 H                     0.114081
     32 H                     0.102541
     33 H                     0.124756
     34 H                     0.138402
     35 H                     0.095129
     36 H                     0.123517
     37 H                     0.130024
     38 H                     0.123919
     39 C                    -0.189090
     40 H                     0.090514
     41 H                     0.086220
     42 H                     0.092414
     43 C                    -0.158120
     44 H                     0.074046
     45 C                    -0.168490
     46 H                     0.104257
     47 H                     0.078259
     48 H                     0.110772
     49 C                    -0.186181
     50 H                     0.083367
     51 C                    -0.313236
     52 H                     0.089116
     53 H                     0.109244
     54 H                     0.121218
     55 H                     0.095642
     56 C                     0.269488
     57 C                    -0.101265
     58 N                    -0.483889
     59 C                    -0.100912
     60 C                     0.068272
     61 C                     0.047336
     62 C                     0.072091
     63 C                     0.053382
     64 C                     0.180651
     65 N                    -0.518866
     66 N                    -0.526680
     67 C                     0.228534
     68 C                     0.322870
     69 S                     0.603071
     70 N                    -0.543077
     71 C                    -0.259548
     72 S                     0.313066
     73 C                    -0.121191
     74 C                    -0.222643
     75 S                     0.271077
     76 C                     0.154838
     77 C                     0.061172
     78 C                    -0.314114
     79 C                    -0.053212
     80 N                    -0.420227
     81 S                     0.267482
     82 C                     0.132917
     83 C                    -0.312097
     84 C                    -0.249134
     85 H                     0.098646
     86 H                     0.101157
     87 H                     0.122792
     88 H                     0.097291
     89 H                     0.128583
     90 H                     0.118501
     91 H                     0.120707
     92 H                     0.136067
     93 H                     0.117512
     94 C                    -0.187426
     95 H                     0.121141
     96 H                     0.091649
     97 H                     0.101779
     98 C                    -0.176836
     99 H                     0.098941
    100 C                    -0.172318
    101 H                     0.092848
    102 H                     0.092551
    103 H                     0.095525
    104 C                    -0.180360
    105 H                     0.095084
    106 C                    -0.322550
    107 H                     0.096605
    108 H                     0.104881
    109 H                     0.097686
    110 H                     0.102371
  ----------------------------------------
  Sum of atomic charges =     0.000000

                    Cartesian Multipole Moments
 -----------------------------------------------------------------
    Charge (ESU x 10^10)
                 0.0000
    Dipole Moment (Debye)
         X       2.6822      Y       0.2818      Z       0.0489
       Tot       2.6974
    Quadrupole Moments (Debye-Ang)
        XX    -406.5537     XY     -18.6718     YY    -416.3779
        XZ      19.7037     YZ       9.8826     ZZ    -432.1815

 Total job time:  84.96s(wall), 921.79s(cpu)
        *  Thank you very much for using Q-Chem.  Have a nice day.  *
