 Q-Chem 4.4, Q-Chem, Inc., Pleasanton, CA (2016)
 Q-Chem 4.4.2 for Intel X86 Linux

User input:
--------------------------------------------------------------
$comment
SP
$end

$rem
MEM_STATIC 5000
MEM_TOTAL 20000
JOBTYPE SP
EXCHANGE B3LYP
BASIS 6-31g(d,p)
$end

$molecule
0 1
C           8.030000     17.966000     -7.283000
C           6.664000     17.723000     -7.488000
N           8.841000     16.992000     -6.773000
C           6.083000     16.515000     -6.994000
C           8.352000     15.749000     -6.500000
C           6.940000     15.482000     -6.701000
C           6.445000     14.165000     -6.454000
C           5.275000     13.913000     -5.735000
C           7.057000     13.058000     -7.016000
N           4.737000     12.678000     -5.534000
N           8.215000     13.109000     -7.724000
C           6.595000     11.754000     -6.761000
C           5.436000     11.563000     -5.942000
S           8.785000     11.591000     -7.894000
N           7.469000     10.773000     -7.265000
C           4.928000     10.276000     -5.465000
S           5.609000      8.742000     -5.924000
C           3.812000     10.089000     -4.670000
C           4.296000      7.777000     -4.987000
S           2.762000     11.224000     -3.907000
C           3.505000      8.712000     -4.357000
C           4.022000      6.367000     -5.058000
C           1.759000      9.872000     -3.240000
C           2.318000      8.654000     -3.531000
N           4.473000      5.760000     -6.144000
S           3.242000      5.425000     -3.845000
C           4.187000      4.429000     -6.009000
C           3.591000      4.030000     -4.792000
C           8.622000     19.269000     -7.768000
H           6.027000     18.540000     -7.812000
H           5.018000     16.450000     -7.196000
H           9.154000     15.039000     -6.303000
H           4.593000     14.724000     -5.483000
H           0.964000     10.158000     -2.564000
H           1.818000      7.712000     -3.335000
H           4.497000      3.756000     -6.798000
H           3.288000      3.058000     -4.426000
H           9.446000     19.100000     -8.472000
C           9.037000     20.263000     -6.609000
H           7.896000     19.820000     -8.379000
H           9.981000     19.953000     -6.145000
H           8.285000     20.256000     -5.810000
C           9.210000     21.673000     -7.130000
H           9.994000     21.684000     -7.896000
C           9.576000     22.733000     -6.014000
H           8.303000     21.977000     -7.668000
H          10.390000     22.261000     -5.449000
H           8.705000     22.803000     -5.350000
C           9.882000     24.083000     -6.680000
H          10.845000     24.114000     -7.205000
C          10.014000     25.299000     -5.690000
H           9.258000     24.347000     -7.543000
H           9.113000     25.357000     -5.067000
H          10.172000     26.295000     -6.120000
H          10.912000     25.022000     -5.123000
C           0.692000     13.408000    -14.675000
C           1.613000     14.301000    -15.261000
N           1.056000     12.814000    -13.513000
C           2.902000     14.440000    -14.739000
C           2.199000     13.101000    -12.877000
C           3.180000     13.900000    -13.507000
C           4.521000     14.079000    -12.861000
C           5.762000     13.991000    -13.596000
C           4.687000     14.241000    -11.522000
N           7.019000     13.988000    -13.119000
N           3.630000     14.332000    -10.654000
C           5.941000     14.296000    -10.961000
C           7.100000     14.150000    -11.770000
S           4.248000     14.477000     -9.191000
N           5.808000     14.414000     -9.673000
C           8.468000     14.173000    -11.146000
S           9.093000     15.326000     -9.895000
C           9.539000     13.481000    -11.708000
C          10.771000     14.913000    -10.231000
S           9.526000     12.251000    -12.945000
C          10.795000     13.903000    -11.209000
C          11.889000     15.696000     -9.699000
C          11.351000     12.618000    -13.051000
C          11.820000     13.253000    -11.903000
N          13.087000     15.522000    -10.148000
S          11.574000     16.977000     -8.583000
C          13.948000     16.366000     -9.608000
C          13.352000     17.217000     -8.637000
C          -0.622000     13.052000    -15.188000
H           1.420000     14.766000    -16.224000
H           3.592000     15.163000    -15.164000
H           2.410000     12.620000    -11.923000
H           5.677000     13.843000    -14.672000
H          11.871000     12.149000    -13.876000
H          12.868000     13.448000    -11.708000
H          15.011000     16.242000     -9.768000
H          13.972000     17.934000     -8.116000
H          -0.495000     12.992000    -16.276000
C          -1.705000     14.106000    -14.771000
H          -0.885000     12.042000    -14.852000
H          -1.506000     14.444000    -13.746000
H          -2.689000     13.645000    -14.918000
C          -1.719000     15.361000    -15.653000
H          -0.852000     16.028000    -15.568000
C          -2.994000     16.173000    -15.450000
H          -1.734000     15.065000    -16.710000
H          -3.089000     16.573000    -14.433000
H          -3.800000     15.441000    -15.579000
C          -3.077000     17.466000    -16.242000
H          -3.917000     18.079000    -15.891000
C          -3.349000     17.164000    -17.717000
H          -2.182000     18.063000    -16.027000
H          -4.302000     16.643000    -17.871000
H          -2.474000     16.628000    -18.105000
H          -3.368000     18.106000    -18.278000
$end

--------------------------------------------------------------

             Standard Nuclear Orientation (Angstroms)
    I     Atom           X                Y                Z
 ----------------------------------------------------------------
    1      C      -4.4074758510    -0.9377537677    -2.1523865003
    2      C      -3.3705365708    -0.1444873460    -2.6647489826
    3      N      -4.1334444873    -2.1168239895    -1.5189851869
    4      C      -2.0372951169    -0.6572567877    -2.6846418260
    5      C      -2.8462717284    -2.5229096831    -1.3266841256
    6      C      -1.7614637888    -1.7170716364    -1.8551259642
    7      C      -0.4151252523    -2.1274077984    -1.6111592055
    8      C       0.5674346272    -2.1462340445    -2.6029185793
    9      C       0.0148010093    -2.4322635422    -0.3312907025
   10      N       1.8745223768    -2.4684130002    -2.3960554958
   11      N      -0.8042439927    -2.4895032047     0.7507064814
   12      C       1.3307906846    -2.8614603006    -0.0805990253
   13      C       2.2660698165    -2.9399091429    -1.1620895360
   14      S      -0.0039267709    -3.2223531671     1.9674838961
   15      N       1.5017981684    -3.3034560870     1.2444100936
   16      C       3.6130251210    -3.5076490586    -1.0889814262
   17      S       4.3359961984    -4.0850705044     0.3846180089
   18      C       4.5164194777    -3.5891935303    -2.1328583995
   19      C       5.9741632021    -4.4567780158    -0.4588305041
   20      S       4.3552559015    -3.1943345233    -3.8034890188
   21      C       5.7947487230    -4.1719472121    -1.7943034008
   22      C       7.2311323628    -4.7764474654     0.1625043269
   23      C       6.0780518951    -3.6676358484    -4.0980426137
   24      C       6.6455089230    -4.1918366283    -2.9649530039
   25      N       7.3412992110    -4.4119045119     1.4298707698
   26      S       8.5334074993    -5.6335967432    -0.5699624535
   27      C       8.5587973536    -4.8531553333     1.8709807169
   28      C       9.3258327570    -5.6111387579     0.9584984880
   29      C      -5.8204066781    -0.4026931348    -2.1812758934
   30      H      -3.6207184768     0.7423722257    -3.2384415083
   31      H      -1.3277892121     0.0392244751    -3.1214131869
   32      H      -2.7915623171    -3.3612619190    -0.6336578570
   33      H       0.3892995110    -1.6768436831    -3.5695051346
   34      H       6.4053560090    -3.6548831478    -5.1293070733
   35      H       7.7020269058    -4.4224540085    -2.8851696980
   36      H       8.8291195115    -4.6643993816     2.9019254882
   37      H      10.2925296066    -6.0872048035     1.0554898341
   38      H      -6.2582641499    -0.3664096814    -1.1762299515
   39      C      -6.7716665209    -1.1408762822    -3.2077905560
   40      H      -5.8283969368     0.6523226880    -2.4827319755
   41      H      -7.0974520426    -2.1109488103    -2.8136394630
   42      H      -6.2369927172    -1.3527373780    -4.1422384142
   43      C      -8.0048730310    -0.3161000328    -3.5051385705
   44      H      -8.5606233267    -0.1449459619    -2.5759556538
   45      C      -8.9790359200    -0.9711177653    -4.5657848055
   46      H      -7.7028435349     0.6885075335    -3.8277076659
   47      H      -9.0907611826    -2.0087527678    -4.2260259686
   48      H      -8.4377495791    -0.9883829958    -5.5203255375
   49      C     -10.2597747960    -0.1286235632    -4.6637820028
   50      H     -10.9277710063    -0.2290584140    -3.7991150705
   51      C     -11.2150398987    -0.5056378101    -5.8560524592
   52      H     -10.1276872370     0.9585424771    -4.5969697473
   53      H     -10.6483056425    -0.4801075047    -6.7949105349
   54      H     -12.1129697158     0.1051870835    -6.0060357683
   55      H     -11.5302657970    -1.5176224316    -5.5711985335
   56      C       3.2484307314     6.9217285118     0.8273625998
   57      C       1.9373165576     7.2077558468     1.2612450573
   58      N       3.5556601768     5.6232657334     0.5924573401
   59      C       1.0507823176     6.1754134692     1.5800745677
   60      C       2.6548326347     4.6361809119     0.6789864951
   61      C       1.3754012752     4.8892118640     1.2236815782
   62      C       0.4335154499     3.7494041470     1.4713253959
   63      C      -0.3324869313     3.6173928036     2.6894646971
   64      C       0.2941515153     2.6998423119     0.6194341775
   65      N      -1.0922100715     2.5840596559     3.0927392389
   66      N       0.9505653185     2.6336900545    -0.5821059999
   67      C      -0.5027720457     1.6254266976     0.9369336668
   68      C      -1.1771844621     1.5720793491     2.1864935705
   69      S       0.5470918897     1.2429247181    -1.2501621137
   70      N      -0.4226729558     0.7575593798    -0.0279225166
   71      C      -2.0171767195     0.3772067153     2.5442943479
   72      S      -3.2176734756    -0.4842260801     1.4946391294
   73      C      -2.1977118296    -0.0188521615     3.8680365586
   74      C      -3.9818974969    -1.2726326182     2.8706935528
   75      S      -1.3235501976     0.4780484456     5.2935782899
   76      C      -3.2834471109    -0.9118322272     4.0365194988
   77      C      -5.2569151449    -1.9843663944     2.7532115158
   78      C      -2.7673218644    -0.2765104822     6.2006142310
   79      C      -3.4762738225    -1.1673031260     5.3975167358
   80      N      -5.9099927922    -2.3432669186     3.8076122937
   81      S      -5.9713724518    -2.1957714068     1.1942052049
   82      C      -7.0691634326    -2.9019416470     3.5085086757
   83      C      -7.2838714169    -3.0117776180     2.1070471025
   84      C       4.3189126484     7.8805484913     0.6010139477
   85      H       1.6350938704     8.2160080990     1.5313040200
   86      H       0.0277887338     6.3988973671     1.8681597547
   87      H       2.9574250400     3.6193225325     0.4331514437
   88      H      -0.2373199549     4.4285005784     3.4105419636
   89      H      -2.7896418970    -0.0968253839     7.2674793029
   90      H      -4.2758808858    -1.8015057955     5.7618922539
   91      H      -7.6559795812    -3.3909788620     4.2749513741
   92      H      -8.1939822902    -3.4745863052     1.7500648656
   93      H       4.2113586447     8.6204806275     1.4037627067
   94      C       4.2177266065     8.5269326044    -0.8236414364
   95      H       5.2876416899     7.3920818838     0.7595365562
   96      H       3.9003753791     7.7640894075    -1.5460183847
   97      H       5.1855117685     8.9924876476    -1.0450830353
   98      C       3.1979313162     9.6693084373    -0.9138635089
   99      H       2.1408368377     9.3891556548    -0.8251579176
  100      C       3.3904343285    10.4918099667    -2.1837500489
  101      H       3.3644173488    10.3741679992    -0.0889117534
  102      H       3.2104561897     9.9142721047    -3.0988303117
  103      H       4.4561894671    10.7491198943    -2.1760959134
  104      C       2.3909926241    11.6162606266    -2.3904599737
  105      H       2.4722708466    12.0212404008    -3.4072958666
  106      C       2.6962272702    12.7743108674    -1.4383231921
  107      H       1.3790470515    11.1963010438    -2.3333713854
  108      H       3.6902739822    13.2066086153    -1.6067149721
  109      H       2.5308782497    12.4073001337    -0.4178194818
  110      H       1.9429738980    13.5592600052    -1.5758375852
 ----------------------------------------------------------------

   10   -5663.4794094007      3.13E-06 Convergence criterion met
 Total energy in the final basis set = -5663.4794094007

                    Orbital Energies (a.u.)
 --------------------------------------------------------------

 Alpha MOs
 -- Occupied --
-88.989 -88.987 -88.933 -88.922 -88.919 -88.916 -88.907 -88.902
-14.383 -14.373 -14.368 -14.367 -14.352 -14.350 -14.344 -14.331
-14.330 -14.319 -10.267 -10.265 -10.262 -10.260 -10.255 -10.248
-10.244 -10.243 -10.239 -10.237 -10.237 -10.236 -10.235 -10.235
-10.234 -10.233 -10.233 -10.230 -10.230 -10.229 -10.227 -10.224
-10.223 -10.223 -10.223 -10.220 -10.215 -10.215 -10.213 -10.213
-10.212 -10.207 -10.206 -10.203 -10.202 -10.201 -10.195 -10.195
-10.190 -10.186 -10.185 -10.183 -10.182 -10.181 -10.179 -10.177
-10.175 -10.174 -10.171 -10.170  -8.044  -8.041  -7.995  -7.982
 -7.976  -7.974  -7.966  -7.961  -6.010  -6.006  -6.004  -6.002
 -6.001  -5.999  -5.958  -5.955  -5.952  -5.946  -5.943  -5.941
 -5.939  -5.938  -5.937  -5.935  -5.933  -5.931  -5.930  -5.927
 -5.926  -5.923  -5.923  -5.917  -1.042  -1.017  -0.977  -0.974
 -0.955  -0.947  -0.933  -0.930  -0.902  -0.899  -0.895  -0.884
 -0.839  -0.838  -0.834  -0.830  -0.818  -0.812  -0.805  -0.804
 -0.803  -0.798  -0.797  -0.787  -0.786  -0.782  -0.765  -0.759
 -0.747  -0.744  -0.739  -0.736  -0.720  -0.711  -0.708  -0.708
 -0.691  -0.690  -0.671  -0.669  -0.656  -0.656  -0.643  -0.641
 -0.634  -0.629  -0.622  -0.622  -0.611  -0.610  -0.601  -0.595
 -0.592  -0.587  -0.583  -0.579  -0.579  -0.575  -0.570  -0.563
 -0.545  -0.542  -0.537  -0.534  -0.522  -0.519  -0.514  -0.508
 -0.505  -0.498  -0.495  -0.494  -0.485  -0.484  -0.477  -0.475
 -0.473  -0.472  -0.469  -0.468  -0.458  -0.457  -0.449  -0.446
 -0.442  -0.441  -0.440  -0.439  -0.436  -0.434  -0.430  -0.429
 -0.427  -0.426  -0.423  -0.419  -0.417  -0.416  -0.413  -0.410
 -0.409  -0.407  -0.404  -0.402  -0.397  -0.396  -0.395  -0.394
 -0.393  -0.392  -0.390  -0.387  -0.386  -0.385  -0.383  -0.378
 -0.377  -0.373  -0.373  -0.370  -0.368  -0.366  -0.355  -0.352
 -0.350  -0.349  -0.344  -0.343  -0.340  -0.338  -0.337  -0.336
 -0.335  -0.332  -0.332  -0.329  -0.326  -0.325  -0.324  -0.320
 -0.316  -0.308  -0.307  -0.304  -0.301  -0.298  -0.298  -0.296
 -0.295  -0.292  -0.290  -0.289  -0.288  -0.283  -0.280  -0.277
 -0.275  -0.274  -0.263  -0.258  -0.252  -0.245  -0.243  -0.240
 -0.236  -0.234  -0.230  -0.223  -0.193  -0.185

          Ground-State Mulliken Net Atomic Charges

     Atom                 Charge (a.u.)
  ----------------------------------------
      1 C                     0.285643
      2 C                    -0.120050
      3 N                    -0.476316
      4 C                    -0.092172
      5 C                     0.087310
      6 C                     0.060748
      7 C                     0.027852
      8 C                     0.040775
      9 C                     0.278262
     10 N                    -0.530704
     11 N                    -0.564210
     12 C                     0.193130
     13 C                     0.314684
     14 S                     0.623827
     15 N                    -0.575710
     16 C                    -0.215161
     17 S                     0.343759
     18 C                    -0.117960
     19 C                    -0.229431
     20 S                     0.279681
     21 C                     0.146425
     22 C                     0.032225
     23 C                    -0.310864
     24 C                    -0.071548
     25 N                    -0.405805
     26 S                     0.294378
     27 C                     0.115424
     28 C                    -0.314496
     29 C                    -0.238014
     30 H                     0.088835
     31 H                     0.097368
     32 H                     0.128130
     33 H                     0.108581
     34 H                     0.135751
     35 H                     0.108026
     36 H                     0.113390
     37 H                     0.139904
     38 H                     0.123942
     39 C                    -0.176010
     40 H                     0.097423
     41 H                     0.106934
     42 H                     0.094778
     43 C                    -0.185038
     44 H                     0.093455
     45 C                    -0.168652
     46 H                     0.089046
     47 H                     0.096974
     48 H                     0.096305
     49 C                    -0.187357
     50 H                     0.094322
     51 C                    -0.320817
     52 H                     0.093698
     53 H                     0.101086
     54 H                     0.100453
     55 H                     0.105223
     56 C                     0.276911
     57 C                    -0.126493
     58 N                    -0.488234
     59 C                    -0.083497
     60 C                     0.116766
     61 C                     0.038751
     62 C                     0.024133
     63 C                     0.049002
     64 C                     0.172931
     65 N                    -0.479773
     66 N                    -0.556974
     67 C                     0.301774
     68 C                     0.243176
     69 S                     0.606737
     70 N                    -0.602379
     71 C                    -0.226538
     72 S                     0.335523
     73 C                    -0.107155
     74 C                    -0.244137
     75 S                     0.242041
     76 C                     0.170837
     77 C                     0.071276
     78 C                    -0.285328
     79 C                    -0.077578
     80 N                    -0.419261
     81 S                     0.309810
     82 C                     0.117305
     83 C                    -0.331309
     84 C                    -0.229520
     85 H                     0.083299
     86 H                     0.101448
     87 H                     0.116024
     88 H                     0.102086
     89 H                     0.126621
     90 H                     0.127098
     91 H                     0.111349
     92 H                     0.118578
     93 H                     0.096451
     94 C                    -0.172790
     95 H                     0.120726
     96 H                     0.116176
     97 H                     0.096387
     98 C                    -0.176788
     99 H                     0.090202
    100 C                    -0.165730
    101 H                     0.089926
    102 H                     0.084954
    103 H                     0.085223
    104 C                    -0.183155
    105 H                     0.090510
    106 C                    -0.311673
    107 H                     0.093210
    108 H                     0.106653
    109 H                     0.102824
    110 H                     0.094166
  ----------------------------------------
  Sum of atomic charges =     0.000000

                    Cartesian Multipole Moments
 -----------------------------------------------------------------
    Charge (ESU x 10^10)
                 0.0000
    Dipole Moment (Debye)
         X       0.0753      Y       0.0837      Z      -2.0201
       Tot       2.0233
    Quadrupole Moments (Debye-Ang)
        XX    -396.3983     XY     -17.1337     YY    -419.6059
        XZ      -3.6788     YZ      -3.7802     ZZ    -431.2750

 Total job time:  102.42s(wall), 1092.26s(cpu)
        *  Thank you very much for using Q-Chem.  Have a nice day.  *
