 Q-Chem 4.4, Q-Chem, Inc., Pleasanton, CA (2016)
 Q-Chem 4.4.2 for Intel X86 Linux

User input:
--------------------------------------------------------------
$comment
SP
$end

$rem
MEM_STATIC 5000
MEM_TOTAL 20000
JOBTYPE SP
EXCHANGE B3LYP
BASIS 6-31g(d,p)
$end

$molecule
0 1
C          24.372000     21.691000     -0.842000
C          24.409000     22.895000     -0.126000
N          23.214000     21.186000     -1.201000
C          23.189000     23.578000      0.221000
C          22.005000     21.802000     -0.925000
C          21.979000     23.014000     -0.155000
C          20.694000     23.667000      0.322000
C          20.547000     25.018000      0.432000
C          19.497000     22.932000      0.614000
N          19.430000     25.702000      0.767000
N          19.393000     21.579000      0.497000
C          18.338000     23.564000      0.972000
C          18.271000     24.978000      1.078000
S          17.902000     21.218000      0.928000
N          17.303000     22.749000      1.317000
C          16.981000     25.650000      1.316000
S          15.326000     24.976000      1.057000
C          16.855000     27.011000      1.637000
C          14.513000     26.547000      1.373000
S          18.101000     28.205000      1.990000
C          15.493000     27.424000      1.717000
C          13.093000     26.836000      1.214000
C          16.786000     29.352000      2.244000
C          15.513000     28.813000      2.019000
N          12.698000     28.034000      1.495000
S          11.926000     25.597000      0.971000
C          11.348000     28.154000      1.327000
C          10.777000     26.939000      1.029000
C          25.534000     20.740000     -0.983000
H          25.331000     23.418000      0.110000
H          23.232000     24.589000      0.613000
H          21.073000     21.288000     -1.155000
H          21.451000     25.618000      0.334000
H          17.002000     30.325000      2.663000
H          14.613000     29.386000      2.211000
H          10.825000     29.095000      1.441000
H           9.780000     26.696000      0.686000
H          26.459000     21.306000     -1.143000
C          25.481000     19.640000     -1.997000
H          25.723000     20.326000      0.015000
H          24.566000     19.094000     -1.733000
H          26.382000     19.030000     -1.859000
C          25.442000     20.231000     -3.374000
H          24.531000     20.835000     -3.469000
C          25.351000     19.207000     -4.573000
H          26.200000     20.997000     -3.579000
H          24.442000     18.601000     -4.474000
H          26.156000     18.464000     -4.628000
C          25.488000     19.865000     -5.932000
H          24.743000     20.665000     -6.027000
C          25.150000     18.864000     -7.103000
H          26.509000     20.162000     -6.205000
H          24.102000     18.548000     -7.033000
H          25.687000     17.908000     -7.080000
H          25.308000     19.338000     -8.080000
C          27.418000     30.489000      0.667000
C          26.132000     30.591000      1.281000
N          27.671000     29.632000     -0.297000
C          25.078000     29.781000      0.806000
C          26.662000     28.883000     -0.761000
C          25.332000     28.872000     -0.227000
C          24.325000     27.888000     -0.786000
C          24.727000     26.691000     -1.276000
C          22.912000     28.164000     -0.929000
N          24.056000     25.861000     -1.983000
N          22.313000     29.244000     -0.456000
C          22.143000     27.277000     -1.694000
C          22.717000     26.061000     -2.175000
S          20.757000     29.067000     -0.839000
N          20.839000     27.735000     -1.808000
C          21.923000     25.062000     -3.008000
S          20.164000     24.927000     -3.022000
C          22.528000     24.328000     -4.008000
C          20.343000     23.578000     -4.141000
S          24.158000     24.243000     -4.587000
C          21.640000     23.477000     -4.616000
C          19.285000     23.206000     -5.058000
C          23.677000     23.060000     -5.769000
C          22.339000     22.772000     -5.647000
N          18.430000     24.138000     -5.347000
S          19.088000     21.719000     -5.972000
C          17.733000     23.793000     -6.447000
C          17.794000     22.428000     -6.707000
C          28.530000     31.422000      1.035000
H          26.035000     31.254000      2.135000
H          24.156000     29.713000      1.377000
H          26.857000     28.245000     -1.621000
H          25.758000     26.356000     -1.171000
H          24.405000     22.716000     -6.491000
H          21.844000     22.065000     -6.303000
H          16.957000     24.438000     -6.838000
H          17.368000     21.815000     -7.490000
H          29.209000     31.507000      0.178000
C          29.216000     31.129000      2.387000
H          28.113000     32.419000      1.226000
H          29.349000     30.043000      2.471000
H          28.555000     31.316000      3.243000
C          30.525000     31.818000      2.528000
H          31.317000     31.515000      1.831000
C          31.316000     31.670000      3.911000
H          30.369000     32.839000      2.158000
H          30.514000     31.906000      4.620000
H          32.227000     32.266000      4.044000
C          31.803000     30.179000      4.134000
H          30.889000     29.604000      4.326000
C          32.667000     30.023000      5.402000
H          32.159000     29.770000      3.181000
H          32.715000     29.018000      5.839000
H          32.256000     30.636000      6.214000
H          33.683000     30.376000      5.184000
$end

--------------------------------------------------------------

             Standard Nuclear Orientation (Angstroms)
    I     Atom           X                Y                Z
 ----------------------------------------------------------------
    1      C      -1.9101974150    -3.5260021630    -2.6593290183
    2      C      -2.3180172657    -2.1996830831    -2.4638765492
    3      N      -0.6340242983    -3.8283712960    -2.5898661953
    4      C      -1.3493731190    -1.1685994015    -2.1920439564
    5      C       0.3475728494    -2.8939220563    -2.3059918254
    6      C      -0.0065466168    -1.5118709419    -2.1415104563
    7      C       1.0205154624    -0.4049773265    -1.9831027245
    8      C       0.8073550477     0.6971286318    -1.2092583640
    9      C       2.3337847067    -0.4594051792    -2.5581327245
   10      N       1.6776827986     1.6952311983    -0.9370619774
   11      N       2.7897118887    -1.5035071930    -3.3045209542
   12      C       3.2557207064     0.5254523099    -2.3323923016
   13      C       2.9498399718     1.6511383198    -1.5234491742
   14      S       4.2779531043    -1.1204335970    -3.7258945464
   15      N       4.4286400451     0.4040189823    -3.0135598082
   16      C       3.9985745021     2.6236846068    -1.1675873966
   17      S       5.7872101538     2.3857965299    -1.2352170370
   18      C       3.7434838728     3.8599141621    -0.5528490316
   19      C       6.1403254380     3.9484792052    -0.4214612677
   20      S       2.2073613918     4.6440090881    -0.1946816542
   21      C       4.9419559273     4.5609515108    -0.2300110375
   22      C       7.4479726551     4.4232464399     0.0142643668
   23      C       3.1575231427     5.9830617352     0.4483429609
   24      C       4.5409030324     5.7687794701     0.4034186714
   25      N       7.4970488181     5.5827247927     0.5829395636
   26      S       8.9095373609     3.6547467633    -0.4645841042
   27      C       8.7812456669     5.9094757032     0.9133881920
   28      C       9.6679536305     4.9725974717     0.4368609981
   29      C      -2.7733443323    -4.6109105849    -3.2530268499
   30      H      -3.3604301742    -1.9010052439    -2.4049199834
   31      H      -1.6843025504    -0.1889082111    -1.8669878880
   32      H       1.3967709996    -3.1796653628    -2.3630357077
   33      H      -0.2070403770     0.8480450388    -0.8417720918
   34      H       2.6633009047     6.9076304082     0.7126593400
   35      H       5.2436463497     6.5403279995     0.6967745931
   36      H       9.0342739256     6.8075327028     1.4624567903
   37      H      10.7208464220     4.8324065567     0.6429441781
   38      H      -3.7936496859    -4.5292137080    -2.8607468406
   39      C      -2.3495903267    -6.0430602752    -3.1511209753
   40      H      -2.9403005968    -4.3393695583    -4.3025563048
   41      H      -1.3534594377    -6.0474505014    -3.6123595012
   42      H      -3.0738281716    -6.6355417868    -3.7233011936
   43      C      -2.3377645185    -6.4595666257    -1.7112204196
   44      H      -1.6062749761    -5.8420436452    -1.1751696590
   45      C      -1.8800178848    -7.9418457619    -1.4149526662
   46      H      -3.2442486530    -6.2161301443    -1.1434438848
   47      H      -0.8593693575    -8.0952866859    -1.7865040979
   48      H      -2.4603822478    -8.7287652483    -1.9119777441
   49      C      -2.0563437300    -8.3424753554     0.0366048163
   50      H      -1.5346561110    -7.6227124976     0.6799037023
   51      C      -1.3692378453    -9.7274288457     0.3484947534
   52      H      -3.0901695800    -8.5542298280     0.3391658105
   53      H      -0.2861364253    -9.6498970936     0.1937687332
   54      H      -1.6443588065   -10.5543364087    -0.3173628433
   55      H      -1.5535299663   -10.0298813226     1.3871130247
   56      C      -7.2240370548     3.1288496226     1.3948117037
   57      C      -6.0678800087     3.9156160541     1.1024156249
   58      N      -7.1613856498     1.8292669842     1.5816639648
   59      C      -4.8034713998     3.2893459486     1.0612133839
   60      C      -5.9568573153     1.2433982169     1.5659388628
   61      C      -4.7222492231     1.9079819061     1.2688725760
   62      C      -3.4510630719     1.0889083349     1.1794843561
   63      C      -3.4881507749    -0.2024571532     0.7726518618
   64      C      -2.1482907970     1.5623288312     1.5940340316
   65      N      -2.5662569161    -1.0861563165     0.8630814030
   66      N      -1.8901706214     2.8069308269     1.9590954612
   67      C      -1.1122489687     0.6252371824     1.7028070610
   68      C      -1.3108794482    -0.7182600361     1.2611577019
   69      S      -0.3123717496     2.8325707922     2.2893185865
   70      N       0.0365293467     1.2232354321     2.1986724412
   71      C      -0.2160215946    -1.7741188412     1.3548298122
   72      S       1.5129626272    -1.4348615945     1.4443847203
   73      C      -0.5203278384    -3.0951314139     1.6138751609
   74      C       1.7864489911    -3.1753136994     1.4502736327
   75      S      -2.0151464252    -3.9349772939     1.8578880506
   76      C       0.6068234586    -3.8771215122     1.6346222069
   77      C       2.9831061956    -3.7544218982     2.0258448524
   78      C      -1.1429518915    -5.4245893144     2.0776759569
   79      C       0.2074465871    -5.2200810398     1.9271026708
   80      N       3.5946262648    -3.0308259696     2.9121981324
   81      S       3.6351312029    -5.3725930904     1.8214937261
   82      C       4.4535053262    -3.7964453701     3.6129032711
   83      C       4.7666473701    -4.9808970970     2.9544488938
   84      C      -8.5659409289     3.7640413663     1.5904706967
   85      H      -6.2212168682     4.9636435554     0.8648863340
   86      H      -3.9504355597     3.8312727077     0.6619712979
   87      H      -5.9036916804     0.1851087187     1.8146671345
   88      H      -4.4046936632    -0.6459669919     0.3860523833
   89      H      -1.6904103441    -6.3153813522     2.3540503192
   90      H       0.9239045088    -6.0259656096     2.0386737542
   91      H       5.0714628874    -3.3683571386     4.3913317640
   92      H       5.4042362191    -5.8145558826     3.2167988295
   93      H      -9.1634188515     3.1174219322     2.2443961049
   94      C      -9.2743472808     4.2199440326     0.2963832965
   95      H      -8.4362322099     4.7246131873     2.1051127324
   96      H      -9.1329383899     3.4381877778    -0.4605854502
   97      H      -8.7635005197     5.0618527333    -0.1882313199
   98      C     -10.7230218855     4.4830463622     0.4968877952
   99      H     -11.3448196079     3.6218439482     0.7736187017
  100      C     -11.5723136064     5.0385233578    -0.7402148198
  101      H     -10.7997315729     5.0436932808     1.4368173971
  102      H     -10.9248859129     5.8603959239    -1.0672375512
  103      H     -12.6134070710     5.3293265962    -0.5547859261
  104      C     -11.6809744959     3.9551900161    -1.8911104197
  105      H     -10.6718682918     3.8840938694    -2.3148261343
  106      C     -12.5880527209     4.4142020265    -3.0509263827
  107      H     -11.8327702775     2.9665151418    -1.4419934709
  108      H     -12.4175459047     3.9347717203    -4.0227144291
  109      H     -12.4225520550     5.4789691838    -3.2580843667
  110      H     -13.6363477990     4.2794304885    -2.7554554674
 ----------------------------------------------------------------

   10   -5663.4722516294      3.23E-06 Convergence criterion met
 Total energy in the final basis set = -5663.4722516294

                    Orbital Energies (a.u.)
 --------------------------------------------------------------

 Alpha MOs
 -- Occupied --
-88.987 -88.986 -88.930 -88.925 -88.924 -88.924 -88.914 -88.905
-14.388 -14.385 -14.384 -14.378 -14.353 -14.343 -14.343 -14.336
-14.327 -14.321 -10.270 -10.266 -10.265 -10.260 -10.254 -10.253
-10.253 -10.250 -10.247 -10.242 -10.238 -10.236 -10.234 -10.233
-10.233 -10.232 -10.227 -10.226 -10.226 -10.224 -10.224 -10.224
-10.223 -10.223 -10.220 -10.220 -10.220 -10.219 -10.216 -10.213
-10.209 -10.207 -10.207 -10.204 -10.200 -10.200 -10.196 -10.194
-10.183 -10.183 -10.182 -10.179 -10.178 -10.175 -10.174 -10.174
-10.168 -10.168 -10.166 -10.163  -8.043  -8.041  -7.992  -7.987
 -7.983  -7.983  -7.973  -7.966  -6.008  -6.006  -6.002  -6.001
 -6.001  -5.999  -5.956  -5.953  -5.951  -5.949  -5.947  -5.947
 -5.947  -5.944  -5.944  -5.943  -5.940  -5.939  -5.937  -5.934
 -5.930  -5.929  -5.927  -5.922  -1.037  -1.036  -0.984  -0.984
 -0.967  -0.946  -0.945  -0.930  -0.916  -0.906  -0.900  -0.899
 -0.849  -0.839  -0.831  -0.830  -0.823  -0.812  -0.808  -0.806
 -0.804  -0.801  -0.793  -0.791  -0.779  -0.773  -0.766  -0.766
 -0.749  -0.746  -0.739  -0.739  -0.729  -0.718  -0.708  -0.703
 -0.692  -0.690  -0.674  -0.673  -0.653  -0.650  -0.643  -0.643
 -0.632  -0.628  -0.624  -0.623  -0.610  -0.606  -0.599  -0.599
 -0.598  -0.590  -0.586  -0.581  -0.576  -0.568  -0.565  -0.562
 -0.552  -0.541  -0.540  -0.533  -0.524  -0.523  -0.516  -0.512
 -0.508  -0.508  -0.497  -0.497  -0.488  -0.478  -0.475  -0.473
 -0.470  -0.469  -0.466  -0.463  -0.462  -0.459  -0.451  -0.445
 -0.444  -0.441  -0.440  -0.439  -0.437  -0.436  -0.435  -0.433
 -0.427  -0.424  -0.421  -0.418  -0.417  -0.414  -0.412  -0.409
 -0.407  -0.406  -0.404  -0.401  -0.401  -0.400  -0.397  -0.395
 -0.392  -0.391  -0.388  -0.388  -0.387  -0.386  -0.381  -0.379
 -0.377  -0.375  -0.374  -0.369  -0.366  -0.363  -0.358  -0.357
 -0.354  -0.350  -0.349  -0.348  -0.346  -0.344  -0.340  -0.336
 -0.334  -0.334  -0.330  -0.329  -0.326  -0.324  -0.321  -0.316
 -0.312  -0.310  -0.305  -0.304  -0.303  -0.302  -0.299  -0.297
 -0.295  -0.294  -0.293  -0.292  -0.286  -0.284  -0.281  -0.279
 -0.275  -0.270  -0.263  -0.257  -0.254  -0.250  -0.245  -0.243
 -0.243  -0.238  -0.231  -0.229  -0.195  -0.191

          Ground-State Mulliken Net Atomic Charges

     Atom                 Charge (a.u.)
  ----------------------------------------
      1 C                     0.318050
      2 C                    -0.125355
      3 N                    -0.501183
      4 C                    -0.077117
      5 C                     0.090689
      6 C                     0.031482
      7 C                     0.081882
      8 C                     0.056610
      9 C                     0.202143
     10 N                    -0.532682
     11 N                    -0.533074
     12 C                     0.209121
     13 C                     0.281988
     14 S                     0.602483
     15 N                    -0.571576
     16 C                    -0.216474
     17 S                     0.313641
     18 C                    -0.120286
     19 C                    -0.244594
     20 S                     0.282626
     21 C                     0.171648
     22 C                     0.099604
     23 C                    -0.307083
     24 C                    -0.068729
     25 N                    -0.442736
     26 S                     0.270850
     27 C                     0.139836
     28 C                    -0.318054
     29 C                    -0.239919
     30 H                     0.085917
     31 H                     0.098678
     32 H                     0.128651
     33 H                     0.090888
     34 H                     0.127280
     35 H                     0.121077
     36 H                     0.122539
     37 H                     0.129465
     38 H                     0.094283
     39 C                    -0.159495
     40 H                     0.111601
     41 H                     0.115384
     42 H                     0.085086
     43 C                    -0.186693
     44 H                     0.125332
     45 C                    -0.166157
     46 H                     0.082956
     47 H                     0.092000
     48 H                     0.082077
     49 C                    -0.184692
     50 H                     0.093346
     51 C                    -0.330470
     52 H                     0.095095
     53 H                     0.098015
     54 H                     0.099329
     55 H                     0.092599
     56 C                     0.282634
     57 C                    -0.125188
     58 N                    -0.481893
     59 C                    -0.064353
     60 C                     0.065898
     61 C                     0.038906
     62 C                     0.065409
     63 C                     0.017569
     64 C                     0.211538
     65 N                    -0.483815
     66 N                    -0.552706
     67 C                     0.210087
     68 C                     0.243975
     69 S                     0.632245
     70 N                    -0.553560
     71 C                    -0.223013
     72 S                     0.378289
     73 C                    -0.102277
     74 C                    -0.235642
     75 S                     0.281104
     76 C                     0.149544
     77 C                     0.040166
     78 C                    -0.299917
     79 C                    -0.085145
     80 N                    -0.384384
     81 S                     0.275569
     82 C                     0.088637
     83 C                    -0.295410
     84 C                    -0.231721
     85 H                     0.090111
     86 H                     0.111143
     87 H                     0.102244
     88 H                     0.102382
     89 H                     0.143878
     90 H                     0.099377
     91 H                     0.110571
     92 H                     0.132613
     93 H                     0.121506
     94 C                    -0.176011
     95 H                     0.104942
     96 H                     0.106041
     97 H                     0.091189
     98 C                    -0.184789
     99 H                     0.096202
    100 C                    -0.187163
    101 H                     0.083847
    102 H                     0.091833
    103 H                     0.094925
    104 C                    -0.176529
    105 H                     0.095550
    106 C                    -0.325393
    107 H                     0.097250
    108 H                     0.103475
    109 H                     0.106315
    110 H                     0.104055
  ----------------------------------------
  Sum of atomic charges =     0.000000

                    Cartesian Multipole Moments
 -----------------------------------------------------------------
    Charge (ESU x 10^10)
                 0.0000
    Dipole Moment (Debye)
         X       3.3719      Y       1.4096      Z       0.3883
       Tot       3.6752
    Quadrupole Moments (Debye-Ang)
        XX    -402.5853     XY      -3.4687     YY    -414.2684
        XZ      14.6641     YZ      -4.0338     ZZ    -448.4737

 Total job time:  108.08s(wall), 1170.61s(cpu)
        *  Thank you very much for using Q-Chem.  Have a nice day.  *
