 Q-Chem 4.4, Q-Chem, Inc., Pleasanton, CA (2016)
 Q-Chem 4.4.2 for Intel X86 Linux

User input:
--------------------------------------------------------------
$comment
SP
$end

$rem
MEM_STATIC 5000
MEM_TOTAL 20000
JOBTYPE SP
EXCHANGE B3LYP
BASIS 6-31g(d,p)
$end

$molecule
0 1
C          28.279000     25.827000      3.338000
C          27.909000     24.771000      4.204000
N          27.491000     26.835000      2.982000
C          26.558000     24.780000      4.687000
C          26.262000     26.742000      3.415000
C          25.658000     25.783000      4.214000
C          24.200000     25.891000      4.686000
C          23.781000     25.308000      5.920000
C          23.143000     26.479000      3.993000
N          22.465000     25.242000      6.291000
N          23.311000     27.145000      2.842000
C          21.834000     26.586000      4.453000
C          21.484000     25.841000      5.621000
S          21.868000     27.736000      2.371000
N          20.967000     27.313000      3.699000
C          20.146000     25.648000      6.149000
S          18.666000     26.151000      5.284000
C          19.852000     24.841000      7.243000
C          17.702000     25.520000      6.576000
S          20.780000     24.186000      8.541000
C          18.489000     24.844000      7.441000
C          16.270000     25.602000      6.536000
C          19.318000     23.657000      9.336000
C          18.171000     24.104000      8.629000
N          15.589000     24.647000      7.234000
S          15.429000     26.507000      5.333000
C          14.275000     24.612000      6.847000
C          14.030000     25.599000      5.905000
C          29.756000     26.076000      2.908000
H          28.660000     24.017000      4.422000
H          26.165000     24.087000      5.424000
H          25.671000     27.637000      3.224000
H          24.481000     24.707000      6.498000
H          19.343000     23.017000     10.208000
H          17.164000     23.857000      8.945000
H          13.511000     23.968000      7.264000
H          13.077000     25.760000      5.419000
H          30.062000     25.417000      2.085000
C          30.711000     26.047000      4.042000
H          29.744000     26.998000      2.314000
H          30.692000     25.007000      4.390000
H          30.377000     26.819000      4.747000
C          32.123000     26.441000      3.529000
H          32.337000     25.938000      2.578000
C          33.220000     26.179000      4.517000
H          32.093000     27.504000      3.263000
H          33.227000     25.102000      4.726000
H          32.926000     26.661000      5.457000
C          34.593000     26.588000      4.054000
H          35.017000     25.874000      3.337000
C          35.506000     26.774000      5.321000
H          34.412000     27.516000      3.497000
H          36.454000     27.199000      4.969000
H          35.714000     25.836000      5.850000
H          35.083000     27.503000      6.024000
C          27.418000     30.489000      0.667000
C          26.132000     30.591000      1.281000
N          27.671000     29.632000     -0.297000
C          25.078000     29.781000      0.806000
C          26.662000     28.883000     -0.761000
C          25.332000     28.872000     -0.227000
C          24.325000     27.888000     -0.786000
C          24.727000     26.691000     -1.276000
C          22.912000     28.164000     -0.929000
N          24.056000     25.861000     -1.983000
N          22.313000     29.244000     -0.456000
C          22.143000     27.277000     -1.694000
C          22.717000     26.061000     -2.175000
S          20.757000     29.067000     -0.839000
N          20.839000     27.735000     -1.808000
C          21.923000     25.062000     -3.008000
S          20.164000     24.927000     -3.022000
C          22.528000     24.328000     -4.008000
C          20.343000     23.578000     -4.141000
S          24.158000     24.243000     -4.587000
C          21.640000     23.477000     -4.616000
C          19.285000     23.206000     -5.058000
C          23.677000     23.060000     -5.769000
C          22.339000     22.772000     -5.647000
N          18.430000     24.138000     -5.347000
S          19.088000     21.719000     -5.972000
C          17.733000     23.793000     -6.447000
C          17.794000     22.428000     -6.707000
C          28.530000     31.422000      1.035000
H          26.035000     31.254000      2.135000
H          24.156000     29.713000      1.377000
H          26.857000     28.245000     -1.621000
H          25.758000     26.356000     -1.171000
H          24.405000     22.716000     -6.491000
H          21.844000     22.065000     -6.303000
H          16.957000     24.438000     -6.838000
H          17.368000     21.815000     -7.490000
H          29.209000     31.507000      0.178000
C          29.216000     31.129000      2.387000
H          28.113000     32.419000      1.226000
H          29.349000     30.043000      2.471000
H          28.555000     31.316000      3.243000
C          30.525000     31.818000      2.528000
H          31.317000     31.515000      1.831000
C          31.316000     31.670000      3.911000
H          30.369000     32.839000      2.158000
H          30.514000     31.906000      4.620000
H          32.227000     32.266000      4.044000
C          31.803000     30.179000      4.134000
H          30.889000     29.604000      4.326000
C          32.667000     30.023000      5.402000
H          32.159000     29.770000      3.181000
H          32.715000     29.018000      5.839000
H          32.256000     30.636000      6.214000
H          33.683000     30.376000      5.184000
$end

--------------------------------------------------------------

             Standard Nuclear Orientation (Angstroms)
    I     Atom           X                Y                Z
 ----------------------------------------------------------------
    1      C      -4.7398209279     0.2917136653    -1.9563175840
    2      C      -4.2999834118     1.1806246577    -2.9654618784
    3      N      -4.2056803539     0.1862916685    -0.7449860646
    4      C      -3.1559296906     1.9889821798    -2.6551874846
    5      C      -3.1351079121     0.9114802529    -0.5590958714
    6      C      -2.4889380680     1.7985183323    -1.4067549882
    7      C      -1.2703978402     2.6271645040    -0.9723390179
    8      C      -1.0027333617     3.9029272081    -1.5545685687
    9      C      -0.2898870867     2.2472298582    -0.0571940417
   10      N       0.1556882461     4.5912025207    -1.3133436269
   11      N      -0.3662255872     1.1183532253     0.6614094518
   12      C       0.7929140990     3.0266226389     0.3385564929
   13      C       1.0569887355     4.2147545338    -0.4100129339
   14      S       0.9215690384     1.0506066167     1.6565809945
   15      N       1.5716229774     2.5452455530     1.3438537543
   16      C       2.2351003898     5.0553517750    -0.3017253162
   17      S       3.6733353496     4.6125444541     0.6611017072
   18      C       2.4815308163     6.1553529752    -1.1164586495
   19      C       4.4486991178     6.0800592824     0.1692356118
   20      S       1.4997422142     7.1501210391    -2.1271715859
   21      C       3.7044981887     6.6909624388    -0.7781462070
   22      C       5.7689693601     6.4061092023     0.6269756439
   23      C       2.8256260728     8.2668752182    -2.3374145340
   24      C       3.9327270352     7.8905503435    -1.5324461821
   25      N       6.5091561515     7.2150950389    -0.1858314857
   26      S       6.5776488614     5.4911087821     1.8444840403
   27      C       7.8327092884     7.1712510629     0.1661270339
   28      C       8.0027201931     6.3613800565     1.2782256111
   29      C      -6.0858212882    -0.4870106746    -2.0578135559
   30      H      -4.8388400277     1.1720077497    -3.9086481254
   31      H      -2.7664760811     2.7733302427    -3.2962732841
   32      H      -2.7910627578     0.9113857339     0.4745481306
   33      H      -1.6203861884     4.2612829024    -2.3763782681
   34      H       2.7795545960     9.0783212924    -3.0515865634
   35      H       4.8667616955     8.4404952920    -1.5397815108
   36      H       8.6282034404     7.7418095738    -0.2964451657
   37      H       8.9580135634     6.1384425112     1.7343390044
   38      H      -5.9954865098    -1.3859868778    -2.6814540083
   39      C      -7.2301482099     0.3671309916    -2.4575383493
   40      H      -6.1953040246    -1.0218185661    -1.1064681666
   41      H      -7.0017105458     0.6672651585    -3.4874901517
   42      H      -7.2987120611     1.1635588657    -1.7054967017
   43      C      -8.5369882679    -0.4696985385    -2.3940214198
   44      H      -8.3749939015    -1.4630357992    -2.8301921567
   45      C      -9.7144732484     0.1982336913    -3.0386861832
   46      H      -8.7452294329    -0.6772762277    -1.3380043176
   47      H      -9.4676731090     0.3559558607    -4.0959810373
   48      H      -9.7935105221     1.2003004051    -2.6005361969
   49      C     -11.0007741974    -0.5798177359    -2.9559526041
   50      H     -11.0295191233    -1.4082733354    -3.6746291996
   51      C     -12.1970413834     0.4220102677    -3.1527760552
   52      H     -10.9630820983    -1.0359557939    -1.9586004207
   53      H     -13.1176442776    -0.1408100363    -2.9554017492
   54      H     -12.2505938662     0.8438667981    -4.1637746702
   55      H     -12.1701860407     1.2372710818    -2.4184684933
   56      C      -4.6249341707    -1.8889979020     3.0277674969
   57      C      -3.5978499495    -0.9667203692     3.3961398017
   58      N      -4.3970712168    -2.9187419777     2.2432551562
   59      C      -2.2789590121    -1.1919109010     2.9461876713
   60      C      -3.1397406882    -3.1422456987     1.8388493838
   61      C      -2.0214659070    -2.2906726493     2.1189598180
   62      C      -0.6781367212    -2.6158174008     1.4988520942
   63      C      -0.6036690934    -3.2383471521     0.2982587904
   64      C       0.5939501486    -2.3864760374     2.1487686539
   65      N       0.4178134606    -3.7853085062    -0.2461644540
   66      N       0.7397190555    -1.7352781377     3.2905316421
   67      C       1.7361374497    -2.9670271938     1.5815618804
   68      C       1.6536166797    -3.6250248265     0.3167605372
   69      S       2.3275658459    -1.7197798758     3.5692005749
   70      N       2.8489705650    -2.7299689581     2.3743934202
   71      C       2.8662337485    -4.2694354339    -0.3440123539
   72      S       4.5458941705    -3.8442816377    -0.0116163303
   73      C       2.7400730440    -5.4179780199    -1.0988066336
   74      C       5.0164672813    -5.0246495820    -1.2319832682
   75      S       1.3796617239    -6.3925814582    -1.5446711625
   76      C       3.9466400629    -5.8152781236    -1.6172250518
   77      C       6.3188044481    -5.6588451470    -1.2132512241
   78      C       2.4331461066    -7.4606920551    -2.4263085075
   79      C       3.7319733931    -7.0163738567    -2.3654725116
   80      N       6.9211243201    -5.6855824643    -0.0644841077
   81      S       7.1307922819    -6.5515587752    -2.4896179957
   82      C       7.9220217293    -6.5867639267    -0.0946560840
   83      C       8.3079113259    -6.9074901486    -1.3918722995
   84      C      -6.0075185051    -1.7770345636     3.5920207815
   85      H      -3.8911835372    -0.0903730416     3.9655823078
   86      H      -1.5333600714    -0.4098109078     3.0608646979
   87      H      -2.9433127157    -4.0481438353     1.2683814902
   88      H      -1.4945669666    -3.4103309134    -0.3041808874
   89      H       2.0187009487    -8.3560946252    -2.8691329068
   90      H       4.5432206511    -7.5535936916    -2.8434711886
   91      H       8.5548032291    -6.7434026351     0.7691343354
   92      H       9.0579789407    -7.5811964206    -1.7841125732
   93      H      -6.4652290369    -2.7736287459     3.5880076914
   94      C      -6.8778157195    -0.6546609191     2.9860429267
   95      H      -5.9426769607    -1.4476996469     4.6368715301
   96      H      -6.7168977386    -0.6499516846     1.9005825513
   97      H      -6.5128519076     0.3471747896     3.2463362781
   98      C      -8.3229378945    -0.8215369152     3.2891226215
   99      H      -8.8142838797    -1.7073041519     2.8661834706
  100      C      -9.3388593239     0.3100343388     2.7914036784
  101      H      -8.3779324565    -1.0995165318     4.3490188102
  102      H      -8.8222066163     1.2072790769     3.1514076502
  103      H     -10.3853144749     0.2322150410     3.1103108339
  104      C      -9.4264492344     0.3437597627     1.2098950305
  105      H      -8.4584080615     0.7373788132     0.8769606067
  106      C     -10.4814787203     1.3454045108     0.6977655717
  107      H      -9.4226084568    -0.6836404780     0.8269328995
  108      H     -10.3458885794     1.7160552008    -0.3257242327
  109      H     -10.4585630850     2.2584326914     1.3059500955
  110      H     -11.4763103348     0.8921249417     0.7938732767
 ----------------------------------------------------------------

   11   -5663.4744106103      9.82E-06 Convergence criterion met
 Total energy in the final basis set = -5663.4744106103

                    Orbital Energies (a.u.)
 --------------------------------------------------------------

 Alpha MOs
 -- Occupied --
-88.990 -88.985 -88.936 -88.927 -88.925 -88.924 -88.909 -88.907
-14.390 -14.386 -14.381 -14.376 -14.346 -14.344 -14.343 -14.337
-14.322 -14.321 -10.270 -10.265 -10.261 -10.257 -10.257 -10.255
-10.253 -10.251 -10.242 -10.240 -10.239 -10.236 -10.235 -10.235
-10.232 -10.227 -10.226 -10.225 -10.225 -10.225 -10.222 -10.222
-10.221 -10.221 -10.221 -10.221 -10.219 -10.217 -10.216 -10.211
-10.210 -10.205 -10.205 -10.203 -10.201 -10.200 -10.195 -10.194
-10.181 -10.179 -10.178 -10.178 -10.177 -10.176 -10.174 -10.174
-10.173 -10.172 -10.170 -10.166  -8.046  -8.040  -7.997  -7.988
 -7.985  -7.984  -7.969  -7.968  -6.011  -6.005  -6.005  -6.003
 -5.999  -5.997  -5.961  -5.958  -5.955  -5.952  -5.950  -5.948
 -5.948  -5.946  -5.945  -5.945  -5.942  -5.941  -5.934  -5.932
 -5.930  -5.928  -5.926  -5.924  -1.041  -1.033  -0.985  -0.966
 -0.965  -0.954  -0.949  -0.939  -0.918  -0.917  -0.903  -0.900
 -0.850  -0.848  -0.828  -0.828  -0.824  -0.811  -0.811  -0.807
 -0.803  -0.802  -0.795  -0.791  -0.783  -0.776  -0.766  -0.765
 -0.748  -0.744  -0.739  -0.739  -0.730  -0.727  -0.707  -0.705
 -0.693  -0.689  -0.675  -0.670  -0.651  -0.651  -0.644  -0.641
 -0.634  -0.628  -0.624  -0.621  -0.608  -0.605  -0.600  -0.598
 -0.595  -0.591  -0.586  -0.584  -0.575  -0.574  -0.572  -0.563
 -0.554  -0.542  -0.541  -0.538  -0.525  -0.523  -0.517  -0.509
 -0.504  -0.503  -0.498  -0.496  -0.485  -0.485  -0.477  -0.476
 -0.471  -0.469  -0.467  -0.464  -0.461  -0.459  -0.451  -0.447
 -0.445  -0.441  -0.441  -0.438  -0.437  -0.434  -0.432  -0.431
 -0.425  -0.424  -0.423  -0.419  -0.417  -0.415  -0.414  -0.412
 -0.410  -0.404  -0.404  -0.401  -0.399  -0.399  -0.398  -0.396
 -0.395  -0.393  -0.392  -0.391  -0.388  -0.384  -0.383  -0.382
 -0.379  -0.377  -0.374  -0.372  -0.363  -0.360  -0.356  -0.355
 -0.353  -0.350  -0.349  -0.347  -0.346  -0.346  -0.344  -0.343
 -0.338  -0.337  -0.335  -0.333  -0.325  -0.322  -0.321  -0.320
 -0.314  -0.312  -0.307  -0.306  -0.303  -0.301  -0.299  -0.296
 -0.295  -0.294  -0.292  -0.291  -0.285  -0.283  -0.283  -0.280
 -0.268  -0.267  -0.264  -0.259  -0.252  -0.251  -0.247  -0.247
 -0.245  -0.244  -0.230  -0.228  -0.191  -0.190

          Ground-State Mulliken Net Atomic Charges

     Atom                 Charge (a.u.)
  ----------------------------------------
      1 C                     0.249316
      2 C                    -0.112382
      3 N                    -0.463084
      4 C                    -0.097092
      5 C                     0.080780
      6 C                     0.069717
      7 C                     0.038278
      8 C                     0.047155
      9 C                     0.235223
     10 N                    -0.547139
     11 N                    -0.558583
     12 C                     0.186278
     13 C                     0.339297
     14 S                     0.603329
     15 N                    -0.579929
     16 C                    -0.232675
     17 S                     0.316685
     18 C                    -0.102757
     19 C                    -0.214085
     20 S                     0.291614
     21 C                     0.158691
     22 C                     0.051412
     23 C                    -0.320377
     24 C                    -0.060544
     25 N                    -0.441980
     26 S                     0.287088
     27 C                     0.142451
     28 C                    -0.309490
     29 C                    -0.246986
     30 H                     0.098236
     31 H                     0.095821
     32 H                     0.104125
     33 H                     0.110428
     34 H                     0.133121
     35 H                     0.123190
     36 H                     0.126893
     37 H                     0.121289
     38 H                     0.099171
     39 C                    -0.169013
     40 H                     0.126553
     41 H                     0.091459
     42 H                     0.106481
     43 C                    -0.194512
     44 H                     0.085783
     45 C                    -0.158071
     46 H                     0.102735
     47 H                     0.083664
     48 H                     0.088899
     49 C                    -0.178552
     50 H                     0.095234
     51 C                    -0.323841
     52 H                     0.094631
     53 H                     0.096677
     54 H                     0.105973
     55 H                     0.107137
     56 C                     0.294600
     57 C                    -0.125473
     58 N                    -0.483963
     59 C                    -0.060024
     60 C                     0.073791
     61 C                     0.045163
     62 C                     0.069725
     63 C                     0.036909
     64 C                     0.211654
     65 N                    -0.489653
     66 N                    -0.557221
     67 C                     0.212228
     68 C                     0.260411
     69 S                     0.605412
     70 N                    -0.558371
     71 C                    -0.225873
     72 S                     0.372189
     73 C                    -0.103268
     74 C                    -0.230331
     75 S                     0.283347
     76 C                     0.145765
     77 C                     0.041266
     78 C                    -0.301845
     79 C                    -0.083426
     80 N                    -0.386091
     81 S                     0.275052
     82 C                     0.087986
     83 C                    -0.294678
     84 C                    -0.233993
     85 H                     0.088468
     86 H                     0.108010
     87 H                     0.098884
     88 H                     0.111246
     89 H                     0.138467
     90 H                     0.097608
     91 H                     0.110326
     92 H                     0.132596
     93 H                     0.119126
     94 C                    -0.181725
     95 H                     0.102759
     96 H                     0.120010
     97 H                     0.091166
     98 C                    -0.183977
     99 H                     0.094379
    100 C                    -0.191524
    101 H                     0.082758
    102 H                     0.093037
    103 H                     0.093875
    104 C                    -0.181941
    105 H                     0.102108
    106 C                    -0.332647
    107 H                     0.101712
    108 H                     0.108761
    109 H                     0.106566
    110 H                     0.104941
  ----------------------------------------
  Sum of atomic charges =     0.000000

                    Cartesian Multipole Moments
 -----------------------------------------------------------------
    Charge (ESU x 10^10)
                 0.0000
    Dipole Moment (Debye)
         X       3.3034      Y       0.2867      Z      -0.9975
       Tot       3.4626
    Quadrupole Moments (Debye-Ang)
        XX    -397.5618     XY     -10.1193     YY    -419.6356
        XZ       7.1766     YZ      11.8631     ZZ    -431.3208

 Total job time:  109.51s(wall), 1218.82s(cpu)
        *  Thank you very much for using Q-Chem.  Have a nice day.  *
