 Q-Chem 4.4, Q-Chem, Inc., Pleasanton, CA (2016)
 Q-Chem 4.4.2 for Intel X86 Linux

User input:
--------------------------------------------------------------
$comment
SP
$end

$rem
MEM_STATIC 5000
MEM_TOTAL 20000
JOBTYPE SP
EXCHANGE B3LYP
BASIS 6-31g(d,p)
$end

$molecule
0 1
C          25.688000     -8.848000     -1.914000
C          24.764000     -7.964000     -2.458000
N          25.768000     -9.166000     -0.626000
C          23.845000     -7.397000     -1.561000
C          24.951000     -8.650000      0.256000
C          23.927000     -7.726000     -0.199000
C          23.044000     -7.095000      0.839000
C          23.502000     -6.633000      2.139000
C          21.687000     -6.895000      0.619000
N          22.709000     -6.050000      3.064000
N          21.068000     -7.270000     -0.551000
C          20.893000     -6.421000      1.612000
C          21.416000     -6.036000      2.886000
S          19.444000     -7.147000     -0.167000
N          19.593000     -6.460000      1.311000
C          20.555000     -5.740000      4.052000
S          18.884000     -6.197000      4.290000
C          21.045000     -5.064000      5.179000
C          18.920000     -5.726000      5.987000
S          22.550000     -4.311000      5.567000
C          20.089000     -5.111000      6.285000
C          17.848000     -5.826000      6.931000
C          22.005000     -4.205000      7.249000
C          20.688000     -4.637000      7.470000
N          16.650000     -5.830000      6.317000
S          17.872000     -5.967000      8.704000
C          15.682000     -5.878000      7.306000
C          16.178000     -5.935000      8.585000
C          26.806000     -9.373000     -2.781000
H          24.756000     -7.606000     -3.483000
H          23.211000     -6.627000     -1.991000
H          25.018000     -9.003000      1.284000
H          24.584000     -6.590000      2.247000
H          22.756000     -3.970000      7.992000
H          20.214000     -4.596000      8.444000
H          14.654000     -5.950000      6.974000
H          15.460000     -5.933000      9.394000
H          26.683000    -10.433000     -3.036000
C          28.291000     -9.076000     -2.174000
H          26.741000     -8.919000     -3.777000
H          28.516000     -9.765000     -1.350000
H          28.370000     -8.067000     -1.751000
C          29.359000     -9.328000     -3.325000
H          29.505000    -10.414000     -3.385000
C          30.709000     -8.628000     -2.979000
H          29.033000     -8.898000     -4.281000
H          31.081000     -8.819000     -1.965000
H          30.584000     -7.539000     -3.024000
C          31.815000     -9.004000     -3.975000
H          31.998000    -10.071000     -3.793000
C          33.099000     -8.237000     -3.711000
H          31.521000     -9.068000     -5.030000
H          33.315000     -8.128000     -2.641000
H          33.031000     -7.252000     -4.190000
H          33.845000     -8.874000     -4.204000
C          16.904000      0.983000     12.943000
C          17.900000      1.793000     12.333000
N          17.064000     -0.315000     13.077000
C          19.049000      1.173000     11.725000
C          18.175000     -0.878000     12.512000
C          19.223000     -0.220000     11.873000
C          20.419000     -1.057000     11.367000
C          21.204000     -0.558000     10.194000
C          21.058000     -2.065000     12.129000
N          22.380000     -1.117000      9.861000
N          20.533000     -2.527000     13.343000
C          22.206000     -2.623000     11.801000
C          22.875000     -2.138000     10.610000
S          21.644000     -3.508000     13.931000
N          22.654000     -3.560000     12.625000
C          24.120000     -2.812000     10.164000
S          24.955000     -4.192000     10.951000
C          24.905000     -2.507000      9.078000
C          26.372000     -4.142000      9.970000
S          24.452000     -1.649000      7.620000
C          26.108000     -3.244000      9.059000
C          27.572000     -4.922000     10.036000
C          26.138000     -1.950000      7.088000
C          26.841000     -2.856000      7.869000
N          27.364000     -6.043000     10.719000
S          29.173000     -4.581000      9.406000
C          28.556000     -6.748000     10.881000
C          29.640000     -6.108000     10.195000
C          15.521000      1.488000     13.338000
H          17.802000      2.874000     12.301000
H          19.733000      1.738000     11.098000
H          18.258000     -1.936000     12.757000
H          20.842000      0.193000      9.494000
H          26.438000     -1.623000      6.101000
H          27.821000     -3.180000      7.537000
H          28.561000     -7.649000     11.482000
H          30.633000     -6.536000     10.160000
H          14.617000      1.036000     12.911000
C          15.267000      3.031000     13.310000
H          15.433000      1.165000     14.383000
H          15.888000      3.342000     12.461000
H          15.864000      3.451000     14.129000
C          13.790000      3.489000     13.250000
H          13.275000      2.983000     12.424000
C          13.513000      5.036000     13.117000
H          13.358000      3.091000     14.177000
H          13.998000      5.297000     12.168000
H          13.980000      5.628000     13.915000
C          12.057000      5.409000     12.895000
H          11.550000      4.925000     12.051000
C          11.916000      6.881000     12.551000
H          11.581000      5.147000     13.848000
H          10.856000      7.005000     12.300000
H          12.579000      7.099000     11.705000
H          12.115000      7.544000     13.403000
$end

--------------------------------------------------------------

             Standard Nuclear Orientation (Angstroms)
    I     Atom           X                Y                Z
 ----------------------------------------------------------------
    1      C      10.2232226375     2.2386156109     0.3069891857
    2      C       9.7019323670     3.2637218375     1.0871056372
    3      N       9.5082834598     1.4535004163    -0.4923380961
    4      C       8.3182033727     3.4778487712     0.9865933168
    5      C       8.2126924761     1.5950352793    -0.6067097948
    6      C       7.5573430080     2.6494024998     0.1470831735
    7      C       6.0619962591     2.7504643233     0.0521168187
    8      C       5.1600228262     1.6108551234     0.0214118028
    9      C       5.4157437659     3.9787864751    -0.0064613885
   10      N       3.8143296621     1.7049355528    -0.0465718775
   11      N       6.1003986056     5.1719949741     0.0072217539
   12      C       4.0739293716     4.0401631442    -0.1986280758
   13      C       3.2611288378     2.8658298540    -0.2702284658
   14      S       4.9258998626     6.2782933061    -0.4361941944
   15      N       3.6294228168     5.2795450174    -0.4187836914
   16      C       1.8479234922     2.8920377823    -0.7068711063
   17      S       1.0309715700     4.1482524304    -1.6081193045
   18      C       0.9818361656     1.8145476360    -0.4699898547
   19      C      -0.3750166887     3.1276386645    -1.8987918993
   20      S       1.1281559354     0.3228983788     0.3880025804
   21      C      -0.2734584707     1.9694777758    -1.2045734292
   22      C      -1.5507422507     3.4726681715    -2.6396994793
   23      C      -0.3937585005    -0.1951802586    -0.3554730247
   24      C      -1.0267051624     0.7793136836    -1.1426795287
   25      N      -1.7380507275     4.8053317531    -2.6734531863
   26      S      -2.7223527652     2.4481547710    -3.5009120516
   27      C      -2.9164908167     5.0369075125    -3.3627286203
   28      C      -3.5343231961     3.9032538831    -3.8298673573
   29      C      11.6690215291     1.8421966090     0.4794871278
   30      H      10.2493661283     3.8378083303     1.8284516940
   31      H       7.9219894150     4.2056830584     1.6887526649
   32      H       7.6914067323     0.9706265243    -1.3307656490
   33      H       5.6255552053     0.6601215679     0.2736464366
   34      H      -0.6409784081    -1.2461813497    -0.2809477020
   35      H      -1.9805488841     0.6101566814    -1.6290960819
   36      H      -3.1818446342     6.0725887835    -3.5334437525
   37      H      -4.4797508389     4.0301651476    -4.3398370654
   38      H      12.2948300843     2.1398503898    -0.3711125895
   39      C      11.8695783124     0.2640589141     0.8416216230
   40      H      12.1201867663     2.4418171578     1.2790258236
   41      H      11.7360326421    -0.3572112402    -0.0530911518
   42      H      11.1267979942    -0.0909143955     1.5665508254
   43      C      13.3586418264     0.0574625828     1.3602127984
   44      H      13.9991028061     0.0245819216     0.4696845308
   45      C      13.4795269302    -1.2805863082     2.1521900437
   46      H      13.6574260637     0.8493900036     2.0592771300
   47      H      13.0487800922    -2.1548895606     1.6490876839
   48      H      12.9226787961    -1.2051543320     3.0944220600
   49      C      14.9385263714    -1.6007742978     2.5063485986
   50      H      15.4182131028    -1.8029914004     1.5398544790
   51      C      15.0507842208    -2.8411709665     3.3755179028
   52      H      15.5613859739    -0.7546763989     2.8221353323
   53      H      14.3551478239    -3.6340616147     3.0741022045
   54      H      14.8800151981    -2.5597949582     4.4223968274
   55      H      16.0929826033    -3.1406032414     3.2037714494
   56      C      -9.5605291465     0.4865137585     0.5733919769
   57      C      -9.0015443654    -0.0211614910     1.7775588488
   58      N      -8.9478311255     0.3417237630    -0.5807297638
   59      C      -7.6768256560    -0.5861792956     1.7657173399
   60      C      -7.7006361481    -0.2194365274    -0.5698294489
   61      C      -7.0210546248    -0.7458357641     0.5259176920
   62      C      -5.6395802725    -1.3970796692     0.2926131916
   63      C      -4.6432132036    -1.3954755835     1.4099336876
   64      C      -5.3607453331    -2.3069284040    -0.7559359758
   65      N      -3.5279634475    -2.1424947003     1.3426550079
   66      N      -6.2686950106    -2.5468670679    -1.7956098769
   67      C      -4.2640623334    -3.0338944006    -0.8311612228
   68      C      -3.3085552328    -2.9262446167     0.2535897647
   69      S      -5.6346203937    -3.7456868276    -2.6341840024
   70      N      -4.1624339333    -3.8259747084    -1.8894284169
   71      C      -2.0223517848    -3.6597856711     0.1495935548
   72      S      -1.4804055294    -4.7265716825    -1.1880371349
   73      C      -0.9941297270    -3.6984314590     1.0605885620
   74      C      -0.0751680886    -5.3309008998    -0.3925222500
   75      S      -0.6127135023    -2.5366706664     2.3143710489
   76      C      -0.0009638282    -4.6381347004     0.7122807735
   77      C       0.8770976030    -6.3145635679    -0.8148418068
   78      C       0.7841063217    -3.6007315688     2.6789115478
   79      C       1.0337490114    -4.5788270238     1.7270639716
   80      N       0.8257451744    -6.4794910547    -2.1326262551
   81      S       1.9902237363    -7.2841031413     0.1324307131
   82      C       1.6700046391    -7.5150032413    -2.5314664083
   83      C       2.4101415306    -8.0432260593    -1.4231207780
   84      C     -10.8011970331     1.3704696137     0.5176762574
   85      H      -9.5496891584     0.0251053480     2.7138203857
   86      H      -7.1502197924    -0.8165148265     2.6875859898
   87      H      -7.3217441970    -0.3760564179    -1.5788830150
   88      H      -4.6982523229    -0.7356475621     2.2740185663
   89      H       1.4797255702    -3.2993264605     3.4511594496
   90      H       1.9334052734    -5.1771119316     1.8180242895
   91      H       1.6814904989    -7.8184107254    -3.5711004659
   92      H       3.1568569556    -8.8166001912    -1.5446383743
   93      H     -10.7522911506     2.3770981168     0.0839064206
   94      C     -11.6554122029     1.5199772925     1.8192571798
   95      H     -11.4294866418     0.8619779822    -0.2244736118
   96      H     -10.8826706093     1.4802579382     2.5967247369
   97      H     -12.1253062951     0.5429046424     1.9868834860
   98      C     -12.6010771742     2.7428905678     1.8906286244
   99      H     -12.0422608863     3.6608968720     1.6703429423
  100      C     -13.3950332612     2.9709725146     3.2342205854
  101      H     -13.2888100487     2.5873724507     1.0496799883
  102      H     -12.5983390899     3.1022265048     3.9771861212
  103      H     -14.0003842966     2.1041300387     3.5300097771
  104      C     -14.1745241215     4.2732212166     3.3041585355
  105      H     -13.6094182453     5.1938747374     3.1126032088
  106      C     -14.7127349876     4.5138361773     4.7032419870
  107      H     -14.9688832291     4.1323550261     2.5608017406
  108      H     -15.1461623619     5.5200443329     4.6624638202
  109      H     -13.8755596666     4.4424755623     5.4081208026
  110      H     -15.5296714977     3.8324517726     4.9741737708
 ----------------------------------------------------------------

   10   -5663.4538066041      3.19E-06 Convergence criterion met
 Total energy in the final basis set = -5663.4538066041

                    Orbital Energies (a.u.)
 --------------------------------------------------------------

 Alpha MOs
 -- Occupied --
-88.996 -88.982 -88.944 -88.933 -88.916 -88.916 -88.914 -88.906
-14.384 -14.383 -14.381 -14.376 -14.357 -14.348 -14.343 -14.337
-14.325 -14.321 -10.273 -10.271 -10.262 -10.257 -10.255 -10.253
-10.250 -10.243 -10.242 -10.242 -10.242 -10.241 -10.239 -10.239
-10.233 -10.232 -10.232 -10.230 -10.227 -10.227 -10.227 -10.224
-10.223 -10.221 -10.220 -10.220 -10.220 -10.219 -10.219 -10.217
-10.214 -10.206 -10.206 -10.206 -10.204 -10.200 -10.198 -10.194
-10.186 -10.185 -10.183 -10.182 -10.182 -10.181 -10.179 -10.178
-10.173 -10.173 -10.172 -10.171  -8.051  -8.038  -8.003  -7.994
 -7.976  -7.975  -7.973  -7.966  -6.016  -6.011  -6.009  -6.003
 -5.997  -5.995  -5.967  -5.964  -5.960  -5.958  -5.955  -5.951
 -5.940  -5.939  -5.937  -5.936  -5.935  -5.934  -5.932  -5.931
 -5.930  -5.929  -5.927  -5.922  -1.048  -1.029  -0.967  -0.961
 -0.958  -0.957  -0.945  -0.940  -0.920  -0.902  -0.902  -0.892
 -0.843  -0.837  -0.836  -0.827  -0.813  -0.810  -0.809  -0.804
 -0.801  -0.799  -0.797  -0.794  -0.784  -0.783  -0.763  -0.759
 -0.750  -0.741  -0.741  -0.736  -0.718  -0.712  -0.712  -0.705
 -0.697  -0.686  -0.680  -0.668  -0.656  -0.649  -0.645  -0.641
 -0.639  -0.630  -0.628  -0.621  -0.616  -0.603  -0.603  -0.594
 -0.592  -0.587  -0.580  -0.577  -0.576  -0.573  -0.572  -0.572
 -0.549  -0.541  -0.536  -0.535  -0.525  -0.520  -0.519  -0.510
 -0.505  -0.502  -0.498  -0.494  -0.484  -0.482  -0.480  -0.478
 -0.472  -0.471  -0.468  -0.467  -0.461  -0.460  -0.451  -0.448
 -0.444  -0.441  -0.438  -0.434  -0.434  -0.430  -0.426  -0.426
 -0.426  -0.424  -0.424  -0.422  -0.419  -0.415  -0.415  -0.410
 -0.407  -0.404  -0.403  -0.403  -0.401  -0.400  -0.398  -0.397
 -0.393  -0.393  -0.391  -0.388  -0.388  -0.385  -0.383  -0.383
 -0.382  -0.374  -0.374  -0.369  -0.365  -0.362  -0.357  -0.356
 -0.352  -0.351  -0.350  -0.347  -0.343  -0.342  -0.338  -0.338
 -0.335  -0.334  -0.332  -0.330  -0.328  -0.326  -0.324  -0.321
 -0.313  -0.310  -0.309  -0.307  -0.306  -0.304  -0.301  -0.298
 -0.296  -0.295  -0.289  -0.288  -0.287  -0.285  -0.284  -0.281
 -0.278  -0.271  -0.263  -0.259  -0.254  -0.250  -0.246  -0.244
 -0.242  -0.234  -0.233  -0.221  -0.198  -0.187

          Ground-State Mulliken Net Atomic Charges

     Atom                 Charge (a.u.)
  ----------------------------------------
      1 C                     0.280045
      2 C                    -0.123242
      3 N                    -0.469942
      4 C                    -0.038570
      5 C                     0.082417
      6 C                     0.000345
      7 C                    -0.006506
      8 C                     0.053976
      9 C                     0.243923
     10 N                    -0.519851
     11 N                    -0.571572
     12 C                     0.212534
     13 C                     0.317270
     14 S                     0.593983
     15 N                    -0.561654
     16 C                    -0.208986
     17 S                     0.354385
     18 C                    -0.120500
     19 C                    -0.217097
     20 S                     0.296307
     21 C                     0.134799
     22 C                     0.033077
     23 C                    -0.304970
     24 C                    -0.083263
     25 N                    -0.418990
     26 S                     0.293336
     27 C                     0.114176
     28 C                    -0.302591
     29 C                    -0.232253
     30 H                     0.096091
     31 H                     0.108319
     32 H                     0.111137
     33 H                     0.112352
     34 H                     0.139784
     35 H                     0.107047
     36 H                     0.113163
     37 H                     0.128531
     38 H                     0.112555
     39 C                    -0.175569
     40 H                     0.088687
     41 H                     0.115280
     42 H                     0.095418
     43 C                    -0.179586
     44 H                     0.095844
     45 C                    -0.174535
     46 H                     0.093042
     47 H                     0.090507
     48 H                     0.087037
     49 C                    -0.181172
     50 H                     0.088040
     51 C                    -0.312180
     52 H                     0.089510
     53 H                     0.103238
     54 H                     0.104667
     55 H                     0.099881
     56 C                     0.281073
     57 C                    -0.128054
     58 N                    -0.479939
     59 C                    -0.097076
     60 C                     0.058007
     61 C                     0.071051
     62 C                    -0.025870
     63 C                     0.057820
     64 C                     0.216533
     65 N                    -0.509235
     66 N                    -0.529587
     67 C                     0.265994
     68 C                     0.304577
     69 S                     0.621864
     70 N                    -0.586485
     71 C                    -0.255175
     72 S                     0.337730
     73 C                    -0.118522
     74 C                    -0.180066
     75 S                     0.283439
     76 C                     0.126356
     77 C                     0.045987
     78 C                    -0.296526
     79 C                    -0.088920
     80 N                    -0.417235
     81 S                     0.296413
     82 C                     0.118820
     83 C                    -0.314976
     84 C                    -0.229651
     85 H                     0.096119
     86 H                     0.100168
     87 H                     0.115902
     88 H                     0.124785
     89 H                     0.122897
     90 H                     0.111718
     91 H                     0.126930
     92 H                     0.132276
     93 H                     0.121563
     94 C                    -0.193679
     95 H                     0.121023
     96 H                     0.087632
     97 H                     0.094830
     98 C                    -0.185167
     99 H                     0.095644
    100 C                    -0.170918
    101 H                     0.093835
    102 H                     0.088957
    103 H                     0.093751
    104 C                    -0.174267
    105 H                     0.095216
    106 C                    -0.313046
    107 H                     0.093474
    108 H                     0.099042
    109 H                     0.103577
    110 H                     0.101715
  ----------------------------------------
  Sum of atomic charges =     0.000000

                    Cartesian Multipole Moments
 -----------------------------------------------------------------
    Charge (ESU x 10^10)
                 0.0000
    Dipole Moment (Debye)
         X      -0.3461      Y      -2.4315      Z       1.9180
       Tot       3.1162
    Quadrupole Moments (Debye-Ang)
        XX    -412.8882     XY     -11.1731     YY    -414.5767
        XZ       6.4440     YZ       6.9532     ZZ    -433.5940

 Total job time:  92.33s(wall), 989.80s(cpu)
        *  Thank you very much for using Q-Chem.  Have a nice day.  *
