 Q-Chem 4.4, Q-Chem, Inc., Pleasanton, CA (2016)
 Q-Chem 4.4.2 for Intel X86 Linux

User input:
--------------------------------------------------------------
$comment
SP
$end

$rem
MEM_STATIC 5000
MEM_TOTAL 20000
JOBTYPE SP
EXCHANGE B3LYP
BASIS 6-31g(d,p)
$end

$molecule
0 1
C          14.807000     -3.174000     11.994000
C          16.139000     -3.604000     11.928000
N          14.245000     -2.628000     10.912000
C          16.965000     -3.354000     10.844000
C          14.964000     -2.261000      9.884000
C          16.326000     -2.688000      9.752000
C          17.077000     -2.409000      8.503000
C          18.448000     -2.156000      8.546000
C          16.553000     -2.550000      7.137000
N          19.226000     -1.918000      7.465000
N          15.178000     -2.685000      6.910000
C          17.329000     -2.342000      6.013000
C          18.640000     -1.967000      6.243000
S          15.114000     -2.691000      5.251000
N          16.700000     -2.420000      4.815000
C          19.568000     -1.733000      5.130000
S          19.521000     -2.418000      3.532000
C          20.595000     -0.803000      5.154000
C          20.860000     -1.519000      2.908000
S          21.191000      0.305000      6.507000
C          21.269000     -0.691000      3.941000
C          21.348000     -1.455000      1.563000
C          22.496000      0.752000      5.232000
C          22.392000      0.150000      4.011000
N          20.976000     -2.519000      0.834000
S          21.926000     -0.014000      0.748000
C          21.167000     -2.210000     -0.487000
C          21.667000     -0.934000     -0.680000
C          13.887000     -3.570000     13.118000
H          16.464000     -4.282000     12.712000
H          17.876000     -3.930000     10.713000
H          14.540000     -1.653000      9.086000
H          18.912000     -2.276000      9.524000
H          23.312000      1.392000      5.540000
H          23.015000      0.363000      3.150000
H          20.817000     -2.920000     -1.225000
H          21.958000     -0.539000     -1.644000
H          14.311000     -3.107000     14.018000
C          13.610000     -5.050000     13.478000
H          12.921000     -3.054000     13.063000
H          13.656000     -5.219000     14.561000
H          14.394000     -5.692000     13.058000
C          12.282000     -5.684000     13.017000
H          11.495000     -4.944000     12.828000
C          11.829000     -6.859000     13.780000
H          12.500000     -6.129000     12.038000
H          11.530000     -6.531000     14.783000
H          12.697000     -7.519000     13.899000
C          10.695000     -7.676000     13.178000
H          10.941000     -8.381000     12.375000
C           9.554000     -6.770000     12.754000
H          10.462000     -8.361000     14.003000
H           9.713000     -6.159000     11.857000
H           9.189000     -6.217000     13.628000
H           8.728000     -7.471000     12.582000
C          16.904000      0.983000     12.943000
C          17.900000      1.793000     12.333000
N          17.064000     -0.315000     13.077000
C          19.049000      1.173000     11.725000
C          18.175000     -0.878000     12.512000
C          19.223000     -0.220000     11.873000
C          20.419000     -1.057000     11.367000
C          21.204000     -0.558000     10.194000
C          21.058000     -2.065000     12.129000
N          22.380000     -1.117000      9.861000
N          20.533000     -2.527000     13.343000
C          22.206000     -2.623000     11.801000
C          22.875000     -2.138000     10.610000
S          21.644000     -3.508000     13.931000
N          22.654000     -3.560000     12.625000
C          24.120000     -2.812000     10.164000
S          24.955000     -4.192000     10.951000
C          24.905000     -2.507000      9.078000
C          26.372000     -4.142000      9.970000
S          24.452000     -1.649000      7.620000
C          26.108000     -3.244000      9.059000
C          27.572000     -4.922000     10.036000
C          26.138000     -1.950000      7.088000
C          26.841000     -2.856000      7.869000
N          27.364000     -6.043000     10.719000
S          29.173000     -4.581000      9.406000
C          28.556000     -6.748000     10.881000
C          29.640000     -6.108000     10.195000
C          15.521000      1.488000     13.338000
H          17.802000      2.874000     12.301000
H          19.733000      1.738000     11.098000
H          18.258000     -1.936000     12.757000
H          20.842000      0.193000      9.494000
H          26.438000     -1.623000      6.101000
H          27.821000     -3.180000      7.537000
H          28.561000     -7.649000     11.482000
H          30.633000     -6.536000     10.160000
H          14.617000      1.036000     12.911000
C          15.267000      3.031000     13.310000
H          15.433000      1.165000     14.383000
H          15.888000      3.342000     12.461000
H          15.864000      3.451000     14.129000
C          13.790000      3.489000     13.250000
H          13.275000      2.983000     12.424000
C          13.513000      5.036000     13.117000
H          13.358000      3.091000     14.177000
H          13.998000      5.297000     12.168000
H          13.980000      5.628000     13.915000
C          12.057000      5.409000     12.895000
H          11.550000      4.925000     12.051000
C          11.916000      6.881000     12.551000
H          11.581000      5.147000     13.848000
H          10.856000      7.005000     12.300000
H          12.579000      7.099000     11.705000
H          12.115000      7.544000     13.403000
$end

--------------------------------------------------------------

             Standard Nuclear Orientation (Angstroms)
    I     Atom           X                Y                Z
 ----------------------------------------------------------------
    1      C       5.3950910436     1.1639555161    -1.7375877877
    2      C       4.1177203417     1.7357055285    -1.8076307270
    3      N       5.5092114454    -0.1623167125    -1.6250599714
    4      C       2.9510440862     1.0148219502    -1.6100822989
    5      C       4.4786312032    -0.9112782437    -1.3328357611
    6      C       3.1465878275    -0.3870002133    -1.4076020110
    7      C       1.9800618931    -1.2888200550    -1.2409250257
    8      C       0.8117325086    -0.8261135894    -0.6356084341
    9      C       1.8407476853    -2.6290358992    -1.8281439308
   10      N      -0.3125509250    -1.5582603128    -0.4611465868
   11      N       2.9503880585    -3.2915236024    -2.3668342733
   12      C       0.6955207015    -3.3898405557    -1.6923226138
   13      C      -0.3216626914    -2.8251583819    -0.9448482078
   14      S       2.2941700738    -4.7607682435    -2.7756265691
   15      N       0.7309460622    -4.6423929265    -2.2088365076
   16      C      -1.5940345483    -3.5285696375    -0.7423847211
   17      S      -2.3356643598    -4.7210455849    -1.7685544622
   18      C      -2.3675633418    -3.4260665734     0.4027577711
   19      C      -3.6701333755    -5.0588428543    -0.7218532389
   20      S      -2.1606911076    -2.3800357615     1.9115693628
   21      C      -3.4736775523    -4.2714647786     0.4012651322
   22      C      -4.6738670813    -6.0727237500    -0.8476672969
   23      C      -3.8086066945    -3.1537739907     2.3743461676
   24      C      -4.3257117072    -4.0649055556     1.4988447814
   25      N      -4.8062929426    -6.5056754917    -2.1113670954
   26      S      -5.3346720169    -7.0315501917     0.4633547059
   27      C      -5.5000391783    -7.6866570305    -2.0797164162
   28      C      -5.8476033992    -8.0787649092    -0.7987497797
   29      C       6.6420411849     1.9317552218    -2.0871460189
   30      H       4.0682461205     2.7567045364    -2.1751607630
   31      H       2.0004921332     1.4211506325    -1.9420551694
   32      H       4.6004438734    -1.9586426094    -1.0600106178
   33      H       0.8008615690     0.2369230071    -0.3989335149
   34      H      -4.3131848070    -2.7885723941     3.2588509568
   35      H      -5.2208315456    -4.6543173907     1.6606260022
   36      H      -5.6056680671    -8.2326134125    -3.0081657507
   37      H      -6.4650086415    -8.9388517967    -0.5772473807
   38      H       6.7161582028     2.7254172209    -1.3329893384
   39      C       6.8334622796     2.6171796701    -3.4620206642
   40      H       7.5532463880     1.3620290036    -1.8690769610
   41      H       7.2335177178     3.6331953001    -3.3560306358
   42      H       5.8626922867     2.7455786961    -3.9563275638
   43      C       7.7298172885     1.9275410797    -4.5103561603
   44      H       8.4556527033     1.2353018595    -4.0668949865
   45      C       8.2945925542     2.8020276033    -5.5516559343
   46      H       7.0517607842     1.2962012887    -5.0982672467
   47      H       9.0385769758     3.4618427730    -5.0889193762
   48      H       7.4778193461     3.4374941355    -5.9153162332
   49      C       8.9313829216     2.1195387206    -6.7535527490
   50      H       8.2670054813     1.7352976353    -7.5366947573
   51      C       9.8955947025     1.0384475045    -6.3018554787
   52      H       9.3961761043     2.9725502948    -7.2639227634
   53      H       9.4553678103     0.1189728645    -5.8969139152
   54      H      10.6750028346     1.4893437773    -5.6756562176
   55      H      10.4588309373     0.8077379380    -7.2144337163
   56      C       4.5228806854     1.4359918667     2.9254481670
   57      C       3.4876880983     1.0122604952     3.8023997236
   58      N       4.2533592226     2.0273171670     1.7826215965
   59      C       2.1137811770     1.1043330952     3.3803009105
   60      C       2.9399051385     2.1246410611     1.4140006142
   61      C       1.8242919904     1.7434407075     2.1554064372
   62      C       0.4214479831     2.0112994945     1.5660836381
   63      C      -0.7115142314     1.1179483308     1.9654272481
   64      C       0.0356101174     3.2346187369     0.9663768993
   65      N      -1.9827401030     1.4404172023     1.6715827139
   66      N       0.9595529396     4.2478907912     0.6791933251
   67      C      -1.2083545882     3.5507933239     0.6673159665
   68      C      -2.2475802710     2.6033916255     1.0190360286
   69      S       0.0818721574     5.4850012378     0.1876038751
   70      N      -1.3871379619     4.7349780685     0.0986403156
   71      C      -3.6452058160     2.8895351747     0.6091803160
   72      S      -4.2479505177     4.3260601022    -0.2819363752
   73      C      -4.7683626486     2.1341712035     0.8470668444
   74      C      -5.9258883227     3.9772283409    -0.0932802735
   75      S      -4.8686075670     0.4202313755     1.1927519936
   76      C      -5.9541071819     2.7975410164     0.4666862545
   77      C      -7.0785625083     4.7274154146    -0.4949238671
   78      C      -6.6434912426     0.6747909043     1.2275138161
   79      C      -7.0637601221     1.9056775236     0.7445042928
   80      N      -6.7589766066     5.6052686105    -1.4402453034
   81      S      -8.7285331778     4.6596576651     0.0961663773
   82      C      -7.8526363978     6.4122670406    -1.7513639222
   83      C      -9.0230968192     6.0091075838    -1.0283584904
   84      C       5.9976755091     1.1084794370     3.1290527750
   85      H       3.7148946641     0.6022590510     4.7819225626
   86      H       1.3147463424     0.6289807603     3.9422559716
   87      H       2.8208145025     2.7075954019     0.5017179514
   88      H      -0.5825992360     0.1332240524     2.4112344032
   89      H      -7.2884591707    -0.1802829129     1.3823141351
   90      H      -8.1263733686     2.0814642187     0.6197961290
   91      H      -7.7269805016     7.2268110829    -2.4540413724
   92      H      -9.9845322042     6.4821149286    -1.1779046445
   93      H       6.5563370017     0.5468017334     2.3699319059
   94      C       6.4313523158     0.4965445612     4.5014991802
   95      H       6.4790461812     2.0911461311     3.0469160343
   96      H       5.5570895711    -0.1144934629     4.7573510638
   97      H       6.3102859815     1.2971581681     5.2417226567
   98      C       7.7879093226    -0.2476352851     4.5305240566
   99      H       7.8206219477    -0.9965655766     3.7295432187
  100      C       8.1975755221    -0.9609574576     5.8762476848
  101      H       8.5147505071     0.5290736311     4.2607423819
  102      H       7.3945586417    -1.6934581607     6.0264262774
  103      H       8.2078630955    -0.2816971904     6.7387189337
  104      C       9.4537604386    -1.8115368972     5.7934040222
  105      H       9.4747331899    -2.5802590228     5.0109288230
  106      C       9.6408690847    -2.6347572858     7.0552675434
  107      H      10.2503263590    -1.0719034666     5.6455726224
  108      H      10.4960576014    -3.2847702181     6.8359212674
  109      H       8.7172269228    -3.1979138760     7.2356804355
  110      H       9.9234483768    -2.0300385046     7.9267823965
 ----------------------------------------------------------------

    9   -5663.4276771509      7.65E-06 Convergence criterion met
 Total energy in the final basis set = -5663.4276771509

                    Orbital Energies (a.u.)
 --------------------------------------------------------------

 Alpha MOs
 -- Occupied --
-88.991 -88.987 -88.940 -88.935 -88.916 -88.910 -88.909 -88.905
-14.393 -14.391 -14.379 -14.379 -14.350 -14.350 -14.343 -14.341
-14.322 -14.318 -10.269 -10.266 -10.266 -10.259 -10.257 -10.251
-10.250 -10.247 -10.245 -10.238 -10.237 -10.235 -10.232 -10.230
-10.230 -10.230 -10.229 -10.228 -10.227 -10.227 -10.226 -10.226
-10.225 -10.222 -10.222 -10.220 -10.219 -10.216 -10.215 -10.215
-10.212 -10.209 -10.202 -10.199 -10.199 -10.197 -10.197 -10.193
-10.183 -10.181 -10.180 -10.179 -10.179 -10.178 -10.176 -10.174
-10.171 -10.168 -10.167 -10.164  -8.046  -8.042  -7.999  -7.996
 -7.975  -7.969  -7.966  -7.965  -6.011  -6.007  -6.006  -6.005
 -6.001  -6.000  -5.963  -5.960  -5.960  -5.957  -5.956  -5.953
 -5.940  -5.936  -5.934  -5.932  -5.931  -5.930  -5.929  -5.928
 -5.926  -5.926  -5.921  -5.921  -1.043  -1.027  -0.968  -0.963
 -0.953  -0.950  -0.941  -0.936  -0.913  -0.908  -0.898  -0.898
 -0.836  -0.832  -0.831  -0.825  -0.814  -0.810  -0.808  -0.806
 -0.805  -0.801  -0.795  -0.794  -0.786  -0.781  -0.765  -0.759
 -0.746  -0.745  -0.736  -0.734  -0.714  -0.711  -0.710  -0.708
 -0.692  -0.692  -0.675  -0.670  -0.655  -0.653  -0.641  -0.640
 -0.635  -0.634  -0.624  -0.621  -0.614  -0.611  -0.600  -0.599
 -0.589  -0.589  -0.581  -0.575  -0.572  -0.572  -0.570  -0.552
 -0.544  -0.542  -0.536  -0.534  -0.523  -0.519  -0.517  -0.514
 -0.507  -0.501  -0.497  -0.492  -0.483  -0.480  -0.476  -0.475
 -0.473  -0.469  -0.466  -0.464  -0.458  -0.455  -0.446  -0.445
 -0.442  -0.439  -0.438  -0.437  -0.432  -0.430  -0.429  -0.427
 -0.425  -0.424  -0.422  -0.419  -0.418  -0.416  -0.415  -0.412
 -0.407  -0.405  -0.403  -0.401  -0.399  -0.395  -0.395  -0.393
 -0.393  -0.391  -0.389  -0.387  -0.386  -0.383  -0.382  -0.381
 -0.379  -0.376  -0.372  -0.370  -0.367  -0.362  -0.355  -0.354
 -0.353  -0.352  -0.348  -0.347  -0.340  -0.338  -0.335  -0.332
 -0.331  -0.330  -0.329  -0.327  -0.325  -0.324  -0.319  -0.317
 -0.316  -0.309  -0.307  -0.303  -0.300  -0.299  -0.298  -0.297
 -0.296  -0.295  -0.293  -0.291  -0.288  -0.285  -0.283  -0.280
 -0.276  -0.272  -0.263  -0.257  -0.249  -0.248  -0.246  -0.240
 -0.235  -0.235  -0.227  -0.223  -0.192  -0.192

          Ground-State Mulliken Net Atomic Charges

     Atom                 Charge (a.u.)
  ----------------------------------------
      1 C                     0.285754
      2 C                    -0.105868
      3 N                    -0.464917
      4 C                    -0.084457
      5 C                     0.106781
      6 C                     0.008101
      7 C                     0.040324
      8 C                     0.057098
      9 C                     0.172917
     10 N                    -0.505232
     11 N                    -0.519019
     12 C                     0.259331
     13 C                     0.246895
     14 S                     0.605340
     15 N                    -0.558480
     16 C                    -0.231405
     17 S                     0.350805
     18 C                    -0.106749
     19 C                    -0.190330
     20 S                     0.254803
     21 C                     0.116548
     22 C                     0.035332
     23 C                    -0.310820
     24 C                    -0.055117
     25 N                    -0.417970
     26 S                     0.297271
     27 C                     0.122981
     28 C                    -0.313716
     29 C                    -0.241579
     30 H                     0.088196
     31 H                     0.112892
     32 H                     0.116288
     33 H                     0.104986
     34 H                     0.120432
     35 H                     0.105129
     36 H                     0.118065
     37 H                     0.126837
     38 H                     0.116897
     39 C                    -0.187239
     40 H                     0.115492
     41 H                     0.092860
     42 H                     0.094140
     43 C                    -0.168230
     44 H                     0.096655
     45 C                    -0.171314
     46 H                     0.093526
     47 H                     0.085004
     48 H                     0.082590
     49 C                    -0.181157
     50 H                     0.092263
     51 C                    -0.315220
     52 H                     0.091966
     53 H                     0.117634
     54 H                     0.102882
     55 H                     0.094231
     56 C                     0.281052
     57 C                    -0.129155
     58 N                    -0.487539
     59 C                    -0.096644
     60 C                     0.068075
     61 C                     0.074620
     62 C                    -0.055070
     63 C                     0.078885
     64 C                     0.216639
     65 N                    -0.511001
     66 N                    -0.531966
     67 C                     0.266984
     68 C                     0.305606
     69 S                     0.613646
     70 N                    -0.586232
     71 C                    -0.246233
     72 S                     0.336283
     73 C                    -0.114590
     74 C                    -0.182613
     75 S                     0.310840
     76 C                     0.124497
     77 C                     0.046461
     78 C                    -0.306769
     79 C                    -0.089315
     80 N                    -0.418085
     81 S                     0.292850
     82 C                     0.117679
     83 C                    -0.315822
     84 C                    -0.231453
     85 H                     0.094700
     86 H                     0.099876
     87 H                     0.111996
     88 H                     0.127968
     89 H                     0.116930
     90 H                     0.107705
     91 H                     0.124923
     92 H                     0.129909
     93 H                     0.126722
     94 C                    -0.193658
     95 H                     0.118562
     96 H                     0.087556
     97 H                     0.093741
     98 C                    -0.185533
     99 H                     0.097321
    100 C                    -0.170870
    101 H                     0.093361
    102 H                     0.088681
    103 H                     0.093042
    104 C                    -0.174153
    105 H                     0.095685
    106 C                    -0.313030
    107 H                     0.093195
    108 H                     0.098725
    109 H                     0.103365
    110 H                     0.101226
  ----------------------------------------
  Sum of atomic charges =     0.000000

                    Cartesian Multipole Moments
 -----------------------------------------------------------------
    Charge (ESU x 10^10)
                 0.0000
    Dipole Moment (Debye)
         X      -3.2033      Y      -0.2680      Z       1.8166
       Tot       3.6923
    Quadrupole Moments (Debye-Ang)
        XX    -397.4310     XY       5.3974     YY    -408.7427
        XZ      -3.5075     YZ     -11.8162     ZZ    -436.4605

 Total job time:  92.63s(wall), 997.28s(cpu)
        *  Thank you very much for using Q-Chem.  Have a nice day.  *
