 Q-Chem 4.4, Q-Chem, Inc., Pleasanton, CA (2016)
 Q-Chem 4.4.2 for Intel X86 Linux

User input:
--------------------------------------------------------------
$comment
SP
$end

$rem
MEM_STATIC 5000
MEM_TOTAL 20000
JOBTYPE SP
EXCHANGE B3LYP
BASIS 6-31g(d,p)
$end

$molecule
0 1
C          16.999000      7.226000     13.009000
C          17.449000      8.024000     11.997000
N          17.517000      5.991000     13.183000
C          18.497000      7.677000     11.137000
C          18.520000      5.620000     12.320000
C          19.080000      6.419000     11.340000
C          20.403000      6.089000     10.717000
C          20.929000      4.779000     10.598000
C          21.408000      7.008000     10.254000
N          22.098000      4.378000     10.105000
N          21.257000      8.323000     10.422000
C          22.621000      6.660000      9.623000
C          23.029000      5.298000      9.689000
S          22.489000      8.987000      9.612000
N          23.372000      7.674000      9.195000
C          24.355000      4.715000      9.286000
S          25.722000      5.560000      8.565000
C          24.714000      3.347000      9.471000
C          26.605000      4.047000      8.229000
S          23.877000      2.024000     10.271000
C          25.910000      2.990000      8.916000
C          27.722000      3.898000      7.324000
C          25.213000      0.999000      9.789000
C          26.134000      1.611000      8.987000
N          28.290000      4.991000      6.959000
S          28.696000      2.451000      7.124000
C          29.493000      4.790000      6.322000
C          29.847000      3.444000      6.249000
C          15.894000      7.640000     13.995000
H          17.088000      9.048000     11.999000
H          18.920000      8.475000     10.534000
H          18.976000      4.665000     12.577000
H          20.241000      3.969000     10.837000
H          25.151000     -0.057000     10.019000
H          26.909000      1.021000      8.512000
H          30.068000      5.646000      5.997000
H          30.748000      3.042000      5.804000
H          14.990000      7.565000     13.378000
C          16.028000      9.030000     14.725000
H          15.646000      6.882000     14.748000
H          16.769000      9.739000     14.336000
H          16.403000      8.867000     15.743000
C          14.657000      9.834000     14.684000
H          14.831000     10.898000     14.891000
C          13.627000      9.262000     15.745000
H          14.302000      9.703000     13.655000
H          13.970000      9.196000     16.785000
H          13.418000      8.235000     15.420000
C          12.282000     10.020000     15.710000
H          12.397000     11.041000     16.094000
C          11.174000      9.334000     16.504000
H          11.949000     10.201000     14.681000
H          11.475000      9.133000     17.539000
H          10.871000      8.362000     16.096000
H          10.343000     10.046000     16.431000
C          16.904000      0.983000     12.943000
C          17.900000      1.793000     12.333000
N          17.064000     -0.315000     13.077000
C          19.049000      1.173000     11.725000
C          18.175000     -0.878000     12.512000
C          19.223000     -0.220000     11.873000
C          20.419000     -1.057000     11.367000
C          21.204000     -0.558000     10.194000
C          21.058000     -2.065000     12.129000
N          22.380000     -1.117000      9.861000
N          20.533000     -2.527000     13.343000
C          22.206000     -2.623000     11.801000
C          22.875000     -2.138000     10.610000
S          21.644000     -3.508000     13.931000
N          22.654000     -3.560000     12.625000
C          24.120000     -2.812000     10.164000
S          24.955000     -4.192000     10.951000
C          24.905000     -2.507000      9.078000
C          26.372000     -4.142000      9.970000
S          24.452000     -1.649000      7.620000
C          26.108000     -3.244000      9.059000
C          27.572000     -4.922000     10.036000
C          26.138000     -1.950000      7.088000
C          26.841000     -2.856000      7.869000
N          27.364000     -6.043000     10.719000
S          29.173000     -4.581000      9.406000
C          28.556000     -6.748000     10.881000
C          29.640000     -6.108000     10.195000
C          15.521000      1.488000     13.338000
H          17.802000      2.874000     12.301000
H          19.733000      1.738000     11.098000
H          18.258000     -1.936000     12.757000
H          20.842000      0.193000      9.494000
H          26.438000     -1.623000      6.101000
H          27.821000     -3.180000      7.537000
H          28.561000     -7.649000     11.482000
H          30.633000     -6.536000     10.160000
H          14.617000      1.036000     12.911000
C          15.267000      3.031000     13.310000
H          15.433000      1.165000     14.383000
H          15.888000      3.342000     12.461000
H          15.864000      3.451000     14.129000
C          13.790000      3.489000     13.250000
H          13.275000      2.983000     12.424000
C          13.513000      5.036000     13.117000
H          13.358000      3.091000     14.177000
H          13.998000      5.297000     12.168000
H          13.980000      5.628000     13.915000
C          12.057000      5.409000     12.895000
H          11.550000      4.925000     12.051000
C          11.916000      6.881000     12.551000
H          11.581000      5.147000     13.848000
H          10.856000      7.005000     12.300000
H          12.579000      7.099000     11.705000
H          12.115000      7.544000     13.403000
$end

--------------------------------------------------------------

             Standard Nuclear Orientation (Angstroms)
    I     Atom           X                Y                Z
 ----------------------------------------------------------------
    1      C       7.1723055905     0.8274736948    -0.5186509033
    2      C       7.0246143334     2.0605882857     0.0479739269
    3      N       6.0966614585     0.0336653542    -0.7101790206
    4      C       5.7880746916     2.6177467052     0.3927306670
    5      C       4.8790725454     0.5514440195    -0.3389627862
    6      C       4.6577037953     1.8258340268     0.1502477880
    7      C       3.2891255519     2.4375851821     0.1608362459
    8      C       2.0816716993     1.7004348713     0.2356801715
    9      C       2.9459765315     3.8223182012    -0.0227889590
   10      N       0.8234634034     2.1325647623     0.2114594916
   11      N       3.8865295078     4.7244204818    -0.3088336656
   12      C       1.6476529758     4.3701858648     0.0467162056
   13      C       0.5498827085     3.4646415992     0.0192567239
   14      S       3.1243075637     6.1492516008    -0.2480554601
   15      N       1.5625466170     5.6948272180    -0.0693147943
   16      C      -0.9099594896     3.7938367695    -0.1258821630
   17      S      -1.6422013985     5.3923092084    -0.2320077906
   18      C      -1.9412348508     2.8145512142    -0.2354309232
   19      C      -3.3000920046     4.7489211820    -0.0934271794
   20      S      -1.8711569896     1.0623223487    -0.3606551069
   21      C      -3.2109606016     3.3180926929    -0.2239201970
   22      C      -4.4838571568     5.5127669880     0.2293028146
   23      C      -3.6225844026     1.0773850137    -0.3716156366
   24      C      -4.1783404785     2.3090131142    -0.1710753512
   25      N      -4.3663093559     6.7880001158     0.1270238618
   26      S      -6.1336650689     4.9131136714     0.1971352333
   27      C      -5.5715664597     7.4494867536     0.1833243215
   28      C      -6.6575931502     6.5838628546     0.2999531903
   29      C       8.5266188415     0.2477257522    -0.9594966149
   30      H       7.9052863332     2.6956610358     0.0473175495
   31      H       5.7742614560     3.6814849190     0.6109328827
   32      H       4.0393625886    -0.0826521991    -0.6197103132
   33      H       2.1876960210     0.6394217734     0.4583347232
   34      H      -4.1381259974     0.1255481872    -0.3817901065
   35      H      -5.2458114862     2.3961137135    -0.0059416682
   36      H      -5.5887554812     8.5255663947     0.0796751845
   37      H      -7.7004984054     6.8683867023     0.3531021208
   38      H       8.9942964651    -0.0088296735    -0.0008585425
   39      C       9.4521334925     1.1307225251    -1.8796571062
   40      H       8.4734855606    -0.7579075833    -1.3941866756
   41      H       9.2045385587     2.1947303724    -1.9779782622
   42      H       9.3544371064     0.7923447731    -2.9186344462
   43      C      10.9538665868     1.1243505758    -1.3576464628
   44      H      11.5107291363     1.9690459608    -1.7838093512
   45      C      11.6875897221    -0.2269892061    -1.7440868266
   46      H      10.8590491772     1.2442874469    -0.2719891478
   47      H      11.6777071088    -0.5124981043    -2.8033280658
   48      H      11.1463879654    -1.0141011213    -1.2040956308
   49      C      13.1440558270    -0.2595298064    -1.2317767696
   50      H      13.7691218837     0.4552204133    -1.7809093112
   51      C      13.7950619560    -1.6361839762    -1.3303177088
   52      H      13.2176270982     0.1174050047    -0.2046456114
   53      H      13.7354837013    -2.0465500943    -2.3453433640
   54      H      13.3345028843    -2.3931605435    -0.6838435653
   55      H      14.8251782176    -1.4441572199    -1.0065582110
   56      C       3.5236593788    -4.1242466223     0.5566521810
   57      C       3.0818933613    -2.7737032758     0.5236150042
   58      N       2.6701683739    -5.1241158428     0.5698675663
   59      C       1.6770298344    -2.4801654124     0.6438605595
   60      C       1.3397597121    -4.8202136679     0.6602625922
   61      C       0.7605046339    -3.5537206943     0.6533270054
   62      C      -0.7802706329    -3.4480791940     0.6965988268
   63      C      -1.4031616244    -2.2289979259     1.3024062834
   64      C      -1.6496362701    -4.2294787616    -0.1025551662
   65      N      -2.7159675425    -1.9795161123     1.1587210502
   66      N      -1.1899616266    -5.3103924715    -0.8662237946
   67      C      -2.9392970178    -3.9945403247    -0.2383163040
   68      C      -3.4878002327    -2.8352339867     0.4372723564
   69      S      -2.4483705333    -5.7776748920    -1.7267353651
   70      N      -3.6049828388    -4.8351194815    -1.0180201381
   71      C      -4.9523082474    -2.6002989382     0.3803619207
   72      S      -6.1834920016    -3.5911621076    -0.4701501268
   73      C      -5.6661062730    -1.5677367209     0.9397845214
   74      C      -7.4971013417    -2.4972597919    -0.2452985638
   75      S      -5.2193792465    -0.5494642236     2.2928155946
   76      C      -7.0177635965    -1.5660170103     0.5351136399
   77      C      -8.8484087502    -2.5634552083    -0.7168305931
   78      C      -6.8199034039     0.2243808037     2.0567916649
   79      C      -7.6718882779    -0.4530384405     1.1964249164
   80      N      -9.1664595834    -3.8098807082    -1.0509879524
   81      S     -10.0311593234    -1.2857446333    -0.9288182533
   82      C     -10.4406109970    -3.8573853581    -1.6152702253
   83      C     -11.0707915823    -2.5698787859    -1.5940274268
   84      C       4.9781134710    -4.5393162682     0.7464401750
   85      H       3.7881342268    -1.9545406590     0.4267364861
   86      H       1.3210993830    -1.4661956449     0.8031992687
   87      H       0.7175890250    -5.7098665327     0.5725162743
   88      H      -0.8783806886    -1.5415490311     1.9635144337
   89      H      -7.1265814365     1.0039865924     2.7418182327
   90      H      -8.6969049215    -0.1122556629     1.1025740838
   91      H     -10.8119547243    -4.7965718848    -2.0064984250
   92      H     -12.0849108831    -2.4186127862    -1.9391920848
   93      H       5.2749389902    -5.1663404480     1.5964897553
   94      C       6.0773528668    -3.4315171131     0.6434703603
   95      H       5.1430050984    -5.2363310486    -0.0848715277
   96      H       5.5568303161    -2.5634714948     1.0662186053
   97      H       6.1023629424    -3.1268531964    -0.4101540481
   98      C       7.4487588917    -3.7547395648     1.2835217343
   99      H       7.3088249118    -4.0853546423     2.3201745942
  100      C       8.5386257051    -2.6146445281     1.2827239840
  101      H       7.7964655042    -4.6307502098     0.7213274071
  102      H       8.0635112614    -1.8130336072     1.8620625697
  103      H       8.7580731644    -2.2283946601     0.2787265477
  104      C       9.7988086622    -2.9329819958     2.0694572114
  105      H       9.6608799589    -3.2354997802     3.1149712778
  106      C      10.6828606791    -1.7062397752     2.2056796607
  107      H      10.2676367791    -3.7325988993     1.4827358086
  108      H      11.4880055548    -2.0203640631     2.8802496428
  109      H      10.0762732045    -0.8926722144     2.6215744306
  110      H      11.1619722982    -1.4130170778     1.2625219294
 ----------------------------------------------------------------

   10   -5663.4595260229      3.84E-06 Convergence criterion met
 Total energy in the final basis set = -5663.4595260229

                    Orbital Energies (a.u.)
 --------------------------------------------------------------

 Alpha MOs
 -- Occupied --
-88.994 -88.983 -88.944 -88.928 -88.925 -88.916 -88.912 -88.907
-14.388 -14.382 -14.381 -14.381 -14.356 -14.348 -14.347 -14.338
-14.333 -14.320 -10.273 -10.270 -10.267 -10.266 -10.257 -10.256
-10.252 -10.250 -10.248 -10.245 -10.244 -10.243 -10.242 -10.241
-10.237 -10.236 -10.234 -10.233 -10.231 -10.229 -10.229 -10.228
-10.228 -10.227 -10.227 -10.224 -10.219 -10.216 -10.216 -10.215
-10.215 -10.209 -10.207 -10.206 -10.204 -10.200 -10.194 -10.193
-10.191 -10.189 -10.187 -10.181 -10.179 -10.177 -10.177 -10.175
-10.175 -10.172 -10.172 -10.170  -8.049  -8.040  -8.004  -7.989
 -7.983  -7.975  -7.972  -7.966  -6.014  -6.008  -6.007  -6.005
 -5.999  -5.997  -5.968  -5.965  -5.961  -5.953  -5.950  -5.947
 -5.946  -5.943  -5.939  -5.939  -5.936  -5.936  -5.933  -5.932
 -5.930  -5.928  -5.927  -5.923  -1.046  -1.046  -0.977  -0.967
 -0.956  -0.952  -0.937  -0.935  -0.920  -0.916  -0.908  -0.900
 -0.844  -0.842  -0.833  -0.831  -0.812  -0.808  -0.805  -0.802
 -0.800  -0.800  -0.797  -0.793  -0.784  -0.779  -0.767  -0.761
 -0.750  -0.747  -0.741  -0.739  -0.721  -0.718  -0.709  -0.708
 -0.695  -0.692  -0.678  -0.671  -0.656  -0.652  -0.648  -0.642
 -0.636  -0.634  -0.626  -0.624  -0.615  -0.610  -0.603  -0.601
 -0.593  -0.591  -0.586  -0.580  -0.574  -0.573  -0.570  -0.566
 -0.548  -0.540  -0.540  -0.538  -0.524  -0.523  -0.519  -0.517
 -0.511  -0.501  -0.500  -0.497  -0.488  -0.481  -0.478  -0.475
 -0.474  -0.471  -0.468  -0.466  -0.460  -0.456  -0.449  -0.446
 -0.443  -0.442  -0.442  -0.438  -0.434  -0.433  -0.431  -0.430
 -0.430  -0.426  -0.423  -0.422  -0.421  -0.420  -0.415  -0.411
 -0.410  -0.410  -0.405  -0.403  -0.400  -0.399  -0.398  -0.396
 -0.394  -0.392  -0.392  -0.390  -0.388  -0.387  -0.385  -0.381
 -0.378  -0.375  -0.374  -0.372  -0.368  -0.361  -0.361  -0.358
 -0.354  -0.352  -0.352  -0.349  -0.348  -0.341  -0.340  -0.339
 -0.337  -0.336  -0.332  -0.330  -0.329  -0.327  -0.323  -0.319
 -0.315  -0.313  -0.309  -0.305  -0.303  -0.302  -0.301  -0.299
 -0.296  -0.295  -0.294  -0.289  -0.287  -0.285  -0.279  -0.279
 -0.278  -0.271  -0.271  -0.259  -0.256  -0.254  -0.252  -0.246
 -0.243  -0.240  -0.232  -0.230  -0.197  -0.189

          Ground-State Mulliken Net Atomic Charges

     Atom                 Charge (a.u.)
  ----------------------------------------
      1 C                     0.275283
      2 C                    -0.119564
      3 N                    -0.493447
      4 C                    -0.068044
      5 C                     0.055774
      6 C                     0.057402
      7 C                     0.070781
      8 C                     0.051431
      9 C                     0.180772
     10 N                    -0.522646
     11 N                    -0.544547
     12 C                     0.217661
     13 C                     0.295968
     14 S                     0.586598
     15 N                    -0.548423
     16 C                    -0.239681
     17 S                     0.350528
     18 C                    -0.117503
     19 C                    -0.219735
     20 S                     0.296065
     21 C                     0.137156
     22 C                     0.073251
     23 C                    -0.292264
     24 C                    -0.090540
     25 N                    -0.419516
     26 S                     0.271189
     27 C                     0.120053
     28 C                    -0.323529
     29 C                    -0.239627
     30 H                     0.084750
     31 H                     0.131336
     32 H                     0.105335
     33 H                     0.091009
     34 H                     0.136204
     35 H                     0.118374
     36 H                     0.120454
     37 H                     0.135139
     38 H                     0.122888
     39 C                    -0.198189
     40 H                     0.129071
     41 H                     0.095356
     42 H                     0.105473
     43 C                    -0.189497
     44 H                     0.090329
     45 C                    -0.171232
     46 H                     0.100775
     47 H                     0.093503
     48 H                     0.095334
     49 C                    -0.179280
     50 H                     0.091356
     51 C                    -0.316003
     52 H                     0.092726
     53 H                     0.101781
     54 H                     0.103247
     55 H                     0.100409
     56 C                     0.281738
     57 C                    -0.131254
     58 N                    -0.482066
     59 C                    -0.103965
     60 C                     0.057818
     61 C                     0.068284
     62 C                    -0.024101
     63 C                     0.062123
     64 C                     0.217249
     65 N                    -0.514078
     66 N                    -0.527407
     67 C                     0.268339
     68 C                     0.297648
     69 S                     0.623339
     70 N                    -0.587962
     71 C                    -0.240094
     72 S                     0.343994
     73 C                    -0.137002
     74 C                    -0.184545
     75 S                     0.292444
     76 C                     0.130013
     77 C                     0.046852
     78 C                    -0.303075
     79 C                    -0.090989
     80 N                    -0.417548
     81 S                     0.292350
     82 C                     0.118592
     83 C                    -0.315551
     84 C                    -0.232503
     85 H                     0.096232
     86 H                     0.110301
     87 H                     0.116259
     88 H                     0.131026
     89 H                     0.121997
     90 H                     0.110165
     91 H                     0.126778
     92 H                     0.131635
     93 H                     0.118248
     94 C                    -0.192070
     95 H                     0.119313
     96 H                     0.092075
     97 H                     0.111223
     98 C                    -0.188927
     99 H                     0.092057
    100 C                    -0.172873
    101 H                     0.090955
    102 H                     0.090462
    103 H                     0.095237
    104 C                    -0.173494
    105 H                     0.094914
    106 C                    -0.326672
    107 H                     0.092165
    108 H                     0.098894
    109 H                     0.102677
    110 H                     0.111284
  ----------------------------------------
  Sum of atomic charges =     0.000000

                    Cartesian Multipole Moments
 -----------------------------------------------------------------
    Charge (ESU x 10^10)
                 0.0000
    Dipole Moment (Debye)
         X      -3.1348      Y       3.2356      Z      -0.1577
       Tot       4.5079
    Quadrupole Moments (Debye-Ang)
        XX    -350.0980     XY       1.0880     YY    -447.9598
        XZ       9.6588     YZ       9.6730     ZZ    -447.0495

 Total job time:  101.54s(wall), 1133.44s(cpu)
        *  Thank you very much for using Q-Chem.  Have a nice day.  *
