 Q-Chem 4.4, Q-Chem, Inc., Pleasanton, CA (2016)
 Q-Chem 4.4.2 for Intel X86 Linux

User input:
--------------------------------------------------------------
$comment
SP
$end

$rem
MEM_STATIC 5000
MEM_TOTAL 20000
JOBTYPE SP
EXCHANGE B3LYP
BASIS 6-31g(d,p)
$end

$molecule
0 1
C          20.784000     12.354000      3.111000
C          20.010000     12.785000      4.185000
N          22.096000     11.977000      3.185000
C          20.649000     12.759000      5.442000
C          22.682000     12.030000      4.420000
C          22.020000     12.378000      5.603000
C          22.572000     12.172000      7.013000
C          21.874000     12.867000      8.120000
C          23.826000     11.579000      7.414000
N          22.349000     12.921000      9.381000
N          24.652000     10.936000      6.540000
C          24.265000     11.757000      8.769000
C          23.487000     12.338000      9.777000
S          25.982000     10.621000      7.515000
N          25.500000     11.267000      8.992000
C          23.910000     12.453000     11.151000
S          25.546000     12.310000     11.841000
C          23.052000     12.677000     12.196000
C          25.037000     12.643000     13.456000
S          21.329000     12.881000     12.169000
C          23.684000     12.871000     13.434000
C          25.816000     12.826000     14.612000
C          21.436000     13.254000     13.892000
C          22.728000     13.215000     14.448000
N          27.106000     12.485000     14.396000
S          25.513000     13.551000     16.208000
C          27.827000     12.812000     15.510000
C          27.081000     13.116000     16.621000
C          20.015000     12.156000      1.783000
H          18.966000     13.050000      4.049000
H          19.984000     13.080000      6.239000
H          23.696000     11.634000      4.456000
H          20.985000     13.483000      7.993000
H          20.449000     13.353000     14.322000
H          22.930000     13.409000     15.495000
H          28.894000     12.634000     15.550000
H          27.399000     13.491000     17.585000
H          20.475000     11.308000      1.260000
C          20.168000     13.362000      0.884000
H          18.938000     11.983000      1.901000
H          21.230000     13.630000      0.836000
H          19.632000     14.160000      1.413000
C          19.682000     13.100000     -0.582000
H          19.710000     14.089000     -1.057000
C          18.244000     12.564000     -0.674000
H          20.430000     12.468000     -1.077000
H          18.196000     11.522000     -0.334000
H          17.947000     12.452000     -1.724000
C          17.064000     13.353000      0.034000
H          17.519000     13.738000      0.955000
C          15.840000     12.491000      0.396000
H          16.766000     14.211000     -0.581000
H          14.998000     13.040000      0.837000
H          16.080000     11.673000      1.086000
H          15.487000     11.952000     -0.492000
C          20.406000      5.459000     14.964000
C          21.215000      6.602000     14.976000
N          20.726000      4.359000     14.222000
C          22.523000      6.460000     14.369000
C          21.881000      4.309000     13.512000
C          22.887000      5.328000     13.589000
C          24.246000      5.160000     12.926000
C          24.923000      3.871000     13.048000
C          25.054000      6.190000     12.306000
N          26.086000      3.575000     12.545000
N          24.647000      7.522000     12.151000
C          26.382000      5.880000     11.894000
C          26.845000      4.517000     11.902000
S          25.942000      8.282000     11.528000
N          26.975000      6.990000     11.364000
C          28.255000      4.173000     11.444000
S          29.234000      5.099000     10.310000
C          28.975000      3.056000     11.868000
C          30.449000      3.745000     10.248000
S          28.577000      1.984000     13.206000
C          30.145000      2.833000     11.230000
C          31.524000      3.660000      9.342000
C          30.219000      1.331000     12.971000
C          30.820000      1.703000     11.740000
N          31.962000      2.433000      9.044000
S          32.220000      4.988000      8.385000
C          32.859000      2.540000      8.050000
C          33.208000      3.835000      7.660000
C          19.238000      5.459000     15.833000
H          21.028000      7.506000     15.549000
H          23.173000      7.330000     14.352000
H          22.031000      3.390000     12.948000
H          24.391000      3.064000     13.550000
H          30.471000      0.606000     13.733000
H          31.697000      1.189000     11.364000
H          33.461000      1.695000      7.744000
H          33.970000      4.222000      6.996000
H          18.793000      6.461000     15.865000
C          19.473000      5.012000     17.327000
H          18.496000      4.763000     15.425000
H          20.327000      5.609000     17.669000
H          19.688000      3.949000     17.160000
C          18.189000      5.188000     18.121000
H          17.905000      6.242000     18.232000
C          18.437000      4.804000     19.634000
H          17.348000      4.603000     17.730000
H          18.836000      5.698000     20.130000
H          19.251000      4.069000     19.631000
C          17.169000      4.469000     20.429000
H          16.511000      5.347000     20.409000
C          17.417000      3.812000     21.737000
H          16.605000      3.767000     19.802000
H          17.688000      2.766000     21.549000
H          16.557000      3.830000     22.417000
H          18.239000      4.328000     22.249000
$end

--------------------------------------------------------------

             Standard Nuclear Orientation (Angstroms)
    I     Atom           X                Y                Z
 ----------------------------------------------------------------
    1      C       9.0385546432    -1.0525823423    -1.4976317879
    2      C       8.8171071542     0.2961285362    -1.2325790084
    3      N       8.2591392622    -2.0829027298    -1.0505293802
    4      C       7.6526044092     0.5852094446    -0.4913559751
    5      C       7.1766799876    -1.7471027622    -0.2844025626
    6      C       6.7855961964    -0.4366783691     0.0133865881
    7      C       5.4407939130    -0.0362492364     0.6186991752
    8      C       5.3190626400     1.3455580495     1.1397252034
    9      C       4.3241496337    -0.8794688733     0.9751429962
   10      N       4.2615099383     1.7802058627     1.8547955226
   11      N       4.2592189894    -2.1998637097     0.6405649225
   12      C       3.2848679350    -0.3277214602     1.7972733648
   13      C       3.1991635027     1.0228938537     2.1542075661
   14      S       2.8621843643    -2.6742290490     1.4418275393
   15      N       2.3629365742    -1.2389765240     2.1643030293
   16      C       2.1159736059     1.5816494324     2.9252599967
   17      S       0.9045202135     0.7497900949     3.9319554426
   18      C       1.8280344030     2.9206610377     2.9752993438
   19      C       0.1355089935     2.2075517297     4.4435683427
   20      S       2.6327350887     4.2402825460     2.1865472400
   21      C       0.8072325960     3.2611339802     3.8762687363
   22      C      -0.8897448029     2.3853761170     5.3890307376
   23      C       1.5708347081     5.3163191140     3.0996846261
   24      C       0.6489559043     4.6856171370     3.9554155928
   25      N      -1.4317022388     1.2028893990     5.7565144780
   26      S      -1.4979700216     3.7812014807     6.3090218448
   27      C      -2.3209967484     1.4359685811     6.7677490552
   28      C      -2.6533569578     2.7531565649     6.9621854373
   29      C      10.1746764074    -1.3473715168    -2.5058359734
   30      H       9.4723936060     1.0594517928    -1.6407386243
   31      H       7.5240383636     1.6538331993    -0.3430689463
   32      H       6.5289342886    -2.5839203068    -0.0265849790
   33      H       6.1110580439     2.0913150978     1.0897681709
   34      H       1.7018013311     6.3409895095     2.7806731462
   35      H      -0.0682704366     5.2289314510     4.5596050763
   36      H      -2.8659386569     0.6194726101     7.2239788720
   37      H      -3.2511657592     3.2067661548     7.7418699741
   38      H       9.8809358074    -2.2337743219    -3.0822382001
   39      C      11.4586752824    -1.6959951948    -1.7876059128
   40      H      10.4069221408    -0.5187356307    -3.1864287206
   41      H      11.2370023722    -2.4455199324    -1.0188108890
   42      H      11.7485968347    -0.7624833582    -1.2891662029
   43      C      12.5471822792    -2.3029769707    -2.7366694732
   44      H      13.4497138213    -2.3553491332    -2.1143962438
   45      C      12.8597795838    -1.4299667559    -3.9629402793
   46      H      12.2468619541    -3.3297804034    -2.9804632649
   47      H      12.0311851559    -1.4595080186    -4.6814293801
   48      H      13.6634165498    -1.8828469042    -4.5565059440
   49      C      13.2654333426     0.0904298761    -3.7628800148
   50      H      12.6512161389     0.4182951307    -2.9150990280
   51      C      12.9806588896     0.9971041473    -4.9749481964
   52      H      14.3188349208     0.1603454965    -3.4651386489
   53      H      13.3080820766     2.0389095227    -4.8641257421
   54      H      11.9190549522     1.0269158870    -5.2486859177
   55      H      13.4425471051     0.5730779562    -5.8752454060
   56      C      -3.3120040606     4.6915224480    -3.1244316714
   57      C      -2.9722273250     4.3972150958    -1.7981553230
   58      N      -3.5402601924     3.7086477204    -4.0435727966
   59      C      -3.1253818604     3.0136483348    -1.3959567324
   60      C      -3.5069966250     2.3999360736    -3.6874936472
   61      C      -3.3619334750     1.9662822700    -2.3283663312
   62      C      -3.5097044462     0.5035423434    -1.9369207444
   63      C      -4.6056089646    -0.2644264446    -2.5233942963
   64      C      -2.7814443445    -0.2076659937    -0.9063947013
   65      N      -4.8663898996    -1.5167123492    -2.2847160251
   66      N      -1.7415248883     0.3503714382    -0.1507097476
   67      C      -3.1795258724    -1.5305970266    -0.5588136613
   68      C      -4.1535926491    -2.2287018021    -1.3563383549
   69      S      -1.3560036386    -0.7961791739     0.9353607196
   70      N      -2.3862778886    -2.0054867866     0.4461173573
   71      C      -4.5701023073    -3.6498468272    -1.0055299709
   72      S      -3.5994303498    -4.8311914182    -0.1314053183
   73      C      -5.7997985335    -4.2192264314    -1.3364666077
   74      C      -4.8092686296    -6.1296670117    -0.5359266031
   75      S      -7.2263674630    -3.3835314980    -1.9400782938
   76      C      -5.9241577654    -5.5403950389    -1.0820628105
   77      C      -4.6246404759    -7.5083399669    -0.3148851422
   78      C      -8.0716171320    -4.9217339895    -1.6281743144
   79      C      -7.2056652451    -6.0269072733    -1.4192117764
   80      N      -5.2907171066    -8.3399063495    -1.1217409369
   81      S      -3.4386740214    -8.2646835348     0.7738191225
   82      C      -4.8628641398    -9.5896147886    -0.8782976045
   83      C      -3.9684934215    -9.7483007159     0.1827612038
   84      C      -3.4832732542     6.0943620657    -3.4738495733
   85      H      -2.7876671274     5.1258185797    -1.0135608439
   86      H      -2.8612599196     2.7481166066    -0.3764365013
   87      H      -3.6923701634     1.7004549268    -4.5008323076
   88      H      -5.2269827959     0.2275364537    -3.2704846981
   89      H      -9.1356969464    -4.8322074300    -1.7999070832
   90      H      -7.5730237147    -7.0456649715    -1.4625881204
   91      H      -5.3655725617   -10.4477309545    -1.3037219671
   92      H      -3.5630735825   -10.6213381647     0.6774827084
   93      H      -2.7538600771     6.7087041709    -2.9320071654
   94      C      -4.9051068617     6.7189534082    -3.1993594141
   95      H      -3.3060693247     6.2132518807    -4.5489811835
   96      H      -5.1356327738     6.4501516781    -2.1614324255
   97      H      -5.4838915122     6.1769131332    -3.9578339810
   98      C      -4.8757515678     8.2083791451    -3.5007184042
   99      H      -4.2352721697     8.7650409746    -2.8051562229
  100      C      -6.2797832852     8.8515206261    -3.1642767716
  101      H      -4.6081517651     8.4405819263    -4.5384366772
  102      H      -6.2726869324     9.0940271197    -2.0939528756
  103      H      -7.0183375624     8.0505066598    -3.2897526865
  104      C      -6.5531551949    10.1952943490    -3.8510183392
  105      H      -5.7757260978    10.9036666011    -3.5378718056
  106      C      -7.9681203251    10.6408234732    -3.7927561754
  107      H      -6.2912050263    10.0456812184    -4.9060192967
  108      H      -8.5436806398    10.0486777512    -4.5145558485
  109      H      -8.1126198234    11.7031163134    -4.0229252797
  110      H      -8.3551331350    10.4788941123    -2.7788114200
 ----------------------------------------------------------------

   10   -5663.4910918428      9.51E-06 Convergence criterion met
 Total energy in the final basis set = -5663.4910918428

                    Orbital Energies (a.u.)
 --------------------------------------------------------------

 Alpha MOs
 -- Occupied --
-88.987 -88.985 -88.936 -88.927 -88.926 -88.922 -88.914 -88.904
-14.397 -14.395 -14.379 -14.379 -14.350 -14.348 -14.347 -14.343
-14.335 -14.327 -10.271 -10.268 -10.268 -10.264 -10.263 -10.260
-10.257 -10.254 -10.250 -10.241 -10.241 -10.241 -10.238 -10.237
-10.236 -10.234 -10.231 -10.231 -10.229 -10.229 -10.228 -10.227
-10.227 -10.227 -10.225 -10.225 -10.225 -10.224 -10.223 -10.217
-10.217 -10.213 -10.210 -10.208 -10.202 -10.201 -10.200 -10.198
-10.186 -10.185 -10.183 -10.181 -10.181 -10.180 -10.178 -10.178
-10.176 -10.175 -10.174 -10.171  -8.041  -8.039  -7.997  -7.987
 -7.985  -7.981  -7.974  -7.964  -6.007  -6.004  -6.001  -5.999
 -5.999  -5.997  -5.961  -5.958  -5.954  -5.951  -5.950  -5.948
 -5.946  -5.945  -5.945  -5.942  -5.941  -5.938  -5.937  -5.935
 -5.930  -5.928  -5.925  -5.920  -1.027  -1.016  -0.974  -0.973
 -0.959  -0.954  -0.931  -0.925  -0.919  -0.912  -0.908  -0.884
 -0.850  -0.836  -0.825  -0.822  -0.819  -0.817  -0.810  -0.808
 -0.808  -0.798  -0.797  -0.787  -0.784  -0.782  -0.766  -0.761
 -0.751  -0.748  -0.744  -0.738  -0.726  -0.718  -0.712  -0.707
 -0.698  -0.686  -0.676  -0.669  -0.654  -0.648  -0.647  -0.639
 -0.635  -0.627  -0.624  -0.618  -0.617  -0.603  -0.603  -0.598
 -0.590  -0.589  -0.588  -0.584  -0.581  -0.572  -0.571  -0.552
 -0.551  -0.550  -0.544  -0.531  -0.528  -0.520  -0.517  -0.513
 -0.507  -0.504  -0.494  -0.493  -0.489  -0.487  -0.477  -0.473
 -0.470  -0.469  -0.468  -0.466  -0.461  -0.455  -0.453  -0.449
 -0.448  -0.443  -0.441  -0.438  -0.435  -0.435  -0.431  -0.430
 -0.429  -0.426  -0.425  -0.425  -0.424  -0.416  -0.414  -0.412
 -0.411  -0.408  -0.405  -0.401  -0.399  -0.398  -0.394  -0.394
 -0.391  -0.391  -0.390  -0.389  -0.387  -0.385  -0.385  -0.383
 -0.382  -0.378  -0.372  -0.371  -0.368  -0.363  -0.360  -0.356
 -0.353  -0.351  -0.348  -0.347  -0.346  -0.343  -0.342  -0.340
 -0.338  -0.335  -0.334  -0.331  -0.331  -0.325  -0.324  -0.324
 -0.322  -0.314  -0.309  -0.307  -0.305  -0.303  -0.303  -0.299
 -0.298  -0.297  -0.294  -0.292  -0.291  -0.287  -0.285  -0.275
 -0.273  -0.270  -0.266  -0.257  -0.257  -0.253  -0.249  -0.248
 -0.247  -0.240  -0.233  -0.225  -0.195  -0.185

          Ground-State Mulliken Net Atomic Charges

     Atom                 Charge (a.u.)
  ----------------------------------------
      1 C                     0.269637
      2 C                    -0.104446
      3 N                    -0.486948
      4 C                    -0.094364
      5 C                     0.053231
      6 C                     0.058966
      7 C                     0.025872
      8 C                     0.060864
      9 C                     0.226755
     10 N                    -0.525187
     11 N                    -0.549373
     12 C                     0.205875
     13 C                     0.302942
     14 S                     0.592432
     15 N                    -0.568078
     16 C                    -0.203823
     17 S                     0.357171
     18 C                    -0.111875
     19 C                    -0.214828
     20 S                     0.292102
     21 C                     0.125659
     22 C                     0.052098
     23 C                    -0.307488
     24 C                    -0.085341
     25 N                    -0.424740
     26 S                     0.292569
     27 C                     0.105374
     28 C                    -0.295947
     29 C                    -0.227247
     30 H                     0.099231
     31 H                     0.096006
     32 H                     0.131670
     33 H                     0.117330
     34 H                     0.130882
     35 H                     0.115027
     36 H                     0.114551
     37 H                     0.135369
     38 H                     0.112568
     39 C                    -0.181647
     40 H                     0.104728
     41 H                     0.107629
     42 H                     0.089965
     43 C                    -0.182883
     44 H                     0.093904
     45 C                    -0.187802
     46 H                     0.103186
     47 H                     0.094845
     48 H                     0.089456
     49 C                    -0.174573
     50 H                     0.090713
     51 C                    -0.325791
     52 H                     0.098641
     53 H                     0.104116
     54 H                     0.103445
     55 H                     0.104898
     56 C                     0.288826
     57 C                    -0.113194
     58 N                    -0.487666
     59 C                    -0.091168
     60 C                     0.064494
     61 C                     0.042220
     62 C                     0.005876
     63 C                     0.074805
     64 C                     0.183831
     65 N                    -0.495768
     66 N                    -0.546481
     67 C                     0.229696
     68 C                     0.282853
     69 S                     0.637430
     70 N                    -0.576834
     71 C                    -0.220262
     72 S                     0.312709
     73 C                    -0.115299
     74 C                    -0.243179
     75 S                     0.277290
     76 C                     0.217317
     77 C                     0.029718
     78 C                    -0.302903
     79 C                    -0.075539
     80 N                    -0.420381
     81 S                     0.281944
     82 C                     0.118894
     83 C                    -0.306054
     84 C                    -0.248767
     85 H                     0.093793
     86 H                     0.114106
     87 H                     0.106347
     88 H                     0.113022
     89 H                     0.127831
     90 H                     0.124746
     91 H                     0.107938
     92 H                     0.138176
     93 H                     0.097184
     94 C                    -0.176567
     95 H                     0.111199
     96 H                     0.097976
     97 H                     0.116713
     98 C                    -0.173615
     99 H                     0.094523
    100 C                    -0.187624
    101 H                     0.097961
    102 H                     0.089600
    103 H                     0.093299
    104 C                    -0.175981
    105 H                     0.090568
    106 C                    -0.310300
    107 H                     0.089130
    108 H                     0.108660
    109 H                     0.099837
    110 H                     0.099745
  ----------------------------------------
  Sum of atomic charges =     0.000000

                    Cartesian Multipole Moments
 -----------------------------------------------------------------
    Charge (ESU x 10^10)
                 0.0000
    Dipole Moment (Debye)
         X       0.3890      Y       2.6404      Z       3.8623
       Tot       4.6947
    Quadrupole Moments (Debye-Ang)
        XX    -423.0699     XY      14.0704     YY    -392.9974
        XZ     -24.3502     YZ       5.5334     ZZ    -440.7959

 Total job time:  93.09s(wall), 1011.41s(cpu)
        *  Thank you very much for using Q-Chem.  Have a nice day.  *
