 Q-Chem 4.4, Q-Chem, Inc., Pleasanton, CA (2016)
 Q-Chem 4.4.2 for Intel X86 Linux

User input:
--------------------------------------------------------------
$comment
SP
$end

$rem
MEM_STATIC 5000
MEM_TOTAL 20000
JOBTYPE SP
EXCHANGE B3LYP
BASIS 6-31g(d,p)
$end

$molecule
0 1
C          16.999000      7.226000     13.009000
C          17.449000      8.024000     11.997000
N          17.517000      5.991000     13.183000
C          18.497000      7.677000     11.137000
C          18.520000      5.620000     12.320000
C          19.080000      6.419000     11.340000
C          20.403000      6.089000     10.717000
C          20.929000      4.779000     10.598000
C          21.408000      7.008000     10.254000
N          22.098000      4.378000     10.105000
N          21.257000      8.323000     10.422000
C          22.621000      6.660000      9.623000
C          23.029000      5.298000      9.689000
S          22.489000      8.987000      9.612000
N          23.372000      7.674000      9.195000
C          24.355000      4.715000      9.286000
S          25.722000      5.560000      8.565000
C          24.714000      3.347000      9.471000
C          26.605000      4.047000      8.229000
S          23.877000      2.024000     10.271000
C          25.910000      2.990000      8.916000
C          27.722000      3.898000      7.324000
C          25.213000      0.999000      9.789000
C          26.134000      1.611000      8.987000
N          28.290000      4.991000      6.959000
S          28.696000      2.451000      7.124000
C          29.493000      4.790000      6.322000
C          29.847000      3.444000      6.249000
C          15.894000      7.640000     13.995000
H          17.088000      9.048000     11.999000
H          18.920000      8.475000     10.534000
H          18.976000      4.665000     12.577000
H          20.241000      3.969000     10.837000
H          25.151000     -0.057000     10.019000
H          26.909000      1.021000      8.512000
H          30.068000      5.646000      5.997000
H          30.748000      3.042000      5.804000
H          14.990000      7.565000     13.378000
C          16.028000      9.030000     14.725000
H          15.646000      6.882000     14.748000
H          16.769000      9.739000     14.336000
H          16.403000      8.867000     15.743000
C          14.657000      9.834000     14.684000
H          14.831000     10.898000     14.891000
C          13.627000      9.262000     15.745000
H          14.302000      9.703000     13.655000
H          13.970000      9.196000     16.785000
H          13.418000      8.235000     15.420000
C          12.282000     10.020000     15.710000
H          12.397000     11.041000     16.094000
C          11.174000      9.334000     16.504000
H          11.949000     10.201000     14.681000
H          11.475000      9.133000     17.539000
H          10.871000      8.362000     16.096000
H          10.343000     10.046000     16.431000
C          20.406000      5.459000     14.964000
C          21.215000      6.602000     14.976000
N          20.726000      4.359000     14.222000
C          22.523000      6.460000     14.369000
C          21.881000      4.309000     13.512000
C          22.887000      5.328000     13.589000
C          24.246000      5.160000     12.926000
C          24.923000      3.871000     13.048000
C          25.054000      6.190000     12.306000
N          26.086000      3.575000     12.545000
N          24.647000      7.522000     12.151000
C          26.382000      5.880000     11.894000
C          26.845000      4.517000     11.902000
S          25.942000      8.282000     11.528000
N          26.975000      6.990000     11.364000
C          28.255000      4.173000     11.444000
S          29.234000      5.099000     10.310000
C          28.975000      3.056000     11.868000
C          30.449000      3.745000     10.248000
S          28.577000      1.984000     13.206000
C          30.145000      2.833000     11.230000
C          31.524000      3.660000      9.342000
C          30.219000      1.331000     12.971000
C          30.820000      1.703000     11.740000
N          31.962000      2.433000      9.044000
S          32.220000      4.988000      8.385000
C          32.859000      2.540000      8.050000
C          33.208000      3.835000      7.660000
C          19.238000      5.459000     15.833000
H          21.028000      7.506000     15.549000
H          23.173000      7.330000     14.352000
H          22.031000      3.390000     12.948000
H          24.391000      3.064000     13.550000
H          30.471000      0.606000     13.733000
H          31.697000      1.189000     11.364000
H          33.461000      1.695000      7.744000
H          33.970000      4.222000      6.996000
H          18.793000      6.461000     15.865000
C          19.473000      5.012000     17.327000
H          18.496000      4.763000     15.425000
H          20.327000      5.609000     17.669000
H          19.688000      3.949000     17.160000
C          18.189000      5.188000     18.121000
H          17.905000      6.242000     18.232000
C          18.437000      4.804000     19.634000
H          17.348000      4.603000     17.730000
H          18.836000      5.698000     20.130000
H          19.251000      4.069000     19.631000
C          17.169000      4.469000     20.429000
H          16.511000      5.347000     20.409000
C          17.417000      3.812000     21.737000
H          16.605000      3.767000     19.802000
H          17.688000      2.766000     21.549000
H          16.557000      3.830000     22.417000
H          18.239000      4.328000     22.249000
$end

--------------------------------------------------------------

             Standard Nuclear Orientation (Angstroms)
    I     Atom           X                Y                Z
 ----------------------------------------------------------------
    1      C       6.9468371172     1.7829956229     0.7739004980
    2      C       6.3110394532     2.9131504453     0.3473334953
    3      N       6.2747126567     0.8512031504     1.4837149087
    4      C       4.9456363539     3.1573346460     0.5327019192
    5      C       4.9414112704     1.0962659595     1.7088162921
    6      C       4.2239261147     2.1735062279     1.2218158244
    7      C       2.7253873985     2.1665810387     1.1806848402
    8      C       1.9021403454     1.4288603754     2.0666698922
    9      C       1.8721399234     2.7793740519     0.1981328215
   10      N       0.5765307423     1.3178081342     2.0956108631
   11      N       2.3914137344     3.3860066478    -0.8707926215
   12      C       0.4615435950     2.7969096204     0.2214673922
   13      C      -0.1918543455     1.9118411727     1.1245670401
   14      S       1.1300546592     4.0849813192    -1.6023851940
   15      N      -0.1328411910     3.4961951908    -0.7444971088
   16      C      -1.6589833419     1.5913062387     1.1978054463
   17      S      -2.9560436133     2.2815075792     0.2263056975
   18      C      -2.2199472092     0.6193930111     2.0782793060
   19      C      -4.2320542720     1.5203193816     1.2132926918
   20      S      -1.4647048527    -0.5236736655     3.1800531284
   21      C      -3.5851869016     0.5751045089     2.0852872156
   22      C      -5.6293551293     1.8894650156     1.2273217647
   23      C      -3.0806163099    -1.0197003128     3.6390005414
   24      C      -4.0804203397    -0.2768493612     3.0781499680
   25      N      -6.0184341991     2.6262536152     0.2494372945
   26      S      -6.9101423808     1.0310891446     2.0671192882
   27      C      -7.3876385785     2.7298535996     0.1604125180
   28      C      -8.0500667408     1.9789996603     1.1298289876
   29      C       8.4321664224     1.4874222958     0.5073479449
   30      H       6.8717167982     3.5505910039    -0.3295796816
   31      H       4.5094441627     3.9645041683    -0.0482935495
   32      H       4.4261603308     0.2630652741     2.1845295325
   33      H       2.4092816624     0.9753626199     2.9173828111
   34      H      -3.1810390817    -1.7550123423     4.4271068072
   35      H      -5.1008292792    -0.4045844506     3.4199091568
   36      H      -7.8224560436     3.3057263161    -0.6447523013
   37      H      -9.1220717620     1.8960726566     1.2537577842
   38      H       8.9350248434     2.1719651226     1.2016566131
   39      C       8.9634658056     1.6094452428    -0.9710929115
   40      H       8.7902862726     0.5367413829     0.9209092763
   41      H       8.3213853825     2.1164826846    -1.7016603367
   42      H       9.0364261262     0.6071061313    -1.4109918740
   43      C      10.3315951202     2.4176204275    -1.0241310976
   44      H      10.5246615235     2.7767167720    -2.0434427179
   45      C      11.5473586790     1.5147568573    -0.5544915092
   46      H      10.1659471877     3.2663753330    -0.3501853485
   47      H      11.6809106750     0.5546626717    -1.0682891532
   48      H      11.3428127221     1.2794120070     0.4975582772
   49      C      12.8844116118     2.2869278138    -0.5837399066
   50      H      13.1947085410     2.4951160412    -1.6149990776
   51      C      14.0257145361     1.5579058135     0.1195740760
   52      H      12.7744916158     3.2972176260    -0.1717652839
   53      H      14.1612607009     0.5401122864    -0.2650693606
   54      H      13.8804127804     1.4425605314     1.2006105535
   55      H      14.8881558501     2.2068890898    -0.0749758843
   56      C       4.4003412339    -1.5958205979    -0.0328972846
   57      C       3.9759109060    -1.1968054252    -1.3063649083
   58      N       3.5384577169    -1.6669977572     1.0230641802
   59      C       2.5424261401    -1.1121937619    -1.4998572663
   60      C       2.2158174580    -1.4116187978     0.8617280946
   61      C       1.6182184537    -1.1809263316    -0.4212303677
   62      C       0.1100081630    -1.0779035803    -0.5925838962
   63      C      -0.7358048906    -2.0366491937     0.1146226699
   64      C      -0.6128050431    -0.2295703853    -1.5178059558
   65      N      -2.0353037195    -2.0819067520     0.0651398741
   66      N      -0.0057991944     0.7109424383    -2.3609414896
   67      C      -2.0200389361    -0.3971698488    -1.6628272996
   68      C      -2.7465046936    -1.2498334513    -0.7587176358
   69      S      -1.2184138236     1.2947105307    -3.2728266662
   70      N      -2.4978384597     0.4754753479    -2.5981598478
   71      C      -4.2530497155    -1.4191603513    -0.8923233917
   72      S      -5.3709259738    -0.2550646220    -1.5973814064
   73      C      -4.9649611851    -2.5401133790    -0.4651098981
   74      C      -6.7796584708    -1.2354861315    -0.9910552436
   75      S      -4.2997827863    -4.0929055028     0.0290624584
   76      C      -6.3111634411    -2.4391926676    -0.5219209536
   77      C      -8.1254896347    -0.8207077199    -1.0106345071
   78      C      -5.9863079785    -4.6658067504    -0.0431520589
   79      C      -6.9500105103    -3.6251366253    -0.0999774130
   80      N      -8.9293310490    -1.3475402931    -0.0819454200
   81      S      -8.8244573959     0.4870642367    -1.9929916613
   82      C     -10.1121107239    -0.7142587211    -0.1458257082
   83      C     -10.2729386487     0.2058969883    -1.1842735157
   84      C       5.7907587937    -2.0029049600     0.1099534472
   85      H       4.6022725087    -1.1277463729    -2.1914728057
   86      H       2.1783373816    -0.7960127357    -2.4730776599
   87      H       1.6219239376    -1.4866663473     1.7710219700
   88      H      -0.2504261330    -2.7398053468     0.7900898312
   89      H      -6.0514236147    -5.7317503148     0.1280123989
   90      H      -7.9982991024    -3.8176369725     0.0968363159
   91      H     -10.9704198239    -1.0713157120     0.4072392012
   92      H     -11.1289731892     0.7569659410    -1.5514749249
   93      H       6.4321597769    -1.3803196161    -0.5256921052
   94      C       6.1223410427    -3.5059194989    -0.2336604463
   95      H       6.0936436129    -1.8601184238     1.1536568493
   96      H       5.6698336275    -3.6766534304    -1.2179246201
   97      H       5.6082853369    -3.9945081110     0.6036632064
   98      C       7.6236247097    -3.7291337330    -0.1537182376
   99      H       8.1714414362    -3.1828688240    -0.9317828129
  100      C       7.9671953430    -5.2170011193    -0.5615648518
  101      H       8.0466017221    -3.5157337070     0.8351891777
  102      H       8.0481465528    -5.2385052156    -1.6558397147
  103      H       7.0813005169    -5.8127491700    -0.3103585280
  104      C       9.3323662718    -5.7186652226    -0.0750307189
  105      H      10.1069431832    -5.0670122650    -0.4988550118
  106      C       9.5221540843    -7.1874251363    -0.1786738675
  107      H       9.3846401395    -5.4472551638     0.9868699463
  108      H       8.9544119431    -7.6640545686     0.6296541880
  109      H      10.5675300270    -7.5098993434    -0.1043534509
  110      H       9.1512527267    -7.5305573115    -1.1527254540
 ----------------------------------------------------------------

   10   -5663.4853584170      6.67E-06 Convergence criterion met
 Total energy in the final basis set = -5663.4853584170

                    Orbital Energies (a.u.)
 --------------------------------------------------------------

 Alpha MOs
 -- Occupied --
-88.986 -88.979 -88.928 -88.924 -88.924 -88.922 -88.908 -88.906
-14.383 -14.380 -14.380 -14.375 -14.348 -14.346 -14.342 -14.335
-14.326 -14.323 -10.268 -10.267 -10.262 -10.262 -10.258 -10.254
-10.251 -10.250 -10.243 -10.242 -10.242 -10.236 -10.236 -10.231
-10.230 -10.229 -10.229 -10.228 -10.228 -10.227 -10.226 -10.226
-10.223 -10.222 -10.221 -10.218 -10.217 -10.216 -10.214 -10.209
-10.208 -10.204 -10.203 -10.202 -10.201 -10.196 -10.195 -10.188
-10.187 -10.186 -10.186 -10.179 -10.179 -10.176 -10.176 -10.171
-10.171 -10.171 -10.168 -10.166  -8.040  -8.035  -7.990  -7.985
 -7.981  -7.980  -7.967  -7.965  -6.006  -6.000  -6.000  -5.998
 -5.994  -5.992  -5.954  -5.950  -5.948  -5.947  -5.945  -5.945
 -5.944  -5.942  -5.941  -5.941  -5.938  -5.936  -5.931  -5.930
 -5.928  -5.926  -5.923  -5.922  -1.041  -1.017  -0.977  -0.973
 -0.954  -0.947  -0.929  -0.924  -0.913  -0.911  -0.907  -0.885
 -0.842  -0.837  -0.823  -0.821  -0.818  -0.804  -0.801  -0.799
 -0.798  -0.796  -0.789  -0.785  -0.783  -0.779  -0.763  -0.760
 -0.748  -0.746  -0.739  -0.738  -0.721  -0.718  -0.705  -0.704
 -0.689  -0.685  -0.670  -0.667  -0.652  -0.645  -0.641  -0.635
 -0.629  -0.628  -0.619  -0.617  -0.606  -0.601  -0.599  -0.591
 -0.591  -0.588  -0.582  -0.581  -0.573  -0.570  -0.568  -0.567
 -0.552  -0.537  -0.534  -0.532  -0.519  -0.519  -0.514  -0.513
 -0.504  -0.496  -0.495  -0.491  -0.485  -0.482  -0.473  -0.472
 -0.468  -0.466  -0.465  -0.462  -0.457  -0.455  -0.447  -0.442
 -0.442  -0.440  -0.438  -0.433  -0.432  -0.430  -0.428  -0.426
 -0.426  -0.424  -0.423  -0.419  -0.416  -0.414  -0.413  -0.409
 -0.409  -0.405  -0.401  -0.396  -0.395  -0.395  -0.393  -0.390
 -0.389  -0.388  -0.387  -0.385  -0.383  -0.382  -0.379  -0.376
 -0.376  -0.372  -0.371  -0.369  -0.367  -0.359  -0.355  -0.354
 -0.351  -0.349  -0.346  -0.346  -0.344  -0.342  -0.338  -0.337
 -0.336  -0.335  -0.332  -0.327  -0.326  -0.322  -0.322  -0.321
 -0.314  -0.311  -0.308  -0.304  -0.302  -0.301  -0.298  -0.295
 -0.293  -0.292  -0.289  -0.288  -0.282  -0.277  -0.276  -0.275
 -0.267  -0.266  -0.262  -0.258  -0.251  -0.250  -0.249  -0.244
 -0.241  -0.238  -0.230  -0.220  -0.190  -0.182

          Ground-State Mulliken Net Atomic Charges

     Atom                 Charge (a.u.)
  ----------------------------------------
      1 C                     0.270393
      2 C                    -0.121756
      3 N                    -0.496605
      4 C                    -0.069989
      5 C                     0.053042
      6 C                     0.058029
      7 C                     0.077179
      8 C                     0.043025
      9 C                     0.187371
     10 N                    -0.522522
     11 N                    -0.541142
     12 C                     0.230608
     13 C                     0.296477
     14 S                     0.580400
     15 N                    -0.563057
     16 C                    -0.246825
     17 S                     0.348808
     18 C                    -0.119697
     19 C                    -0.216277
     20 S                     0.294696
     21 C                     0.148222
     22 C                     0.070654
     23 C                    -0.300834
     24 C                    -0.084330
     25 N                    -0.416813
     26 S                     0.284483
     27 C                     0.114938
     28 C                    -0.316133
     29 C                    -0.230483
     30 H                     0.079346
     31 H                     0.127231
     32 H                     0.126519
     33 H                     0.105293
     34 H                     0.125733
     35 H                     0.118706
     36 H                     0.117791
     37 H                     0.135236
     38 H                     0.114198
     39 C                    -0.195187
     40 H                     0.123299
     41 H                     0.094833
     42 H                     0.101088
     43 C                    -0.188296
     44 H                     0.088950
     45 C                    -0.166733
     46 H                     0.099701
     47 H                     0.091874
     48 H                     0.094211
     49 C                    -0.178098
     50 H                     0.090604
     51 C                    -0.314144
     52 H                     0.090618
     53 H                     0.100954
     54 H                     0.102801
     55 H                     0.099729
     56 C                     0.294067
     57 C                    -0.108851
     58 N                    -0.497414
     59 C                    -0.094855
     60 C                     0.057576
     61 C                     0.036117
     62 C                     0.016332
     63 C                     0.078858
     64 C                     0.186500
     65 N                    -0.492219
     66 N                    -0.562557
     67 C                     0.234999
     68 C                     0.283922
     69 S                     0.620964
     70 N                    -0.564562
     71 C                    -0.221076
     72 S                     0.333739
     73 C                    -0.117007
     74 C                    -0.247373
     75 S                     0.275889
     76 C                     0.216140
     77 C                     0.037619
     78 C                    -0.303530
     79 C                    -0.077591
     80 N                    -0.422753
     81 S                     0.277861
     82 C                     0.108812
     83 C                    -0.311011
     84 C                    -0.239048
     85 H                     0.093892
     86 H                     0.110551
     87 H                     0.121859
     88 H                     0.115112
     89 H                     0.127506
     90 H                     0.123269
     91 H                     0.107720
     92 H                     0.136501
     93 H                     0.098435
     94 C                    -0.182568
     95 H                     0.129474
     96 H                     0.093630
     97 H                     0.113447
     98 C                    -0.171481
     99 H                     0.092202
    100 C                    -0.187411
    101 H                     0.099727
    102 H                     0.088532
    103 H                     0.092420
    104 C                    -0.175440
    105 H                     0.089485
    106 C                    -0.310107
    107 H                     0.089055
    108 H                     0.108164
    109 H                     0.098911
    110 H                     0.099450
  ----------------------------------------
  Sum of atomic charges =     0.000000

                    Cartesian Multipole Moments
 -----------------------------------------------------------------
    Charge (ESU x 10^10)
                 0.0000
    Dipole Moment (Debye)
         X      -2.9462      Y       0.7317      Z      -2.3589
       Tot       3.8445
    Quadrupole Moments (Debye-Ang)
        XX    -376.5818     XY       5.3431     YY    -438.3777
        XZ     -13.5342     YZ     -10.3915     ZZ    -441.0591

 Total job time:  128.91s(wall), 1358.20s(cpu)
        *  Thank you very much for using Q-Chem.  Have a nice day.  *
