 Q-Chem 4.4, Q-Chem, Inc., Pleasanton, CA (2016)
 Q-Chem 4.4.2 for Intel X86 Linux

User input:
--------------------------------------------------------------
$comment
SP
$end

$rem
MEM_STATIC 5000
MEM_TOTAL 20000
JOBTYPE SP
EXCHANGE B3LYP
BASIS 6-31g(d,p)
$end

$molecule
0 1
C          28.279000     25.827000      3.338000
C          27.909000     24.771000      4.204000
N          27.491000     26.835000      2.982000
C          26.558000     24.780000      4.687000
C          26.262000     26.742000      3.415000
C          25.658000     25.783000      4.214000
C          24.200000     25.891000      4.686000
C          23.781000     25.308000      5.920000
C          23.143000     26.479000      3.993000
N          22.465000     25.242000      6.291000
N          23.311000     27.145000      2.842000
C          21.834000     26.586000      4.453000
C          21.484000     25.841000      5.621000
S          21.868000     27.736000      2.371000
N          20.967000     27.313000      3.699000
C          20.146000     25.648000      6.149000
S          18.666000     26.151000      5.284000
C          19.852000     24.841000      7.243000
C          17.702000     25.520000      6.576000
S          20.780000     24.186000      8.541000
C          18.489000     24.844000      7.441000
C          16.270000     25.602000      6.536000
C          19.318000     23.657000      9.336000
C          18.171000     24.104000      8.629000
N          15.589000     24.647000      7.234000
S          15.429000     26.507000      5.333000
C          14.275000     24.612000      6.847000
C          14.030000     25.599000      5.905000
C          29.756000     26.076000      2.908000
H          28.660000     24.017000      4.422000
H          26.165000     24.087000      5.424000
H          25.671000     27.637000      3.224000
H          24.481000     24.707000      6.498000
H          19.343000     23.017000     10.208000
H          17.164000     23.857000      8.945000
H          13.511000     23.968000      7.264000
H          13.077000     25.760000      5.419000
H          30.062000     25.417000      2.085000
C          30.711000     26.047000      4.042000
H          29.744000     26.998000      2.314000
H          30.692000     25.007000      4.390000
H          30.377000     26.819000      4.747000
C          32.123000     26.441000      3.529000
H          32.337000     25.938000      2.578000
C          33.220000     26.179000      4.517000
H          32.093000     27.504000      3.263000
H          33.227000     25.102000      4.726000
H          32.926000     26.661000      5.457000
C          34.593000     26.588000      4.054000
H          35.017000     25.874000      3.337000
C          35.506000     26.774000      5.321000
H          34.412000     27.516000      3.497000
H          36.454000     27.199000      4.969000
H          35.714000     25.836000      5.850000
H          35.083000     27.503000      6.024000
C          24.372000     21.691000     -0.842000
C          24.409000     22.895000     -0.126000
N          23.214000     21.186000     -1.201000
C          23.189000     23.578000      0.221000
C          22.005000     21.802000     -0.925000
C          21.979000     23.014000     -0.155000
C          20.694000     23.667000      0.322000
C          20.547000     25.018000      0.432000
C          19.497000     22.932000      0.614000
N          19.430000     25.702000      0.767000
N          19.393000     21.579000      0.497000
C          18.338000     23.564000      0.972000
C          18.271000     24.978000      1.078000
S          17.902000     21.218000      0.928000
N          17.303000     22.749000      1.317000
C          16.981000     25.650000      1.316000
S          15.326000     24.976000      1.057000
C          16.855000     27.011000      1.637000
C          14.513000     26.547000      1.373000
S          18.101000     28.205000      1.990000
C          15.493000     27.424000      1.717000
C          13.093000     26.836000      1.214000
C          16.786000     29.352000      2.244000
C          15.513000     28.813000      2.019000
N          12.698000     28.034000      1.495000
S          11.926000     25.597000      0.971000
C          11.348000     28.154000      1.327000
C          10.777000     26.939000      1.029000
C          25.534000     20.740000     -0.983000
H          25.331000     23.418000      0.110000
H          23.232000     24.589000      0.613000
H          21.073000     21.288000     -1.155000
H          21.451000     25.618000      0.334000
H          17.002000     30.325000      2.663000
H          14.613000     29.386000      2.211000
H          10.825000     29.095000      1.441000
H           9.780000     26.696000      0.686000
H          26.459000     21.306000     -1.143000
C          25.481000     19.640000     -1.997000
H          25.723000     20.326000      0.015000
H          24.566000     19.094000     -1.733000
H          26.382000     19.030000     -1.859000
C          25.442000     20.231000     -3.374000
H          24.531000     20.835000     -3.469000
C          25.351000     19.207000     -4.573000
H          26.200000     20.997000     -3.579000
H          24.442000     18.601000     -4.474000
H          26.156000     18.464000     -4.628000
C          25.488000     19.865000     -5.932000
H          24.743000     20.665000     -6.027000
C          25.150000     18.864000     -7.103000
H          26.509000     20.162000     -6.205000
H          24.102000     18.548000     -7.033000
H          25.687000     17.908000     -7.080000
H          25.308000     19.338000     -8.080000
$end

--------------------------------------------------------------

             Standard Nuclear Orientation (Angstroms)
    I     Atom           X                Y                Z
 ----------------------------------------------------------------
    1      C      -7.0850939652     1.9213483851     0.8937756405
    2      C      -6.7724878128     2.1382847422    -0.4690185518
    3      N      -6.2176272708     1.9899539245     1.8970397204
    4      C      -5.3967888844     2.4040184247    -0.7779021356
    5      C      -4.9779995341     2.1785453871     1.5305218699
    6      C      -4.4276323412     2.3546093358     0.2699682460
    7      C      -2.9356116738     2.6445130513     0.0462671870
    8      C      -2.4938826131     3.3997865915    -1.0818477524
    9      C      -1.8739065974     2.1889296157     0.8263108165
   10      N      -1.1696407663     3.5364838442    -1.4005174751
   11      N      -2.0514150159     1.5153633818     1.9714659544
   12      C      -0.5305328435     2.4856153565     0.6168960880
   13      C      -0.1802909857     3.1152380962    -0.6170629254
   14      S      -0.5903401348     1.2093690112     2.6233851495
   15      N       0.3539690718     2.0646501211     1.5598587768
   16      C       1.1631954428     3.3269261531    -1.1235304793
   17      S       2.6216638607     2.6305809007    -0.3622111223
   18      C       1.4454661183     3.8693578996    -2.3727750775
   19      C       3.6023517128     3.3491039938    -1.5945653333
   20      S       0.5491799723     4.8071970087    -3.5094992963
   21      C       2.8111259190     3.8815901559    -2.5511165501
   22      C       5.0275039546     3.1821044656    -1.5940699617
   23      C       1.9977101201     5.0796895662    -4.4458850165
   24      C       3.1317131332     4.5348659033    -3.7882594828
   25      N       5.6470846721     3.2625460313    -2.8075932985
   26      S       5.8727480480     2.4552234303    -0.2785011178
   27      C       6.9162938358     2.7511304684    -2.7358143281
   28      C       7.1996548846     2.3620431014    -1.4358621994
   29      C      -8.5527127824     1.8382464606     1.4110947659
   30      H      -7.5850568859     2.0639739143    -1.1861310969
   31      H      -5.0302438733     2.6760232611    -1.7625468044
   32      H      -4.3061197372     2.3618032896     2.3682456190
   33      H      -3.2118840474     3.7061630312    -1.8407235114
   34      H       1.9660925936     5.5444601566    -5.4224082524
   35      H       4.1253454235     4.5751872940    -4.2195170128
   36      H       7.6320889357     2.7221173256    -3.5476742991
   37      H       8.1257899095     1.8991720911    -1.1222536161
   38      H      -8.9913141187     0.8451624584     1.2478188266
   39      C      -9.4176754326     2.9301219615     0.9026958041
   40      H      -8.4815705082     1.7507075021     2.5021216710
   41      H      -9.4897007581     2.7433593117    -0.1757276124
   42      H      -8.9474388980     3.8697873142     1.2196683996
   43      C     -10.8107924799     2.8348458359     1.5826195884
   44      H     -11.1502592685     1.7921867175     1.6114338604
   45      C     -11.8535166152     3.7064265218     0.9491604455
   46      H     -10.6815156423     3.0982979213     2.6387945256
   47      H     -11.9658269716     3.3838039482    -0.0934133212
   48      H     -11.4379592110     4.7200658676     0.9021783171
   49      C     -13.2025759622     3.6572843452     1.6157959717
   50      H     -13.7563715792     2.7451065214     1.3610352359
   51      C     -13.9918553259     4.9615350882     1.2292444417
   52      H     -12.9605432735     3.5847956640     2.6836721671
   53      H     -14.9097193929     4.9663703926     1.8298567745
   54      H     -14.2638529176     5.0080512724     0.1677348775
   55      H     -13.4384100135     5.8686387780     1.5039082036
   56      C      -3.9900442312    -4.1438111326    -0.9711780235
   57      C      -3.8380805718    -2.9472765080    -0.2578387365
   58      N      -2.9261099046    -4.8330804235    -1.3144295250
   59      C      -2.5266292915    -2.4680691681     0.0967791773
   60      C      -1.6383784824    -4.4461504082    -0.9837545371
   61      C      -1.4190641137    -3.2061324537    -0.2932643632
   62      C      -0.0368801189    -2.6350746339    -0.0313037344
   63      C       0.2687174150    -1.9213468365     1.0894606380
   64      C       1.0884184639    -2.8677562509    -0.8902917230
   65      N       1.4773264271    -1.4398962815     1.4572100350
   66      N       1.0307825925    -3.6184418829    -2.0253085459
   67      C       2.3345190770    -2.3956355751    -0.5817397348
   68      C       2.5676244471    -1.6462645346     0.6011490724
   69      S       2.4997690449    -3.5887781889    -2.6420433898
   70      N       3.2942644488    -2.6002736069    -1.5259256790
   71      C       3.9390718072    -1.2758930852     0.9939405286
   72      S       5.4839456360    -2.0163395835     0.4234268687
   73      C       4.2407208737    -0.3704297398     2.0236890274
   74      C       6.4895353168    -1.0983653850     1.5960217539
   75      S       3.1665265873     0.6479361660     2.9785704427
   76      C       5.6426377892    -0.2685579713     2.2608895857
   77      C       7.9171708575    -1.2707094125     1.8355135053
   78      C       4.6172879678     1.2525955381     3.7779630001
   79      C       5.8013475776     0.6508394778     3.3334773601
   80      N       8.4640735683    -0.5088861899     2.7247338392
   81      S       8.9162362531    -2.2046155529     0.7935218276
   82      C       9.8026959780    -0.7602018704     2.8250058345
   83      C      10.2097964315    -1.6599405586     1.8680264649
   84      C      -5.2587613456    -4.5757383573    -1.6627861178
   85      H      -4.6753214496    -2.3852273857     0.1451966175
   86      H      -2.4264517389    -1.6448990585     0.7967716262
   87      H      -0.7897705943    -4.9999127628    -1.3824171849
   88      H      -0.5669498266    -1.6173536774     1.7188003081
   89      H       4.5437907966     2.1021226290     4.4426793965
   90      H       6.7718058636     0.9808976982     3.6862737409
   91      H      10.4351103569    -0.2804793167     3.5611609301
   92      H      11.1448201652    -2.1928881836     1.7566512144
   93      H      -6.1236795634    -4.3394487818    -1.0321794947
   94      C      -5.4054157123    -5.9859150071    -2.1433059543
   95      H      -5.4181014164    -3.8750080133    -2.4914650223
   96      H      -4.5404034610    -6.1206575033    -2.8056014056
   97      H      -6.3564086257    -6.0446384539    -2.6865453447
   98      C      -5.4030929569    -6.9170422204    -0.9686027078
   99      H      -4.4396582274    -6.8247237028    -0.4518505300
  100      C      -5.5173559803    -8.4578163905    -1.2963479111
  101      H      -6.0834293285    -6.6459895352    -0.1518910921
  102      H      -4.6773336892    -8.7643507991    -1.9317353574
  103      H      -6.4025572905    -8.7592819864    -1.8696158545
  104      C      -5.6805588605    -9.3207454401    -0.0604950577
  105      H      -4.8595950743    -9.1165259369     0.6383345755
  106      C      -5.5454055132   -10.8556399561    -0.3971230383
  107      H      -6.6792406510    -9.2982905480     0.3948174275
  108      H      -4.5372442073   -11.0677789188    -0.7735109257
  109      H      -6.1831591305   -11.2209299200    -1.2111669965
  110      H      -5.7215922920   -11.4684715303     0.4959417302
 ----------------------------------------------------------------

   10   -5663.5047115747      7.38E-06 Convergence criterion met
 Total energy in the final basis set = -5663.5047115747

                    Orbital Energies (a.u.)
 --------------------------------------------------------------

 Alpha MOs
 -- Occupied --
-88.990 -88.983 -88.934 -88.931 -88.928 -88.921 -88.914 -88.907
-14.390 -14.387 -14.383 -14.374 -14.356 -14.347 -14.342 -14.341
-14.326 -14.324 -10.275 -10.269 -10.265 -10.257 -10.254 -10.253
-10.250 -10.249 -10.249 -10.245 -10.241 -10.240 -10.236 -10.236
-10.236 -10.234 -10.232 -10.231 -10.231 -10.228 -10.227 -10.227
-10.225 -10.225 -10.224 -10.222 -10.220 -10.218 -10.218 -10.217
-10.213 -10.211 -10.210 -10.206 -10.200 -10.196 -10.195 -10.191
-10.180 -10.178 -10.178 -10.175 -10.175 -10.174 -10.173 -10.169
-10.169 -10.168 -10.167 -10.166  -8.046  -8.037  -7.996  -7.992
 -7.986  -7.980  -7.973  -7.967  -6.010  -6.005  -6.003  -6.003
 -5.997  -5.995  -5.960  -5.957  -5.956  -5.953  -5.953  -5.950
 -5.949  -5.947  -5.944  -5.942  -5.941  -5.937  -5.937  -5.934
 -5.931  -5.929  -5.927  -5.923  -1.040  -1.031  -0.989  -0.961
 -0.952  -0.950  -0.949  -0.935  -0.913  -0.909  -0.903  -0.898
 -0.845  -0.841  -0.834  -0.827  -0.816  -0.813  -0.809  -0.806
 -0.804  -0.801  -0.794  -0.794  -0.785  -0.775  -0.769  -0.764
 -0.752  -0.748  -0.742  -0.737  -0.723  -0.721  -0.706  -0.705
 -0.694  -0.691  -0.676  -0.668  -0.652  -0.651  -0.646  -0.643
 -0.634  -0.633  -0.628  -0.623  -0.613  -0.608  -0.602  -0.594
 -0.593  -0.587  -0.584  -0.583  -0.576  -0.574  -0.568  -0.564
 -0.555  -0.551  -0.536  -0.535  -0.526  -0.520  -0.514  -0.512
 -0.506  -0.503  -0.500  -0.493  -0.486  -0.482  -0.478  -0.477
 -0.473  -0.470  -0.467  -0.464  -0.461  -0.459  -0.448  -0.447
 -0.445  -0.443  -0.441  -0.441  -0.437  -0.435  -0.431  -0.428
 -0.427  -0.426  -0.422  -0.421  -0.418  -0.416  -0.414  -0.410
 -0.408  -0.406  -0.404  -0.403  -0.400  -0.396  -0.396  -0.394
 -0.392  -0.392  -0.391  -0.390  -0.388  -0.386  -0.383  -0.381
 -0.380  -0.376  -0.375  -0.371  -0.365  -0.361  -0.356  -0.352
 -0.351  -0.349  -0.349  -0.348  -0.345  -0.344  -0.342  -0.336
 -0.335  -0.333  -0.331  -0.331  -0.325  -0.324  -0.323  -0.318
 -0.316  -0.315  -0.307  -0.306  -0.305  -0.302  -0.298  -0.298
 -0.295  -0.293  -0.291  -0.289  -0.288  -0.285  -0.285  -0.278
 -0.278  -0.267  -0.263  -0.262  -0.258  -0.252  -0.248  -0.246
 -0.244  -0.243  -0.233  -0.229  -0.197  -0.187

          Ground-State Mulliken Net Atomic Charges

     Atom                 Charge (a.u.)
  ----------------------------------------
      1 C                     0.244914
      2 C                    -0.114190
      3 N                    -0.461659
      4 C                    -0.097472
      5 C                     0.079864
      6 C                     0.065825
      7 C                     0.038153
      8 C                     0.047454
      9 C                     0.232874
     10 N                    -0.547148
     11 N                    -0.563369
     12 C                     0.192109
     13 C                     0.343278
     14 S                     0.607469
     15 N                    -0.575031
     16 C                    -0.241027
     17 S                     0.339518
     18 C                    -0.102756
     19 C                    -0.225566
     20 S                     0.288312
     21 C                     0.162894
     22 C                     0.044495
     23 C                    -0.322027
     24 C                    -0.059139
     25 N                    -0.443703
     26 S                     0.303889
     27 C                     0.142205
     28 C                    -0.314213
     29 C                    -0.240198
     30 H                     0.097827
     31 H                     0.096854
     32 H                     0.105152
     33 H                     0.108988
     34 H                     0.131547
     35 H                     0.122386
     36 H                     0.123999
     37 H                     0.121381
     38 H                     0.096828
     39 C                    -0.166785
     40 H                     0.118413
     41 H                     0.092155
     42 H                     0.108061
     43 C                    -0.186796
     44 H                     0.086241
     45 C                    -0.157113
     46 H                     0.093346
     47 H                     0.085198
     48 H                     0.088578
     49 C                    -0.177928
     50 H                     0.095568
     51 C                    -0.321836
     52 H                     0.092446
     53 H                     0.097472
     54 H                     0.106905
     55 H                     0.106116
     56 C                     0.311493
     57 C                    -0.140269
     58 N                    -0.494874
     59 C                    -0.089757
     60 C                     0.083832
     61 C                     0.031833
     62 C                     0.069273
     63 C                     0.056993
     64 C                     0.203414
     65 N                    -0.534369
     66 N                    -0.534585
     67 C                     0.206031
     68 C                     0.288205
     69 S                     0.605452
     70 N                    -0.568495
     71 C                    -0.216474
     72 S                     0.312344
     73 C                    -0.130095
     74 C                    -0.248801
     75 S                     0.323440
     76 C                     0.168783
     77 C                     0.096501
     78 C                    -0.313313
     79 C                    -0.072257
     80 N                    -0.443342
     81 S                     0.268734
     82 C                     0.138495
     83 C                    -0.318373
     84 C                    -0.239261
     85 H                     0.094420
     86 H                     0.111787
     87 H                     0.129403
     88 H                     0.097968
     89 H                     0.129706
     90 H                     0.119946
     91 H                     0.124005
     92 H                     0.130794
     93 H                     0.093648
     94 C                    -0.158817
     95 H                     0.113691
     96 H                     0.116555
     97 H                     0.086598
     98 C                    -0.180241
     99 H                     0.111974
    100 C                    -0.166871
    101 H                     0.082446
    102 H                     0.092906
    103 H                     0.082798
    104 C                    -0.177744
    105 H                     0.094101
    106 C                    -0.330067
    107 H                     0.097551
    108 H                     0.099003
    109 H                     0.097295
    110 H                     0.095832
  ----------------------------------------
  Sum of atomic charges =     0.000000

                    Cartesian Multipole Moments
 -----------------------------------------------------------------
    Charge (ESU x 10^10)
                 0.0000
    Dipole Moment (Debye)
         X       3.8756      Y       0.2628      Z      -0.8778
       Tot       3.9824
    Quadrupole Moments (Debye-Ang)
        XX    -368.4104     XY     -13.6521     YY    -462.0198
        XZ      11.2298     YZ      -1.0462     ZZ    -440.8337

 Total job time:  103.01s(wall), 1124.57s(cpu)
        *  Thank you very much for using Q-Chem.  Have a nice day.  *
