 Q-Chem 4.4, Q-Chem, Inc., Pleasanton, CA (2016)
 Q-Chem 4.4.2 for Intel X86 Linux

User input:
--------------------------------------------------------------
$comment
SP
$end

$rem
MEM_STATIC 5000
MEM_TOTAL 20000
JOBTYPE SP
EXCHANGE B3LYP
BASIS 6-31g(d,p)
$end

$molecule
0 1
C         -22.730000      5.206000    -12.448000
C         -24.006000      4.656000    -12.797000
N         -22.611000      6.278000    -11.727000
C         -25.107000      5.384000    -12.432000
C         -23.703000      6.858000    -11.264000
C         -24.998000      6.491000    -11.533000
C         -26.195000      7.389000    -11.209000
C         -27.327000      7.406000    -12.035000
C         -26.284000      8.207000    -10.046000
N         -28.488000      8.121000    -11.726000
N         -25.226000      8.368000     -9.200000
C         -27.387000      8.971000     -9.784000
C         -28.550000      8.861000    -10.600000
S         -25.724000      9.561000     -8.219000
N         -27.279000      9.820000     -8.774000
C         -29.916000      9.446000    -10.460000
S         -31.182000      9.156000    -11.631000
C         -30.545000      9.901000     -9.306000
C         -32.443000      9.952000    -10.658000
S         -29.910000     10.494000     -7.777000
C         -31.853000     10.135000     -9.427000
C         -33.856000     10.082000    -10.984000
C         -31.461000     11.100000     -7.324000
C         -32.356000     10.772000     -8.276000
N         -34.730000     10.203000    -10.023000
S         -34.512000      9.825000    -12.546000
C         -36.090000     10.258000    -10.462000
C         -36.183000      9.908000    -11.823000
C         -21.561000      4.515000    -13.154000
H         -23.985000      3.837000    -13.509000
H         -26.103000      5.080000    -12.739000
H         -23.431000      7.784000    -10.761000
H         -27.353000      6.811000    -12.947000
H         -31.679000     11.564000     -6.371000
H         -33.283000     11.323000     -8.161000
H         -36.902000     10.423000     -9.766000
H         -36.971000      9.920000    -12.565000
H         -20.829000      4.221000    -12.392000
C         -21.136000      5.375000    -14.405000
H         -21.838000      3.513000    -13.505000
H         -20.885000      6.388000    -14.068000
H         -21.980000      5.318000    -15.103000
C         -19.927000      4.700000    -15.125000
H         -19.106000      4.508000    -14.423000
C         -19.404000      5.712000    -16.224000
H         -20.220000      3.751000    -15.591000
H         -19.163000      6.614000    -15.649000
H         -20.155000      6.047000    -16.951000
C         -18.141000      5.216000    -16.922000
H         -17.662000      6.121000    -17.315000
C         -18.517000      4.257000    -18.057000
H         -17.481000      4.673000    -16.234000
H         -18.937000      4.719000    -18.959000
H         -19.339000      3.576000    -17.804000
H         -17.683000      3.589000    -18.307000
C         -26.117000     19.740000     -5.257000
C         -24.743000     19.469000     -5.121000
N         -27.018000     18.777000     -5.364000
C         -24.282000     18.159000     -4.954000
C         -26.597000     17.530000     -5.143000
C         -25.250000     17.147000     -4.955000
C         -24.760000     15.746000     -4.787000
C         -23.729000     15.423000     -3.835000
C         -25.229000     14.617000     -5.530000
N         -23.227000     14.197000     -3.696000
N         -26.218000     14.754000     -6.439000
C         -24.655000     13.358000     -5.398000
C         -23.617000     13.181000     -4.489000
S         -26.613000     13.158000     -6.766000
N         -25.318000     12.331000     -6.104000
C         -23.021000     11.859000     -4.216000
S         -22.676000     11.320000     -2.567000
C         -22.878000     10.814000     -5.070000
C         -22.374000      9.684000     -3.082000
S         -22.800000     10.836000     -6.784000
C         -22.575000      9.596000     -4.459000
C         -21.846000      8.654000     -2.185000
C         -22.477000      9.108000     -6.740000
C         -22.319000      8.599000     -5.472000
N         -21.997000      7.344000     -2.533000
S         -20.907000      9.004000     -0.769000
C         -21.358000      6.566000     -1.576000
C         -20.752000      7.252000     -0.557000
C         -26.591000     21.211000     -5.230000
H         -24.100000     20.327000     -4.952000
H         -23.272000     17.930000     -4.630000
H         -27.325000     16.730000     -5.269000
H         -23.406000     16.148000     -3.090000
H         -22.336000      8.513000     -7.633000
H         -22.043000      7.590000     -5.188000
H         -21.313000      5.519000     -1.848000
H         -20.060000      6.850000      0.171000
H         -25.988000     21.698000     -6.007000
C         -26.561000     22.047000     -3.945000
H         -27.625000     21.329000     -5.576000
H         -25.614000     21.984000     -3.395000
H         -27.296000     21.603000     -3.262000
C         -27.044000     23.502000     -4.167000
H         -26.376000     23.949000     -4.914000
C         -26.950000     24.289000     -2.840000
H         -28.097000     23.529000     -4.471000
H         -27.107000     25.330000     -3.148000
H         -25.940000     24.113000     -2.449000
C         -27.985000     24.009000     -1.787000
H         -28.963000     24.226000     -2.233000
C         -27.805000     24.975000     -0.615000
H         -28.021000     22.932000     -1.580000
H         -28.674000     24.892000      0.049000
H         -27.693000     25.981000     -1.037000
H         -26.881000     24.730000     -0.075000
$end

--------------------------------------------------------------

             Standard Nuclear Orientation (Angstroms)
    I     Atom           X                Y                Z
 ----------------------------------------------------------------
    1      C       8.0401417732    -1.7964967018     1.1189259536
    2      C       8.5110071659    -0.5641968303     0.5601775232
    3      N       6.7767318338    -2.0564535258     1.2582233862
    4      C       7.5630709902     0.3852017675     0.2854607432
    5      C       5.8942005385    -1.1719736619     0.8315304251
    6      C       6.1685686443     0.0687066415     0.3123873550
    7      C       5.0930893963     1.1426089075     0.1272730378
    8      C       5.3955123208     2.5008857352     0.2934459420
    9      C       3.7555905124     0.8672474547    -0.2787895260
   10      N       4.4818328871     3.5253703381     0.0284021893
   11      N       3.2873999890    -0.4095633489    -0.3862735040
   12      C       2.8368472288     1.8633761532    -0.4593093171
   13      C       3.2323128764     3.2303527262    -0.3851003520
   14      S       1.6938354798    -0.1945658088    -0.6052306067
   15      N       1.5881618596     1.4724371036    -0.6605964461
   16      C       2.4923420457     4.4920781620    -0.6822082351
   17      S       3.2218513341     6.0702960445    -0.4947475360
   18      C       1.3807218337     4.6676958842    -1.4994235800
   19      C       1.8507955144     6.9349118752    -1.2317084607
   20      S       0.1158026512     3.5610592805    -2.0171589266
   21      C       1.0818197330     5.9359737753    -1.7864596844
   22      C       1.7386392837     8.3666494033    -1.4710693401
   23      C      -0.8446107700     4.8709409976    -2.6001357252
   24      C      -0.1584818337     6.0203342038    -2.4483617481
   25      N       0.9743284937     8.8003013134    -2.4353374756
   26      S       2.7470972530     9.5467163493    -0.7453396885
   27      C       0.9945351010    10.2189272676    -2.6154432645
   28      C       2.0405934228    10.7955149996    -1.8692672969
   29      C       9.1615131673    -2.6692950838     1.6874566747
   30      H       9.5832498331    -0.4042390031     0.6136111849
   31      H       7.8487158016     1.3760942741    -0.0539800941
   32      H       4.8941177642    -1.5036355557     1.1041177189
   33      H       6.3936440577     2.8098247567     0.6012359949
   34      H      -1.7931114836     4.7521275068    -3.1073425378
   35      H      -0.7968785779     6.8876546459    -2.5762673680
   36      H       0.3538918791    10.7056392500    -3.3390956039
   37      H       2.3460783201    11.8066863908    -1.6329129120
   38      H       9.0656300740    -3.6719783120     1.2534788225
   39      C       9.2345295172    -2.4591607502     3.2481418365
   40      H      10.1359760873    -2.4021613974     1.2596768117
   41      H       8.2555806355    -2.6957463448     3.6822217181
   42      H       9.5632726920    -1.4227367525     3.3914674173
   43      C      10.3563481734    -3.3609400756     3.8514849817
   44      H      10.2240579987    -4.4086011146     3.5538028410
   45      C      10.2329314851    -3.2811535090     5.4275168421
   46      H      11.3511489749    -3.0275115500     3.5308562498
   47      H       9.2070861517    -3.6158143588     5.6223333392
   48      H      10.2730594556    -2.2698688770     5.8523087194
   49      C      11.2044617357    -4.2187727109     6.1384234494
   50      H      10.7597883013    -4.3895144995     7.1263646311
   51      C      12.5770092314    -3.5480152905     6.2628415147
   52      H      11.3427743795    -5.1573859117     5.5873627705
   53      H      12.6588971589    -2.7539656104     7.0153223934
   54      H      12.8731026820    -2.9821362218     5.3708978236
   55      H      13.3744654701    -4.2919208682     6.3851036876
   56      C      -8.2983323734     0.2513763401     2.9299711123
   57      C      -7.9689892523    -1.0874912643     3.2106482341
   58      N      -7.5793896809     0.9960463442     2.1058309605
   59      C      -6.9393045625    -1.7343360356     2.5193803546
   60      C      -6.6369737039     0.3721782812     1.3960903274
   61      C      -6.2501191891    -0.9762962196     1.5646195685
   62      C      -5.1432822176    -1.6611529031     0.8318111068
   63      C      -5.2831324046    -3.0145450236     0.3602544365
   64      C      -3.8687922643    -1.0806149005     0.5397460692
   65      N      -4.3000195079    -3.6774166271    -0.2467803811
   66      N      -3.5969195076     0.1947284201     0.8901110488
   67      C      -2.8451369306    -1.8104056926    -0.0531419115
   68      C      -3.0779100594    -3.1353209238    -0.4073597833
   69      S      -2.1706384784     0.4869045434     0.0591323855
   70      N      -1.7008215049    -1.0550772979    -0.3889323561
   71      C      -2.0804736022    -3.9483223199    -1.1295635245
   72      S      -2.5355062385    -4.9770746169    -2.4946133446
   73      C      -0.7275452319    -3.8715279414    -1.0555537395
   74      C      -0.8748419260    -5.2510892046    -2.9418661222
   75      S       0.2412240674    -3.2662836155     0.2248873371
   76      C      -0.0467797882    -4.5375727744    -2.0761401842
   77      C      -0.4787040096    -6.2114490346    -3.9738916781
   78      C       1.6610263423    -3.7904420742    -0.6704720379
   79      C       1.3731592400    -4.4953602396    -1.8159378434
   80      N       0.7609003025    -6.0981953258    -4.5311705553
   81      S      -1.4408873992    -7.5805887507    -4.4309874694
   82      C       0.9336925828    -7.1522937118    -5.4191308137
   83      C      -0.1201660732    -8.0206307282    -5.5266750331
   84      C      -9.5707758952     0.8536250979     3.5682734838
   85      H      -8.6732429854    -1.6343334023     3.8296509445
   86      H      -6.8006241962    -2.8102206703     2.5468941464
   87      H      -6.0157989002     0.9867125433     0.7462061039
   88      H      -6.2511211170    -3.5125108412     0.3628806661
   89      H       2.6710781588    -3.6411527239    -0.3114970833
   90      H       2.0670135705    -4.9825819905    -2.4912852602
   91      H       1.9434967028    -7.2151719839    -5.8045655841
   92      H      -0.1145806261    -8.9867835616    -6.0134701701
   93      H      -9.4410390074     0.6693916536     4.6423932992
   94      C     -10.9761330748     0.4240889027     3.1306768031
   95      H      -9.6102100799     1.9463746908     3.4837792690
   96      H     -11.1092945005    -0.6627894741     3.0655505510
   97      H     -11.1051777338     0.7708417039     2.0977392586
   98      C     -12.0950456831     1.1304305856     3.9361046410
   99      H     -11.9411131424     0.8702545949     4.9909293785
  100      C     -13.4758801665     0.6200401044     3.4650083811
  101      H     -12.0872095300     2.2127959646     3.7618124124
  102      H     -14.1658073342     1.0121883067     4.2222496179
  103      H     -13.4183175583    -0.4756577296     3.4744848104
  104      C     -13.9894119174     1.1149314227     2.1422076690
  105      H     -14.0445376952     2.2081265970     2.2083473659
  106      C     -15.4153904898     0.6091029806     1.9189080980
  107      H     -13.2390677680     0.9339251262     1.3622753783
  108      H     -15.8445218300     1.1298325055     1.0542503306
  109      H     -15.9754021246     0.7966173346     2.8429694249
  110      H     -15.3984434400    -0.4752700429     1.7478848734
 ----------------------------------------------------------------

   10   -5663.4943952445      9.45E-06 Convergence criterion met
 Total energy in the final basis set = -5663.4943952445

                    Orbital Energies (a.u.)
 --------------------------------------------------------------

 Alpha MOs
 -- Occupied --
-88.990 -88.981 -88.930 -88.923 -88.921 -88.920 -88.911 -88.898
-14.400 -14.390 -14.385 -14.383 -14.350 -14.347 -14.343 -14.339
-14.330 -14.321 -10.272 -10.268 -10.264 -10.262 -10.260 -10.259
-10.253 -10.253 -10.243 -10.243 -10.242 -10.242 -10.240 -10.239
-10.238 -10.235 -10.233 -10.232 -10.229 -10.228 -10.227 -10.226
-10.226 -10.224 -10.224 -10.222 -10.216 -10.216 -10.215 -10.214
-10.210 -10.210 -10.209 -10.200 -10.198 -10.197 -10.195 -10.188
-10.186 -10.186 -10.184 -10.182 -10.182 -10.179 -10.178 -10.176
-10.176 -10.175 -10.175 -10.170  -8.045  -8.036  -7.991  -7.983
 -7.982  -7.980  -7.972  -7.959  -6.010  -6.004  -6.002  -6.001
 -5.995  -5.994  -5.955  -5.952  -5.948  -5.947  -5.945  -5.945
 -5.943  -5.942  -5.941  -5.940  -5.938  -5.937  -5.936  -5.933
 -5.928  -5.924  -5.920  -5.915  -1.039  -1.026  -0.961  -0.959
 -0.955  -0.954  -0.948  -0.947  -0.919  -0.918  -0.908  -0.900
 -0.849  -0.849  -0.832  -0.829  -0.812  -0.811  -0.804  -0.802
 -0.802  -0.796  -0.793  -0.790  -0.786  -0.785  -0.767  -0.766
 -0.751  -0.749  -0.744  -0.738  -0.728  -0.726  -0.712  -0.704
 -0.695  -0.691  -0.673  -0.668  -0.655  -0.655  -0.646  -0.645
 -0.635  -0.635  -0.631  -0.628  -0.611  -0.609  -0.599  -0.599
 -0.594  -0.588  -0.586  -0.585  -0.580  -0.578  -0.568  -0.564
 -0.552  -0.552  -0.543  -0.538  -0.525  -0.514  -0.511  -0.509
 -0.509  -0.504  -0.502  -0.500  -0.488  -0.483  -0.474  -0.473
 -0.472  -0.472  -0.468  -0.466  -0.465  -0.462  -0.457  -0.448
 -0.445  -0.442  -0.438  -0.436  -0.435  -0.431  -0.431  -0.429
 -0.428  -0.427  -0.425  -0.425  -0.422  -0.420  -0.419  -0.416
 -0.412  -0.406  -0.406  -0.403  -0.401  -0.400  -0.397  -0.396
 -0.393  -0.392  -0.390  -0.387  -0.385  -0.384  -0.383  -0.380
 -0.379  -0.378  -0.373  -0.371  -0.367  -0.367  -0.362  -0.358
 -0.354  -0.350  -0.350  -0.348  -0.346  -0.344  -0.344  -0.340
 -0.339  -0.337  -0.336  -0.332  -0.332  -0.331  -0.329  -0.325
 -0.324  -0.314  -0.314  -0.306  -0.304  -0.303  -0.298  -0.297
 -0.294  -0.291  -0.290  -0.288  -0.287  -0.286  -0.280  -0.276
 -0.274  -0.269  -0.268  -0.267  -0.252  -0.252  -0.249  -0.247
 -0.246  -0.245  -0.235  -0.233  -0.195  -0.191

          Ground-State Mulliken Net Atomic Charges

     Atom                 Charge (a.u.)
  ----------------------------------------
      1 C                     0.267168
      2 C                    -0.112673
      3 N                    -0.469865
      4 C                    -0.085727
      5 C                     0.067244
      6 C                     0.051802
      7 C                     0.047703
      8 C                     0.042731
      9 C                     0.207586
     10 N                    -0.534783
     11 N                    -0.543888
     12 C                     0.242002
     13 C                     0.318453
     14 S                     0.634348
     15 N                    -0.586260
     16 C                    -0.233554
     17 S                     0.324602
     18 C                    -0.136724
     19 C                    -0.217695
     20 S                     0.270824
     21 C                     0.160779
     22 C                     0.080410
     23 C                    -0.302926
     24 C                    -0.061732
     25 N                    -0.439046
     26 S                     0.243735
     27 C                     0.114925
     28 C                    -0.305280
     29 C                    -0.239861
     30 H                     0.091426
     31 H                     0.094402
     32 H                     0.109107
     33 H                     0.111696
     34 H                     0.131835
     35 H                     0.110391
     36 H                     0.127557
     37 H                     0.138995
     38 H                     0.109227
     39 C                    -0.167902
     40 H                     0.092687
     41 H                     0.120955
     42 H                     0.100477
     43 C                    -0.179546
     44 H                     0.098422
     45 C                    -0.178349
     46 H                     0.093039
     47 H                     0.087610
     48 H                     0.090287
     49 C                    -0.168677
     50 H                     0.094674
     51 C                    -0.321567
     52 H                     0.094574
     53 H                     0.102635
     54 H                     0.098265
     55 H                     0.097543
     56 C                     0.271869
     57 C                    -0.116134
     58 N                    -0.470787
     59 C                    -0.071420
     60 C                     0.084034
     61 C                     0.036092
     62 C                     0.015083
     63 C                     0.054454
     64 C                     0.225919
     65 N                    -0.504104
     66 N                    -0.542076
     67 C                     0.216138
     68 C                     0.256371
     69 S                     0.624909
     70 N                    -0.549707
     71 C                    -0.221444
     72 S                     0.307427
     73 C                    -0.095840
     74 C                    -0.230264
     75 S                     0.267319
     76 C                     0.156715
     77 C                     0.040057
     78 C                    -0.313818
     79 C                    -0.057266
     80 N                    -0.429851
     81 S                     0.284051
     82 C                     0.127990
     83 C                    -0.312268
     84 C                    -0.229054
     85 H                     0.088683
     86 H                     0.104373
     87 H                     0.112762
     88 H                     0.116617
     89 H                     0.145002
     90 H                     0.126861
     91 H                     0.116385
     92 H                     0.132276
     93 H                     0.098983
     94 C                    -0.180920
     95 H                     0.114609
     96 H                     0.087725
     97 H                     0.105489
     98 C                    -0.178059
     99 H                     0.092256
    100 C                    -0.169207
    101 H                     0.095382
    102 H                     0.085598
    103 H                     0.087163
    104 C                    -0.176970
    105 H                     0.090623
    106 C                    -0.309311
    107 H                     0.094847
    108 H                     0.101473
    109 H                     0.104897
    110 H                     0.104010
  ----------------------------------------
  Sum of atomic charges =     0.000000

                    Cartesian Multipole Moments
 -----------------------------------------------------------------
    Charge (ESU x 10^10)
                 0.0000
    Dipole Moment (Debye)
         X      -0.0736      Y      -0.3567      Z       0.1033
       Tot       0.3786
    Quadrupole Moments (Debye-Ang)
        XX    -393.4741     XY       4.7858     YY    -399.6465
        XZ      -4.5843     YZ       3.8573     ZZ    -440.4590

 Total job time:  96.20s(wall), 1038.73s(cpu)
        *  Thank you very much for using Q-Chem.  Have a nice day.  *
