 Q-Chem 4.4, Q-Chem, Inc., Pleasanton, CA (2016)
 Q-Chem 4.4.2 for Intel X86 Linux

User input:
--------------------------------------------------------------
$comment
SP
$end

$rem
MEM_STATIC 5000
MEM_TOTAL 20000
JOBTYPE SP
EXCHANGE B3LYP
BASIS 6-31g(d,p)
$end

$molecule
0 1
C           1.881000     19.603000     10.990000
C           3.262000     19.890000     11.033000
N           1.274000     18.867000     10.017000
C           4.061000     19.367000      9.974000
C           2.009000     18.528000      8.971000
C           3.456000     18.636000      8.947000
C           4.249000     18.107000      7.830000
C           5.451000     17.358000      8.074000
C           3.897000     18.088000      6.446000
N           6.313000     16.885000      7.147000
N           2.753000     18.551000      5.970000
C           4.766000     17.536000      5.425000
C           6.051000     17.064000      5.799000
S           2.736000     18.317000      4.322000
N           4.190000     17.589000      4.180000
C           7.107000     16.580000      4.924000
S           8.389000     15.450000      5.392000
C           7.349000     16.994000      3.582000
C           9.360000     15.859000      3.980000
S           6.436000     17.826000      2.390000
C           8.615000     16.623000      3.112000
C          10.737000     15.368000      3.807000
C           7.801000     17.938000      1.359000
C           8.844000     17.174000      1.825000
N          11.237000     15.402000      2.615000
S          11.740000     14.868000      5.081000
C          12.489000     14.919000      2.555000
C          12.998000     14.692000      3.867000
C           0.876000     20.133000     12.021000
H           3.644000     20.434000     11.892000
H           5.141000     19.483000      9.939000
H           1.435000     18.002000      8.210000
H           5.661000     17.181000      9.128000
H           7.725000     18.398000      0.382000
H           9.732000     16.906000      1.265000
H          12.992000     14.975000      1.599000
H          14.041000     14.491000      4.073000
H           1.237000     21.141000     12.259000
C           0.958000     19.260000     13.317000
H          -0.181000     20.220000     11.742000
H           0.539000     19.807000     14.171000
H           1.999000     19.108000     13.630000
C           0.389000     17.885000     13.086000
H          -0.699000     17.972000     12.979000
C           0.751000     16.796000     14.160000
H           0.578000     17.379000     12.130000
H           1.835000     16.629000     14.206000
H           0.321000     15.852000     13.804000
C           0.335000     17.093000     15.673000
H           0.879000     17.957000     16.073000
C           0.542000     15.839000     16.597000
H          -0.678000     17.513000     15.683000
H           1.575000     15.708000     16.941000
H           0.223000     14.963000     16.019000
H          -0.140000     15.914000     17.454000
C          11.427000     11.518000      1.449000
C          10.377000     11.744000      0.525000
N          11.340000     11.901000      2.782000
C           9.201000     12.327000      0.957000
C          10.222000     12.398000      3.228000
C           9.093000     12.593000      2.372000
C           7.810000     12.947000      3.021000
C           6.889000     13.748000      2.305000
C           7.274000     12.284000      4.159000
N           5.629000     14.095000      2.743000
N           7.806000     11.252000      4.756000
C           6.036000     12.648000      4.635000
C           5.235000     13.575000      3.934000
S           6.713000     10.669000      5.770000
N           5.630000     11.805000      5.639000
C           3.943000     14.128000      4.487000
S           2.557000     14.603000      3.388000
C           3.673000     14.310000      5.762000
C           1.525000     15.028000      4.776000
S           4.542000     14.133000      7.210000
C           2.372000     14.927000      5.858000
C           0.189000     15.642000      4.630000
C           3.183000     14.999000      7.983000
C           2.062000     15.206000      7.225000
N          -0.502000     15.355000      3.554000
S          -0.634000     16.641000      5.825000
C          -1.663000     16.039000      3.487000
C          -1.789000     17.002000      4.520000
C          12.736000     10.896000      1.138000
H          10.531000     11.496000     -0.522000
H           8.435000     12.553000      0.221000
H          10.117000     12.579000      4.297000
H           7.166000     14.012000      1.285000
H           3.173000     15.252000      9.034000
H           1.167000     15.584000      7.705000
H          -2.275000     15.824000      2.621000
H          -2.598000     17.650000      4.830000
H          13.040000     11.155000      0.116000
C          12.669000      9.360000      1.154000
H          13.524000     11.152000      1.858000
H          11.911000      8.914000      0.498000
H          12.332000      9.090000      2.163000
C          14.051000      8.662000      0.977000
H          14.646000      9.175000      0.211000
C          13.822000      7.226000      0.468000
H          14.655000      8.683000      1.893000
H          13.445000      7.268000     -0.561000
H          13.146000      6.589000      1.051000
C          15.136000      6.506000      0.316000
H          15.753000      6.975000     -0.460000
C          14.937000      5.090000     -0.092000
H          15.739000      6.542000      1.232000
H          15.877000      4.523000     -0.093000
H          14.435000      4.958000     -1.059000
H          14.275000      4.594000      0.628000
$end

--------------------------------------------------------------

             Standard Nuclear Orientation (Angstroms)
    I     Atom           X                Y                Z
 ----------------------------------------------------------------
    1      C      -7.9976847792     1.6804915719    -1.5510579457
    2      C      -7.1719505922     2.3475564606    -2.4808786202
    3      N      -7.5688878506     0.7178256611    -0.6871820645
    4      C      -5.7964829803     1.9721654332    -2.5049913812
    5      C      -6.3293092961     0.2818926524    -0.8377457353
    6      C      -5.3393887036     0.9641603385    -1.6505292397
    7      C      -3.9341454282     0.5384182441    -1.6708763773
    8      C      -2.8737184050     1.5058264734    -1.6004715021
    9      C      -3.4280482024    -0.7943203844    -1.5848859939
   10      N      -1.5475211039     1.2619944583    -1.6890642039
   11      N      -4.1923439647    -1.8659849671    -1.4542413998
   12      C      -2.0103004831    -1.0965544280    -1.6157402856
   13      C      -1.0868893355    -0.0377861423    -1.8162560443
   14      S      -3.2086576114    -3.2061128290    -1.3684074209
   15      N      -1.7707278971    -2.4404648052    -1.4704135015
   16      C       0.3537835767    -0.1384032935    -1.9875883208
   17      S       1.5229090215     1.1383985127    -1.6102677116
   18      C       1.0618941160    -1.2307220705    -2.5675393133
   19      C       2.7879592345     0.3539636900    -2.5526985938
   20      S       0.6804267763    -2.8657698715    -2.9249723238
   21      C       2.3815772950    -0.9106745360    -2.9100343974
   22      C       4.0804829535     1.0043277458    -2.8238959958
   23      C       2.1539500919    -3.0697196160    -3.7769485793
   24      C       2.9886159687    -1.9927011299    -3.5978813998
   25      N       5.0629900331     0.2483929716    -3.1916764407
   26      S       4.3308497518     2.6822398121    -2.7920751822
   27      C       6.2022591082     0.9291113614    -3.3992371510
   28      C       5.9579719337     2.3328155017    -3.3557347039
   29      C      -9.5072760609     1.9276278905    -1.4329740677
   30      H      -7.6116214989     3.1429019904    -3.0757365714
   31      H      -5.0644706586     2.4594958855    -3.1435428600
   32      H      -6.0868393488    -0.5314050240    -0.1558159630
   33      H      -3.2134321396     2.5326239962    -1.4715280035
   34      H       2.4186944435    -4.0253044631    -4.2113136659
   35      H       4.0421259694    -1.9596561487    -3.8488648805
   36      H       7.0495222269     0.3678332860    -3.7696330605
   37      H       6.6775080804     3.0714433009    -3.6834277125
   38      H      -9.8371825379     2.0925721203    -2.4659233004
   39      C      -9.7525490230     3.2419948479    -0.6201089649
   40      H     -10.1456049452     1.1451608453    -1.0052585563
   41      H     -10.7588190398     3.6309067390    -0.8207434442
   42      H      -9.1144221604     4.0588467461    -0.9810813788
   43      C      -9.4073665671     3.0571257975     0.8339954008
   44      H     -10.1605177141     2.4033176473     1.2901316221
   45      C      -9.2362643010     4.3719538456     1.6780287049
   46      H      -8.5277215010     2.4586143120     1.1054757121
   47      H      -8.4167210920     4.9897252963     1.2884541121
   48      H      -8.9206284367     4.0597979230     2.6808769891
   49      C     -10.4826798220     5.3683314938     1.7421686404
   50      H     -10.7049344623     5.7916427482     0.7553340764
   51      C     -10.2656388201     6.5149789676     2.7944204042
   52      H     -11.3969131055     4.7789964549     1.8819209759
   53      H      -9.6594465921     7.3493182999     2.4216002582
   54      H      -9.7823252856     6.0578114801     3.6665596796
   55      H     -11.2458247769     6.8754938699     3.1327434676
   56      C       7.5895334298     0.1967932391    -0.0144090721
   57      C       7.2412519561    -1.1526483563     0.2406583611
   58      N       6.6345264885     1.1888209622    -0.2014645145
   59      C       5.9096942713    -1.5047722829     0.3522463185
   60      C       5.3755601171     0.8959072875    -0.0431791558
   61      C       4.9486267328    -0.4295027942     0.2830385643
   62      C       3.5279834060    -0.6043676635     0.6622493440
   63      C       2.8979752985    -1.8377271347     0.3717115680
   64      C       2.8345206152     0.2227725929     1.5879152416
   65      N       1.6107097755    -2.1764616053     0.7295654931
   66      N       3.3577690086     1.2107356703     2.2621533868
   67      C       1.5346281143    -0.0767090758     1.9230364377
   68      C       0.9244324191    -1.2642762979     1.4651321829
   69      S       2.3000050880     1.6375417181     3.3854102968
   70      N       1.0873489844     0.7417642490     2.9297855606
   71      C      -0.5410735753    -1.5666992282     1.6693735877
   72      S      -1.1461178970    -3.2845738226     1.8623768181
   73      C      -1.5033188012    -0.6720600099     1.7425432140
   74      C      -2.8199087736    -2.7292158035     2.1117652139
   75      S      -1.5884521361     1.0154645712     1.5745935087
   76      C      -2.7575678531    -1.3758232665     1.8612133226
   77      C      -3.9669859224    -3.6527736204     2.2320273182
   78      C      -3.3622451337     0.7969504362     1.5579810303
   79      C      -3.8418499401    -0.4448538569     1.8772854733
   80      N      -3.7458933234    -4.8399380551     2.7413255291
   81      S      -5.6488750446    -3.2772003670     1.8665841464
   82      C      -4.8432959625    -5.6244947141     2.7202471890
   83      C      -5.9272078676    -5.0275823449     2.0280300225
   84      C       8.9677763472     0.7253850202    -0.1490314686
   85      H       8.0281281176    -1.9001803434     0.2994021676
   86      H       5.6612999455    -2.5542082657     0.4807468129
   87      H       4.6419540841     1.7007805825    -0.0665921287
   88      H       3.5251583485    -2.6104579992    -0.0714062864
   89      H      -4.0514482866     1.6189643426     1.4238089328
   90      H      -4.9070554816    -0.5720051720     2.0305130732
   91      H      -4.7122149174    -6.6113897252     3.1440171700
   92      H      -6.9621917366    -5.3118865507     1.8921458457
   93      H       9.6174517419    -0.0344161474    -0.6013643850
   94      C       9.6086254486     1.0337193483     1.2141572093
   95      H       9.0216887198     1.6693492973    -0.7066199366
   96      H       9.6276545045     0.1990889169     1.9260883422
   97      H       8.9475605264     1.7684288714     1.6913836599
   98      C      11.0007838756     1.7275089082     1.1192469326
   99      H      11.6033469982     1.2739085587     0.3223062784
  100      C      11.7647769563     1.4930833868     2.4364322830
  101      H      10.9250729478     2.7938037466     0.8710611693
  102      H      12.0338463771     0.4323891665     2.5089816995
  103      H      11.2598292998     1.7791693520     3.3669249937
  104      C      13.1052094699     2.1784443239     2.3961698625
  105      H      13.7487350402     1.7369008905     1.6256244474
  106      C      13.8268803877     2.0394589469     3.6888396391
  107      H      13.0219829557     3.2410296614     2.1355038924
  108      H      14.7512003324     2.6311788015     3.7131347722
  109      H      14.0528101151     1.0052869281     3.9785998742
  110      H      13.1939277443     2.4172658897     4.5008081515
 ----------------------------------------------------------------

   10   -5663.4728898864      4.52E-06 Convergence criterion met
 Total energy in the final basis set = -5663.4728898864

                    Orbital Energies (a.u.)
 --------------------------------------------------------------

 Alpha MOs
 -- Occupied --
-88.988 -88.977 -88.931 -88.924 -88.923 -88.910 -88.907 -88.903
-14.378 -14.377 -14.367 -14.364 -14.348 -14.342 -14.335 -14.334
-14.326 -14.325 -10.268 -10.262 -10.258 -10.257 -10.253 -10.247
-10.246 -10.246 -10.239 -10.239 -10.233 -10.233 -10.232 -10.232
-10.232 -10.231 -10.231 -10.231 -10.230 -10.230 -10.227 -10.224
-10.220 -10.220 -10.219 -10.218 -10.216 -10.216 -10.215 -10.214
-10.214 -10.213 -10.207 -10.205 -10.202 -10.200 -10.195 -10.188
-10.186 -10.184 -10.182 -10.181 -10.180 -10.179 -10.178 -10.176
-10.174 -10.172 -10.171 -10.168  -8.045  -8.032  -7.992  -7.984
 -7.982  -7.970  -7.965  -7.964  -6.010  -6.004  -6.003  -5.997
 -5.991  -5.989  -5.956  -5.953  -5.950  -5.948  -5.946  -5.945
 -5.943  -5.941  -5.939  -5.934  -5.931  -5.930  -5.929  -5.926
 -5.926  -5.925  -5.921  -5.921  -1.053  -1.017  -0.981  -0.969
 -0.944  -0.939  -0.936  -0.936  -0.911  -0.909  -0.903  -0.889
 -0.849  -0.835  -0.827  -0.823  -0.813  -0.810  -0.809  -0.801
 -0.799  -0.797  -0.796  -0.790  -0.788  -0.773  -0.769  -0.758
 -0.745  -0.744  -0.742  -0.735  -0.723  -0.712  -0.710  -0.705
 -0.690  -0.688  -0.670  -0.665  -0.654  -0.645  -0.642  -0.637
 -0.626  -0.625  -0.622  -0.620  -0.608  -0.608  -0.601  -0.599
 -0.591  -0.587  -0.586  -0.580  -0.576  -0.574  -0.567  -0.560
 -0.543  -0.541  -0.537  -0.533  -0.524  -0.516  -0.516  -0.508
 -0.507  -0.503  -0.501  -0.495  -0.483  -0.480  -0.478  -0.474
 -0.472  -0.470  -0.468  -0.465  -0.458  -0.447  -0.446  -0.442
 -0.442  -0.440  -0.438  -0.435  -0.433  -0.432  -0.428  -0.427
 -0.426  -0.421  -0.419  -0.419  -0.417  -0.417  -0.412  -0.411
 -0.410  -0.405  -0.403  -0.402  -0.400  -0.397  -0.396  -0.395
 -0.391  -0.391  -0.389  -0.387  -0.386  -0.384  -0.381  -0.378
 -0.376  -0.375  -0.373  -0.373  -0.365  -0.364  -0.360  -0.356
 -0.353  -0.351  -0.347  -0.343  -0.341  -0.340  -0.338  -0.336
 -0.333  -0.332  -0.325  -0.323  -0.323  -0.321  -0.318  -0.318
 -0.316  -0.313  -0.305  -0.303  -0.296  -0.294  -0.293  -0.292
 -0.291  -0.290  -0.287  -0.286  -0.285  -0.281  -0.278  -0.276
 -0.275  -0.272  -0.265  -0.261  -0.250  -0.250  -0.246  -0.241
 -0.240  -0.234  -0.224  -0.222  -0.190  -0.184

          Ground-State Mulliken Net Atomic Charges

     Atom                 Charge (a.u.)
  ----------------------------------------
      1 C                     0.260573
      2 C                    -0.113004
      3 N                    -0.464680
      4 C                    -0.085624
      5 C                     0.089433
      6 C                     0.020935
      7 C                     0.059445
      8 C                     0.048058
      9 C                     0.227481
     10 N                    -0.500134
     11 N                    -0.588815
     12 C                     0.249378
     13 C                     0.270426
     14 S                     0.615135
     15 N                    -0.566666
     16 C                    -0.231651
     17 S                     0.291791
     18 C                    -0.120188
     19 C                    -0.231765
     20 S                     0.319159
     21 C                     0.165306
     22 C                     0.063960
     23 C                    -0.323992
     24 C                    -0.062562
     25 N                    -0.412904
     26 S                     0.280448
     27 C                     0.130166
     28 C                    -0.301074
     29 C                    -0.219607
     30 H                     0.097026
     31 H                     0.104296
     32 H                     0.116663
     33 H                     0.100720
     34 H                     0.130535
     35 H                     0.116868
     36 H                     0.115564
     37 H                     0.127993
     38 H                     0.092078
     39 C                    -0.182242
     40 H                     0.118103
     41 H                     0.094634
     42 H                     0.089735
     43 C                    -0.175411
     44 H                     0.087617
     45 C                    -0.183129
     46 H                     0.111832
     47 H                     0.089207
     48 H                     0.086880
     49 C                    -0.183332
     50 H                     0.090881
     51 C                    -0.321779
     52 H                     0.091796
     53 H                     0.107675
     54 H                     0.105855
     55 H                     0.102829
     56 C                     0.264393
     57 C                    -0.120587
     58 N                    -0.483687
     59 C                    -0.057146
     60 C                     0.111834
     61 C                     0.021030
     62 C                     0.028950
     63 C                     0.054151
     64 C                     0.241805
     65 N                    -0.491110
     66 N                    -0.556940
     67 C                     0.183610
     68 C                     0.254467
     69 S                     0.612710
     70 N                    -0.521912
     71 C                    -0.220081
     72 S                     0.299205
     73 C                    -0.044815
     74 C                    -0.191253
     75 S                     0.289439
     76 C                     0.071200
     77 C                     0.043414
     78 C                    -0.301343
     79 C                    -0.081862
     80 N                    -0.405082
     81 S                     0.273285
     82 C                     0.118691
     83 C                    -0.320209
     84 C                    -0.223601
     85 H                     0.091121
     86 H                     0.106098
     87 H                     0.115284
     88 H                     0.110142
     89 H                     0.119212
     90 H                     0.119525
     91 H                     0.118983
     92 H                     0.131323
     93 H                     0.091671
     94 C                    -0.188061
     95 H                     0.119085
     96 H                     0.094139
     97 H                     0.110866
     98 C                    -0.176983
     99 H                     0.090273
    100 C                    -0.169669
    101 H                     0.097141
    102 H                     0.093810
    103 H                     0.093487
    104 C                    -0.171252
    105 H                     0.089895
    106 C                    -0.316819
    107 H                     0.089320
    108 H                     0.095854
    109 H                     0.098473
    110 H                     0.096602
  ----------------------------------------
  Sum of atomic charges =     0.000000

                    Cartesian Multipole Moments
 -----------------------------------------------------------------
    Charge (ESU x 10^10)
                 0.0000
    Dipole Moment (Debye)
         X       2.1106      Y       0.9068      Z      -1.5519
       Tot       2.7722
    Quadrupole Moments (Debye-Ang)
        XX    -393.7185     XY      -5.4467     YY    -427.5734
        XZ      -3.5838     YZ      -0.1737     ZZ    -444.0052

 Total job time:  128.77s(wall), 1352.02s(cpu)
        *  Thank you very much for using Q-Chem.  Have a nice day.  *
