 Q-Chem 4.4, Q-Chem, Inc., Pleasanton, CA (2016)
 Q-Chem 4.4.2 for Intel X86 Linux

User input:
--------------------------------------------------------------
$comment
OPTIMIZATION
$end

$rem
JOBTYPE OPT
EXCHANGE omegaB97X-D
BASIS cc-pVTZ
$end

$molecule
0 1
C          0.00000        0.00000        0.00000
C          1.38508        0.00000        0.00000
N         -0.72771       -1.11322        0.00000
C          2.04720       -1.21160       -0.00386
C         -0.08136       -2.27149       -0.00595
C          1.30925       -2.38901       -0.00649
C          1.96927       -3.70493        0.02329
C          2.31876       -4.36415       -1.12295
C          2.28915       -4.39285        1.23012
N          2.91342       -5.57996       -1.19832
N          2.05776       -3.99350        2.48211
C          2.91288       -5.67615        1.16487
C          3.21818       -6.24859       -0.11257
S          2.60322       -5.16188        3.44654
N          3.14385       -6.21709        2.35774
C          3.84986       -7.53397       -0.29822
S          4.32952       -8.61680        0.96399
C          4.16190       -8.09044       -1.51731
C          4.93446       -9.78817       -0.14223
S          3.96098       -7.56468       -3.15391
C          4.77562       -9.36671       -1.44594
C          5.51287      -11.03770        0.30531
C          4.69676       -9.04995       -3.71801
C          5.07654       -9.89936       -2.74705
N          5.96516      -11.94729       -0.50924
S          5.66514      -11.46120        1.98849
C          6.44735      -13.02341        0.17459
C          6.37425      -12.95219        1.52608
H         -0.55134        0.93273        0.00000
H          1.92494        0.93597       -0.01293
H          3.12873       -1.25416       -0.02668
H         -0.69553       -3.16348       -0.00579
H          2.12755       -3.90431       -2.08425
H          4.79914       -9.20630       -4.78069
H          5.53998      -10.85933       -2.89888
H          6.85449      -13.86210       -0.36926
H          6.68980      -13.67735        2.25548
$end

$opt
CONSTRAINT
tors 4 6 7 8 -90.00000
tors 10 13 16 17 -179.11427
tors 17 19 22 25 179.21698
ENDCONSTRAINT
$end
--------------------------------------------------------------

   16   -2595.9033951613      4.83E-09 Convergence criterion met
 Total energy in the final basis set = -2595.9033951613
   12   -2595.9037846925      5.02E-09 Convergence criterion met
 Total energy in the final basis set = -2595.9037846925
   11   -2595.9038348973      5.03E-09 Convergence criterion met
 Total energy in the final basis set = -2595.9038348973
    9   -2595.9038452385      8.74E-09 Convergence criterion met
 Total energy in the final basis set = -2595.9038452385
    9   -2595.9038484419      7.35E-09 Convergence criterion met
 Total energy in the final basis set = -2595.9038484419
    9   -2595.9038499808      7.10E-09 Convergence criterion met
 Total energy in the final basis set = -2595.9038499808

             Standard Nuclear Orientation (Angstroms)
    I     Atom           X                Y                Z
 ----------------------------------------------------------------
    1      C      -7.6058788237    -0.3876280005     0.1283484145
    2      C      -7.0033061888    -0.3760113698    -1.1190732769
    3      N      -6.9256651064    -0.3546911214     1.2696990581
    4      C      -5.6226103451    -0.3273208161    -1.1856839583
    5      C      -5.6018711748    -0.3070693387     1.1915787248
    6      C      -4.8926870634    -0.2939056404    -0.0057103284
    7      C      -3.4129563967    -0.2478401327    -0.0078075531
    8      C      -2.6379194876    -1.3709452742     0.0015207295
    9      C      -2.6993881587     0.9813727965    -0.0206983038
   10      N      -1.2792180026    -1.4016323214     0.0013236559
   11      N      -3.2103924620     2.2133419412    -0.0346110171
   12      C      -1.2727596184     0.9664599989    -0.0212914768
   13      C      -0.5833991132    -0.2916216470    -0.0095158040
   14      S      -1.9549170851     3.2242232976    -0.0451899483
   15      N      -0.7286678790     2.1801755458    -0.0346134963
   16      C       0.8562407156    -0.4192525656    -0.0075253762
   17      S       1.9725191132     0.9018242920     0.0015824220
   18      C       1.5525440328    -1.6053948079    -0.0030306472
   19      C       3.3450445961    -0.1346702339     0.0063769404
   20      S       1.0784432628    -3.2690483638    -0.0028899977
   21      C       2.9640235477    -1.4605571287     0.0040051301
   22      C       4.6981044544     0.3813692536     0.0131165182
   23      C       2.7631582665    -3.7472237077     0.0041674800
   24      C       3.6402941398    -2.7277309350     0.0076482845
   25      N       5.7540628564    -0.3805248133     0.0317239173
   26      S       5.0604041747     2.0839559674    -0.0026274136
   27      C       6.8968123326     0.3621851483     0.0338374029
   28      C       6.7322592086     1.7075121121     0.0173140702
   29      H      -8.6855012342    -0.4267485116     0.2165327552
   30      H      -7.6035665081    -0.4038120748    -2.0171870382
   31      H      -5.1115711353    -0.3156808518    -2.1392709312
   32      H      -5.0639252586    -0.2812898220     2.1329618120
   33      H      -3.1134569635    -2.3439870995     0.0118412338
   34      H       3.0006161027    -4.7992202424     0.0067595773
   35      H       4.7122541007    -2.8316352710     0.0138873716
   36      H       7.8513025046    -0.1411495317     0.0476789885
   37      H       7.4838100968     2.4770633903     0.0156205653
 ----------------------------------------------------------------

    9   -2595.9038503304      4.18E-09 Convergence criterion met
 Total energy in the final basis set = -2595.9038503304
 Final energy is   -2595.90385033045
 **  OPTIMIZATION CONVERGED  **

                    Orbital Energies (a.u.)
 --------------------------------------------------------------

 Alpha MOs
 -- Occupied --
-89.155 -89.094 -89.093 -89.075 -14.495 -14.488 -14.452 -14.445
-14.437 -10.375 -10.370 -10.361 -10.360 -10.345 -10.341 -10.340
-10.334 -10.329 -10.328 -10.327 -10.326 -10.324 -10.322 -10.317
-10.315 -10.314 -10.303 -10.296  -8.165  -8.109  -8.108  -8.089
 -6.115  -6.110  -6.109  -6.058  -6.057  -6.054  -6.054  -6.052
 -6.051  -6.039  -6.035  -6.031  -1.152  -1.084  -1.072  -1.055
 -1.024  -1.015  -0.957  -0.945  -0.912  -0.909  -0.908  -0.885
 -0.861  -0.844  -0.829  -0.807  -0.775  -0.749  -0.741  -0.735
 -0.723  -0.695  -0.689  -0.678  -0.648  -0.641  -0.623  -0.621
 -0.608  -0.595  -0.589  -0.575  -0.572  -0.569  -0.539  -0.536
 -0.526  -0.523  -0.518  -0.514  -0.511  -0.499  -0.497  -0.491
 -0.489  -0.481  -0.476  -0.462  -0.458  -0.445  -0.437  -0.432
 -0.431  -0.424  -0.403  -0.396  -0.376  -0.375  -0.371  -0.370
 -0.363  -0.350  -0.344  -0.338  -0.334  -0.322  -0.269

          Ground-State Mulliken Net Atomic Charges

     Atom                 Charge (a.u.)
  ----------------------------------------
      1 C                    -0.069003
      2 C                    -0.099074
      3 N                    -0.152290
      4 C                    -0.111731
      5 C                    -0.079202
      6 C                     0.058786
      7 C                    -0.053481
      8 C                    -0.051612
      9 C                     0.045541
     10 N                    -0.180656
     11 N                    -0.263329
     12 C                     0.026817
     13 C                     0.117382
     14 S                     0.409123
     15 N                    -0.283989
     16 C                    -0.059716
     17 S                     0.130401
     18 C                    -0.006947
     19 C                    -0.021933
     20 S                     0.092847
     21 C                     0.020930
     22 C                     0.037515
     23 C                    -0.162887
     24 C                    -0.160626
     25 N                    -0.183128
     26 S                     0.100389
     27 C                    -0.074940
     28 C                    -0.203448
     29 H                     0.123871
     30 H                     0.129512
     31 H                     0.123501
     32 H                     0.127166
     33 H                     0.125572
     34 H                     0.131572
     35 H                     0.142202
     36 H                     0.129190
     37 H                     0.145676
  ----------------------------------------
  Sum of atomic charges =     0.000000

                    Cartesian Multipole Moments
 -----------------------------------------------------------------
    Charge (ESU x 10^10)
                 0.0000
    Dipole Moment (Debye)
         X       1.7261      Y       1.1497      Z      -1.9160
       Tot       2.8235
    Quadrupole Moments (Debye-Ang)
        XX    -167.6268     XY       6.1728     YY    -174.1783
        XZ      15.0648     YZ       0.7643     ZZ    -187.0980

 Total job time:  5935.70s(wall), 89852.78s(cpu)
        *  Thank you very much for using Q-Chem.  Have a nice day.  *
