 Q-Chem 4.4, Q-Chem, Inc., Pleasanton, CA (2016)
 Q-Chem 4.4.2 for Intel X86 Linux

User input:
--------------------------------------------------------------
$comment
OPTIMIZATION
$end

$rem
JOBTYPE OPT
EXCHANGE omegaB97X-D
BASIS cc-pVTZ
$end

$molecule
0 1
C          0.00000        0.00000        0.00000
C          1.38508        0.00000        0.00000
N         -0.72771       -1.11322        0.00000
C          2.04720       -1.21160       -0.00386
C         -0.08136       -2.27149       -0.00595
C          1.30925       -2.38901       -0.00649
C          1.96927       -3.70493        0.02329
C          3.20465       -3.90636       -0.52794
C          1.38262       -4.86145        0.61515
N          3.88452       -5.07853       -0.56367
N          0.19339       -4.95733        1.21268
C          2.08686       -6.10365        0.58151
C          3.37775       -6.16685       -0.03683
S          0.03335       -6.49089        1.67674
N          1.42555       -7.10619        1.15291
C          4.17986       -7.36454       -0.12529
S          3.73255       -8.92742        0.46893
C          5.42642       -7.43778       -0.70315
C          5.20208       -9.65202       -0.05759
S          6.45050       -6.27812       -1.47885
C          6.01801       -8.72610       -0.67357
C          5.47720      -11.05927        0.14281
C          7.64985       -7.52428       -1.75136
C          7.31582       -8.74330       -1.29208
N          6.57363      -11.63640       -0.25741
S          4.36580      -12.13656        0.94270
C          6.57141      -12.96397        0.05202
C          5.47213      -13.42339        0.69813
H         -0.55134        0.93273        0.00000
H          1.92494        0.93597       -0.01293
H          3.12873       -1.25416       -0.02668
H         -0.69553       -3.16348       -0.00579
H          3.72932       -3.07600       -0.98329
H          8.56302       -7.26149       -2.26250
H          7.92000       -9.63103       -1.37121
H          7.41700      -13.57661       -0.22105
H          5.25834      -14.42296        1.03370
$end

$opt
CONSTRAINT
tors 4 6 7 8 -30.00000
tors 10 13 16 17 -179.11427
tors 17 19 22 25 179.21698
ENDCONSTRAINT
$end
--------------------------------------------------------------

   16   -2595.9053271093      5.28E-09 Convergence criterion met
 Total energy in the final basis set = -2595.9053271093
   12   -2595.9061014147      8.83E-09 Convergence criterion met
 Total energy in the final basis set = -2595.9061014147
   11   -2595.9063568542      7.72E-09 Convergence criterion met
 Total energy in the final basis set = -2595.9063568542
   11   -2595.9064248039      5.70E-09 Convergence criterion met
 Total energy in the final basis set = -2595.9064248039
    9   -2595.9064381579      9.42E-09 Convergence criterion met
 Total energy in the final basis set = -2595.9064381579
   10   -2595.9064412660      4.52E-09 Convergence criterion met
 Total energy in the final basis set = -2595.9064412660

             Standard Nuclear Orientation (Angstroms)
    I     Atom           X                Y                Z
 ----------------------------------------------------------------
    1      C       7.6188671505     0.4054293522     0.0795838818
    2      C       6.9240261337     1.4261061315    -0.5482171013
    3      N       7.0228110631    -0.6378861902     0.6465440903
    4      C       5.5448851426     1.3579657586    -0.5888543907
    5      C       5.6980292376    -0.6926050787     0.6036717079
    6      C       4.8936775939     0.2761480359    -0.0014351007
    7      C       3.4225224753     0.1969840094     0.0306856730
    8      C       2.6393876291     1.3205644466     0.0732063340
    9      C       2.6934754440    -1.0289580858    -0.0214922626
   10      N       1.2852656137     1.3626537770     0.0702944110
   11      N       3.1806683834    -2.2691161013    -0.0946167043
   12      C       1.2647974816    -0.9989698112    -0.0233471982
   13      C       0.5804073302     0.2588198015     0.0241178651
   14      S       1.9143909688    -3.2626288613    -0.1485731251
   15      N       0.7051529355    -2.2035151558    -0.0901391861
   16      C      -0.8570905224     0.3968331988     0.0216787720
   17      S      -1.9842333768    -0.9147279136    -0.0128770359
   18      C      -1.5442752145     1.5883303362     0.0543999846
   19      C      -3.3483868041     0.1325200903     0.0119625012
   20      S      -1.0573740952     3.2475453713     0.1024206337
   21      C      -2.9566804724     1.4548716237     0.0483843980
   22      C      -4.7054529061    -0.3723561008    -0.0042028005
   23      C      -2.7381315181     3.7390130525     0.1121586798
   24      C      -3.6231234106     2.7268236046     0.0823291393
   25      N      -5.7554654855     0.3973818182     0.0288338300
   26      S      -5.0811925725    -2.0707637906    -0.0692376269
   27      C      -6.9039938585    -0.3357492831     0.0022725899
   28      C      -6.7500093529    -1.6814546281    -0.0507523663
   29      H       8.7015694762     0.4241279256     0.1277910255
   30      H       7.4526357529     2.2515145792    -1.0030659599
   31      H       4.9790741744     2.1266232903    -1.0980429785
   32      H       5.2441798875    -1.5528209142     1.0765470161
   33      H       3.1102732384     2.2933458322     0.1375261758
   34      H      -2.9672200728     4.7924139312     0.1426069608
   35      H      -4.6943106860     2.8387107255     0.0845249043
   36      H      -7.8546563785     0.1745604654     0.0226834870
   37      H      -7.5076427059    -2.4443801850    -0.0824991832
 ----------------------------------------------------------------

    8   -2595.9064417746      9.23E-09 Convergence criterion met
 Total energy in the final basis set = -2595.9064417746
 Final energy is   -2595.90644177464
 **  OPTIMIZATION CONVERGED  **

                    Orbital Energies (a.u.)
 --------------------------------------------------------------

 Alpha MOs
 -- Occupied --
-89.156 -89.094 -89.093 -89.075 -14.495 -14.489 -14.452 -14.445
-14.435 -10.375 -10.370 -10.364 -10.361 -10.346 -10.341 -10.340
-10.334 -10.329 -10.328 -10.328 -10.326 -10.325 -10.322 -10.319
-10.315 -10.314 -10.302 -10.296  -8.166  -8.109  -8.108  -8.090
 -6.116  -6.111  -6.110  -6.058  -6.057  -6.054  -6.054  -6.052
 -6.052  -6.039  -6.035  -6.032  -1.153  -1.084  -1.073  -1.054
 -1.024  -1.016  -0.957  -0.946  -0.913  -0.911  -0.907  -0.884
 -0.862  -0.845  -0.830  -0.808  -0.776  -0.754  -0.745  -0.727
 -0.724  -0.695  -0.689  -0.679  -0.649  -0.641  -0.624  -0.621
 -0.609  -0.596  -0.583  -0.578  -0.570  -0.566  -0.541  -0.537
 -0.527  -0.523  -0.518  -0.515  -0.512  -0.504  -0.496  -0.491
 -0.489  -0.481  -0.478  -0.464  -0.458  -0.450  -0.438  -0.433
 -0.430  -0.422  -0.402  -0.398  -0.384  -0.373  -0.371  -0.370
 -0.364  -0.358  -0.342  -0.337  -0.327  -0.318  -0.267

          Ground-State Mulliken Net Atomic Charges

     Atom                 Charge (a.u.)
  ----------------------------------------
      1 C                    -0.074869
      2 C                    -0.102698
      3 N                    -0.155915
      4 C                    -0.153297
      5 C                    -0.094533
      6 C                     0.108152
      7 C                     0.032907
      8 C                    -0.096978
      9 C                     0.031616
     10 N                    -0.184237
     11 N                    -0.285360
     12 C                     0.030561
     13 C                     0.117966
     14 S                     0.412993
     15 N                    -0.284192
     16 C                    -0.057425
     17 S                     0.130930
     18 C                    -0.008514
     19 C                    -0.021692
     20 S                     0.091315
     21 C                     0.021447
     22 C                     0.037374
     23 C                    -0.162541
     24 C                    -0.160194
     25 N                    -0.183278
     26 S                     0.100797
     27 C                    -0.074875
     28 C                    -0.203281
     29 H                     0.123869
     30 H                     0.128875
     31 H                     0.127023
     32 H                     0.129988
     33 H                     0.129647
     34 H                     0.131419
     35 H                     0.142152
     36 H                     0.129178
     37 H                     0.145669
  ----------------------------------------
  Sum of atomic charges =     0.000000

                    Cartesian Multipole Moments
 -----------------------------------------------------------------
    Charge (ESU x 10^10)
                 0.0000
    Dipole Moment (Debye)
         X      -1.9828      Y       0.2890      Z      -1.0023
       Tot       2.2404
    Quadrupole Moments (Debye-Ang)
        XX    -170.1841     XY      18.1769     YY    -170.3586
        XZ      -7.0288     YZ      -1.1536     ZZ    -189.2786

 Total job time:  6111.40s(wall), 92535.07s(cpu)
        *  Thank you very much for using Q-Chem.  Have a nice day.  *
