 Q-Chem 4.4, Q-Chem, Inc., Pleasanton, CA (2016)
 Q-Chem 4.4.2 for Intel X86 Linux

User input:
--------------------------------------------------------------
$comment
OPTIMIZATION
$end

$rem
JOBTYPE OPT
EXCHANGE omegaB97X-D
BASIS cc-pVTZ
$end

$molecule
0 1
C          0.00000        0.00000        0.00000
C          1.38508        0.00000        0.00000
N         -0.72771       -1.11322        0.00000
C          2.04720       -1.21160       -0.00386
C         -0.08136       -2.27149       -0.00595
C          1.30925       -2.38901       -0.00649
C          1.96927       -3.70493        0.02329
C          1.40728       -4.80851       -0.55711
C          3.22658       -3.93571        0.65409
N          1.92790       -6.06003       -0.56940
N          3.98931       -3.05147        1.29974
C          3.78486       -5.25042        0.65130
C          3.07835       -6.31607        0.00480
S          5.28119       -3.85539        1.82657
N          4.95106       -5.33494        1.28513
C          3.54805       -7.68003       -0.06352
S          5.01660       -8.27977        0.62892
C          2.88808       -8.71067       -0.69235
C          4.73275       -9.88441        0.07542
S          1.39727       -8.81458       -1.56524
C          3.54543       -9.96508       -0.62190
C          5.65686      -10.96445        0.35058
C          1.67140      -10.52448       -1.82355
C          2.81057      -11.00297       -1.29267
N          5.46057      -12.18983       -0.04355
S          7.13602      -10.74032        1.24358
C          6.47915      -13.00338        0.35496
C          7.47435      -12.41099        1.05894
H         -0.55134        0.93273        0.00000
H          1.92494        0.93597       -0.01293
H          3.12873       -1.25416       -0.02668
H         -0.69553       -3.16348       -0.00579
H          0.46006       -4.71778       -1.07349
H          0.93417      -11.09030       -2.37177
H          3.14611      -12.02481       -1.34388
H          6.45353      -14.05252        0.10281
H          8.36420      -12.85533        1.46904
$end

$opt
CONSTRAINT
tors 4 6 7 8 -150.00000
tors 10 13 16 17 -179.11427
tors 17 19 22 25 179.21698
ENDCONSTRAINT
$end
--------------------------------------------------------------

   16   -2595.9064227004      5.08E-09 Convergence criterion met
 Total energy in the final basis set = -2595.9064227004
   12   -2595.9068699140      6.16E-09 Convergence criterion met
 Total energy in the final basis set = -2595.9068699140
   11   -2595.9069990399      5.45E-09 Convergence criterion met
 Total energy in the final basis set = -2595.9069990399
   10   -2595.9070333316      9.42E-09 Convergence criterion met
 Total energy in the final basis set = -2595.9070333316
   10   -2595.9070393713      4.84E-09 Convergence criterion met
 Total energy in the final basis set = -2595.9070393713
    9   -2595.9070404321      4.43E-09 Convergence criterion met
 Total energy in the final basis set = -2595.9070404321

             Standard Nuclear Orientation (Angstroms)
    I     Atom           X                Y                Z
 ----------------------------------------------------------------
    1      C       7.6031931151    -0.5513217890    -0.1232968077
    2      C       7.0837929660     0.5655878663     0.5093381612
    3      N       6.8431891566    -1.4846722305    -0.6874059163
    4      C       5.7116600104     0.7135713164     0.5824127496
    5      C       5.5289421448    -1.3294852140    -0.6174374898
    6      C       4.8920881614    -0.2647935901     0.0250069815
    7      C       3.4215644131    -0.1911008982     0.0668571614
    8      C       2.6396941626    -1.3165394162     0.0950129511
    9      C       2.6910101535     1.0348438443     0.0368598572
   10      N       1.2853540654    -1.3594814989     0.0869189801
   11      N       3.1762466363     2.2774065254    -0.0067929167
   12      C       1.2621961180     1.0031946001     0.0314824106
   13      C       0.5790762221    -0.2562855102     0.0555706891
   14      S       1.9078900896     3.2705020857    -0.0438964249
   15      N       0.7010086118     2.2077902466    -0.0114588381
   16      C      -0.8580251872    -0.3958098701     0.0444165915
   17      S      -1.9865600345     0.9137220995    -0.0175255907
   18      C      -1.5438051066    -1.5883001774     0.0732089346
   19      C      -3.3493740604    -0.1354408269    -0.0009272568
   20      S      -1.0550011223    -3.2463445200     0.1328339608
   21      C      -2.9562815509    -1.4569217943     0.0487677471
   22      C      -4.7067681819     0.3672814113    -0.0389215525
   23      C      -2.7350295907    -3.7401441491     0.1279961417
   24      C      -3.6212588066    -2.7295942748     0.0822244990
   25      N      -5.7555892937    -0.4047348453    -0.0422788065
   26      S      -5.0846454697     2.0658910285    -0.0853910819
   27      C      -6.9048128560     0.3266148494    -0.0829345814
   28      C      -6.7526047012     1.6732812281    -0.1115092842
   29      H       8.6745448611    -0.7007340503    -0.1909928620
   30      H       7.7442663966     1.3052323902     0.9388051858
   31      H       5.2795549259     1.5753804428     1.0676880481
   32      H       4.9394567865    -2.0860643064    -1.1230499934
   33      H       3.1112080274    -2.2893933550     0.1480910069
   34      H      -2.9627016784    -4.7937984362     0.1602831656
   35      H      -4.6922201417    -2.8430626809     0.0703356857
   36      H      -7.8545832122    -0.1856857887    -0.0908418443
   37      H      -7.5110067823     2.4351764323    -0.1493035010
 ----------------------------------------------------------------

    8   -2595.9070406411      5.49E-09 Convergence criterion met
 Total energy in the final basis set = -2595.9070406411
 Final energy is   -2595.90704064109
 **  OPTIMIZATION CONVERGED  **

                    Orbital Energies (a.u.)
 --------------------------------------------------------------

 Alpha MOs
 -- Occupied --
-89.157 -89.094 -89.093 -89.075 -14.497 -14.490 -14.452 -14.445
-14.436 -10.375 -10.370 -10.365 -10.362 -10.346 -10.341 -10.340
-10.334 -10.329 -10.328 -10.328 -10.328 -10.325 -10.322 -10.319
-10.314 -10.311 -10.301 -10.296  -8.168  -8.109  -8.109  -8.089
 -6.118  -6.112  -6.111  -6.058  -6.058  -6.055  -6.054  -6.052
 -6.052  -6.039  -6.035  -6.031  -1.155  -1.084  -1.073  -1.055
 -1.025  -1.017  -0.957  -0.945  -0.913  -0.910  -0.907  -0.887
 -0.860  -0.844  -0.830  -0.808  -0.776  -0.754  -0.745  -0.727
 -0.723  -0.696  -0.690  -0.679  -0.649  -0.640  -0.623  -0.622
 -0.610  -0.596  -0.584  -0.578  -0.570  -0.566  -0.542  -0.537
 -0.527  -0.523  -0.518  -0.515  -0.511  -0.504  -0.496  -0.491
 -0.489  -0.484  -0.476  -0.460  -0.458  -0.450  -0.439  -0.433
 -0.431  -0.425  -0.404  -0.398  -0.383  -0.373  -0.371  -0.370
 -0.361  -0.360  -0.345  -0.337  -0.327  -0.318  -0.267

          Ground-State Mulliken Net Atomic Charges

     Atom                 Charge (a.u.)
  ----------------------------------------
      1 C                    -0.074282
      2 C                    -0.102494
      3 N                    -0.153485
      4 C                    -0.129278
      5 C                    -0.121770
      6 C                     0.109739
      7 C                     0.036698
      8 C                    -0.098433
      9 C                     0.035732
     10 N                    -0.183192
     11 N                    -0.293611
     12 C                     0.030645
     13 C                     0.118566
     14 S                     0.409653
     15 N                    -0.282975
     16 C                    -0.058050
     17 S                     0.129791
     18 C                    -0.008225
     19 C                    -0.021513
     20 S                     0.094040
     21 C                     0.021511
     22 C                     0.037547
     23 C                    -0.162326
     24 C                    -0.160418
     25 N                    -0.183065
     26 S                     0.100214
     27 C                    -0.074790
     28 C                    -0.203201
     29 H                     0.123740
     30 H                     0.129060
     31 H                     0.119737
     32 H                     0.132400
     33 H                     0.133310
     34 H                     0.131674
     35 H                     0.142212
     36 H                     0.129242
     37 H                     0.145601
  ----------------------------------------
  Sum of atomic charges =     0.000000

                    Cartesian Multipole Moments
 -----------------------------------------------------------------
    Charge (ESU x 10^10)
                 0.0000
    Dipole Moment (Debye)
         X      -1.7903      Y       2.8258      Z       0.9100
       Tot       3.4667
    Quadrupole Moments (Debye-Ang)
        XX    -166.1902     XY       7.1938     YY    -173.6296
        XZ       8.1001     YZ       0.0321     ZZ    -189.4187

 Total job time:  6000.07s(wall), 90846.03s(cpu)
        *  Thank you very much for using Q-Chem.  Have a nice day.  *
