 Q-Chem 4.4, Q-Chem, Inc., Pleasanton, CA (2016)
 Q-Chem 4.4.2 for Intel X86 Linux

User input:
--------------------------------------------------------------
$comment
OPTIMIZATION
$end

$rem
JOBTYPE OPT
EXCHANGE omegaB97X-D
BASIS cc-pVTZ
$end

$molecule
0 1
C          0.00000        0.00000        0.00000
C          1.38508        0.00000        0.00000
N         -0.72771       -1.11322        0.00000
C          2.04720       -1.21160       -0.00386
C         -0.08136       -2.27149       -0.00595
C          1.30925       -2.38901       -0.00649
C          1.96927       -3.70493        0.02329
C          2.26758       -4.33727        1.19876
C          2.35095       -4.41577       -1.15188
N          2.88458       -5.53723        1.32880
N          2.19211       -4.03710       -2.42148
C          3.00482       -5.67969       -1.02898
C          3.25765       -6.22005        0.27364
S          2.81939       -5.20690       -3.33300
N          3.32166       -6.23100       -2.19714
C          3.90624       -7.48724        0.51706
S          4.50974       -8.56399       -0.69627
C          4.14332       -8.02557        1.76093
C          5.06629       -9.70836        0.46236
S          3.81260       -7.49137        3.37354
C          4.80000       -9.28222        1.74688
C          5.72950      -10.93435        0.07084
C          4.55220       -8.94768        4.00422
C          5.02316       -9.79445        3.07165
N          6.17293      -11.81060        0.92582
S          6.00823      -11.37017       -1.59288
C          6.75905      -12.86446        0.29019
C          6.77022      -12.81221       -1.06409
H         -0.55134        0.93273        0.00000
H          1.92494        0.93597       -0.01293
H          3.12873       -1.25416       -0.02668
H         -0.69553       -3.16348       -0.00579
H          1.99612       -3.87464        2.13918
H          4.59696       -9.08468        5.07353
H          5.51229      -10.73368        3.26646
H          7.17758      -13.67197        0.87130
H          7.17566      -13.52456       -1.76096
$end

$opt
CONSTRAINT
tors 4 6 7 8 90.00000
tors 10 13 16 17 -179.11427
tors 17 19 22 25 179.21698
ENDCONSTRAINT
$end
--------------------------------------------------------------

   16   -2595.9034613418      4.85E-09 Convergence criterion met
 Total energy in the final basis set = -2595.9034613418
   12   -2595.9037901700      6.66E-09 Convergence criterion met
 Total energy in the final basis set = -2595.9037901700
   11   -2595.9038387716      4.92E-09 Convergence criterion met
 Total energy in the final basis set = -2595.9038387716
    9   -2595.9038490326      9.14E-09 Convergence criterion met
 Total energy in the final basis set = -2595.9038490326
    9   -2595.9038522910      8.97E-09 Convergence criterion met
 Total energy in the final basis set = -2595.9038522910
    9   -2595.9038535844      6.17E-09 Convergence criterion met
 Total energy in the final basis set = -2595.9038535844

             Standard Nuclear Orientation (Angstroms)
    I     Atom           X                Y                Z
 ----------------------------------------------------------------
    1      C      -7.6072799624     0.3778308704     0.0894855394
    2      C      -6.9999108666     0.3435142925    -1.1552024775
    3      N      -6.9314383595     0.3675189229     1.2338252045
    4      C      -5.6189054163     0.2958271280    -1.2156481579
    5      C      -5.6073020118     0.3199441552     1.1616442784
    6      C      -4.8934774829     0.2853180629    -0.0324799023
    7      C      -3.4136858323     0.2416502502    -0.0275145840
    8      C      -2.6407761422     1.3662587919    -0.0356162597
    9      C      -2.6977844844    -0.9861892886    -0.0143092574
   10      N      -1.2821846131     1.3997057500    -0.0309807904
   11      N      -3.2063004876    -2.2192521631    -0.0072212003
   12      C      -1.2711838935    -0.9683563917    -0.0071978702
   13      C      -0.5842531166     0.2910541762    -0.0157427715
   14      S      -1.9488241616    -3.2275400692     0.0086007796
   15      N      -0.7246775762    -2.1809973173     0.0061634515
   16      C       0.8550841598     0.4216300359    -0.0093639733
   17      S       1.9742168484    -0.8970391783    -0.0115528334
   18      C       1.5488381352     1.6092680914    -0.0068468551
   19      C       3.3445164480     0.1423978566    -0.0054067713
   20      S       1.0711433833     3.2718889066    -0.0058143580
   21      C       2.9606417433     1.4674623882    -0.0036438727
   22      C       4.6986830628    -0.3707768609    -0.0024024820
   23      C       2.7548122765     3.7536827269     0.0011279127
   24      C       3.6341684776     2.7361028858     0.0013909517
   25      N       5.7531496246     0.3933434136    -0.0126162320
   26      S       5.0644408825    -2.0726046736     0.0155223401
   27      C       6.8974358932    -0.3469538253    -0.0063612497
   28      C       6.7356014638    -1.6926422234     0.0082840777
   29      H      -8.6872927370     0.4168763338     0.1727923107
   30      H      -7.5967578240     0.3545149640    -2.0559508591
   31      H      -5.1041974356     0.2690209482    -2.1669592121
   32      H      -5.0728622392     0.3118501408     2.1053413839
   33      H      -3.1182655273     2.3383579295    -0.0451327909
   34      H       2.9900106632     4.8061851560     0.0042938400
   35      H       4.7059112010     2.8423467400     0.0044190505
   36      H       7.8509542251     0.1583635339    -0.0128166341
   37      H       7.4887499008    -2.4605940791     0.0161606891
 ----------------------------------------------------------------

    8   -2595.9038539449      7.59E-09 Convergence criterion met
 Total energy in the final basis set = -2595.9038539449
 Final energy is   -2595.90385394489
 **  OPTIMIZATION CONVERGED  **

                    Orbital Energies (a.u.)
 --------------------------------------------------------------

 Alpha MOs
 -- Occupied --
-89.155 -89.094 -89.093 -89.075 -14.495 -14.488 -14.452 -14.445
-14.437 -10.375 -10.370 -10.361 -10.360 -10.345 -10.341 -10.340
-10.334 -10.329 -10.328 -10.327 -10.326 -10.324 -10.322 -10.317
-10.315 -10.314 -10.303 -10.296  -8.165  -8.109  -8.108  -8.089
 -6.115  -6.110  -6.109  -6.058  -6.057  -6.054  -6.054  -6.052
 -6.051  -6.039  -6.035  -6.031  -1.152  -1.084  -1.072  -1.055
 -1.024  -1.015  -0.957  -0.945  -0.912  -0.909  -0.908  -0.885
 -0.861  -0.844  -0.829  -0.807  -0.775  -0.749  -0.741  -0.735
 -0.723  -0.695  -0.689  -0.678  -0.648  -0.641  -0.623  -0.621
 -0.608  -0.595  -0.589  -0.575  -0.572  -0.569  -0.539  -0.536
 -0.526  -0.523  -0.518  -0.514  -0.511  -0.499  -0.497  -0.491
 -0.489  -0.481  -0.476  -0.462  -0.458  -0.445  -0.437  -0.432
 -0.431  -0.424  -0.403  -0.396  -0.376  -0.375  -0.371  -0.370
 -0.363  -0.350  -0.344  -0.338  -0.334  -0.322  -0.269

          Ground-State Mulliken Net Atomic Charges

     Atom                 Charge (a.u.)
  ----------------------------------------
      1 C                    -0.068986
      2 C                    -0.099046
      3 N                    -0.152292
      4 C                    -0.111677
      5 C                    -0.079175
      6 C                     0.058744
      7 C                    -0.053581
      8 C                    -0.051600
      9 C                     0.045579
     10 N                    -0.180694
     11 N                    -0.263334
     12 C                     0.026793
     13 C                     0.117453
     14 S                     0.409143
     15 N                    -0.283961
     16 C                    -0.059706
     17 S                     0.130366
     18 C                    -0.006946
     19 C                    -0.021966
     20 S                     0.092912
     21 C                     0.020955
     22 C                     0.037508
     23 C                    -0.162907
     24 C                    -0.160587
     25 N                    -0.183124
     26 S                     0.100389
     27 C                    -0.074924
     28 C                    -0.203444
     29 H                     0.123877
     30 H                     0.129442
     31 H                     0.123503
     32 H                     0.127155
     33 H                     0.125569
     34 H                     0.131564
     35 H                     0.142154
     36 H                     0.129174
     37 H                     0.145672
  ----------------------------------------
  Sum of atomic charges =     0.000000

                    Cartesian Multipole Moments
 -----------------------------------------------------------------
    Charge (ESU x 10^10)
                 0.0000
    Dipole Moment (Debye)
         X       1.7354      Y      -1.1807      Z      -1.8799
       Tot       2.8178
    Quadrupole Moments (Debye-Ang)
        XX    -167.7213     XY      -5.8774     YY    -174.2324
        XZ      15.1553     YZ      -0.7402     ZZ    -186.9443

 Total job time:  5900.92s(wall), 89336.55s(cpu)
        *  Thank you very much for using Q-Chem.  Have a nice day.  *
