 Q-Chem 4.4, Q-Chem, Inc., Pleasanton, CA (2016)
 Q-Chem 4.4.2 for Intel X86 Linux

User input:
--------------------------------------------------------------
$comment
OPTIMIZATION
$end

$rem
JOBTYPE OPT
EXCHANGE omegaB97X-D
BASIS cc-pVTZ
$end

$molecule
0 1
C          0.00000        0.00000        0.00000
C          1.38508        0.00000        0.00000
N         -0.72771       -1.11322        0.00000
C          2.04720       -1.21160       -0.00386
C         -0.08136       -2.27149       -0.00595
C          1.30925       -2.38901       -0.00649
C          1.96927       -3.70493        0.02329
C          3.00885       -3.97291        0.87066
C          1.58911       -4.79034       -0.81894
N          3.68759       -5.14279        0.96105
N          0.62276       -4.80878       -1.73891
C          2.29815       -6.02750       -0.73619
C          3.37410       -6.16331        0.20008
S          0.64531       -6.27625       -2.40132
N          1.85634       -6.95207       -1.58407
C          4.15592       -7.36528        0.37245
S          3.95914       -8.83612       -0.51845
C          5.18231       -7.51541        1.27643
C          5.23858       -9.62518        0.31952
S          5.89730       -6.46660        2.45289
C          5.80586       -8.78878        1.25821
C          5.62443      -10.98819        0.02035
C          7.01406       -7.73783        2.90279
C          6.87023       -8.88730        2.21976
N          6.59690      -11.60468        0.62835
S          4.82705      -11.95351       -1.19124
C          6.75107      -12.87165        0.14959
C          5.89483      -13.24602       -0.83207
H         -0.55134        0.93273        0.00000
H          1.92494        0.93597       -0.01293
H          3.12873       -1.25416       -0.02668
H         -0.69553       -3.16348       -0.00579
H          3.35003       -3.20873        1.55750
H          7.74104       -7.53939        3.67502
H          7.46527       -9.77483        2.35240
H          7.52360      -13.50553        0.55741
H          5.83655      -14.18692       -1.35049
$end

$opt
CONSTRAINT
tors 4 6 7 8 45.00000
tors 10 13 16 17 -179.11427
tors 17 19 22 25 179.21698
ENDCONSTRAINT
$end
--------------------------------------------------------------

   16   -2595.9065945716      4.79E-09 Convergence criterion met
 Total energy in the final basis set = -2595.9065945716
   12   -2595.9067050517      5.17E-09 Convergence criterion met
 Total energy in the final basis set = -2595.9067050517
   10   -2595.9067269152      9.72E-09 Convergence criterion met
 Total energy in the final basis set = -2595.9067269152
   10   -2595.9067316100      6.47E-09 Convergence criterion met
 Total energy in the final basis set = -2595.9067316100
    9   -2595.9067329027      5.76E-09 Convergence criterion met
 Total energy in the final basis set = -2595.9067329027

             Standard Nuclear Orientation (Angstroms)
    I     Atom           X                Y                Z
 ----------------------------------------------------------------
    1      C       7.6112935431     0.3696243749    -0.0502528711
    2      C       6.9434393295     1.2304967669     0.8044461253
    3      N       6.9908130250    -0.5016172999    -0.8405420834
    4      C       5.5619948433     1.1843217108     0.8407241038
    5      C       5.6664525263    -0.5370342721    -0.7977364849
    6      C       4.8902861788     0.2878076886     0.0176360498
    7      C       3.4192088062     0.2194562276     0.0045807890
    8      C       2.6410041326     1.3442377137    -0.0347080568
    9      C       2.6963938369    -1.0079981018     0.0204396149
   10      N       1.2855195010     1.3826279721    -0.0391517156
   11      N       3.1932913764    -2.2453650543     0.0615591474
   12      C       1.2689315052    -0.9829250021     0.0119924091
   13      C       0.5836089386     0.2759834202    -0.0171137918
   14      S       1.9307831260    -3.2459452847     0.0799729094
   15      N       0.7151534091    -2.1918981323     0.0426978708
   16      C      -0.8547158585     0.4100838693    -0.0221856866
   17      S      -1.9774818890    -0.9048381250     0.0254137081
   18      C      -1.5457460364     1.5990617933    -0.0582558519
   19      C      -3.3451160197     0.1376635491    -0.0052091381
   20      S      -1.0642572331     3.2596735323    -0.1125715345
   21      C      -2.9578171748     1.4610193982    -0.0499764536
   22      C      -4.7004809566    -0.3715242449     0.0175140897
   23      C      -2.7467144676     3.7454604453    -0.1266766399
   24      C      -3.6283876084     2.7305365847    -0.0911003155
   25      N      -5.7529607744     0.3954936805     0.0100425711
   26      S      -5.0706328887    -2.0719343186     0.0581250125
   27      C      -6.8990692923    -0.3414764348     0.0374718319
   28      C      -6.7406687106    -1.6873799461     0.0664477951
   29      H       8.6938761145     0.3757499625    -0.1022150863
   30      H       7.4970362114     1.9120753712     1.4341340394
   31      H       5.0038049782     1.8262796122     1.5096225126
   32      H       5.1855028532    -1.2562206703    -1.4491640214
   33      H       3.1179466702     2.3160549622    -0.0753806132
   34      H      -2.9791698830     4.7979530327    -0.1625491648
   35      H      -4.6999228357     2.8391019013    -0.0924018916
   36      H      -7.8512509902     0.1663862791     0.0357049089
   37      H      -7.4956894554    -2.4530400266     0.0943480676
 ----------------------------------------------------------------

    8   -2595.9067332013      8.82E-09 Convergence criterion met
 Total energy in the final basis set = -2595.9067332013
 Final energy is   -2595.90673320126
 **  OPTIMIZATION CONVERGED  **

                    Orbital Energies (a.u.)
 --------------------------------------------------------------

 Alpha MOs
 -- Occupied --
-89.156 -89.094 -89.093 -89.075 -14.495 -14.488 -14.452 -14.445
-14.436 -10.375 -10.370 -10.363 -10.360 -10.345 -10.341 -10.340
-10.334 -10.329 -10.328 -10.327 -10.326 -10.326 -10.322 -10.318
-10.315 -10.314 -10.303 -10.296  -8.166  -8.109  -8.108  -8.089
 -6.116  -6.111  -6.110  -6.058  -6.057  -6.054  -6.054  -6.052
 -6.051  -6.039  -6.035  -6.032  -1.153  -1.084  -1.073  -1.055
 -1.024  -1.016  -0.957  -0.946  -0.912  -0.911  -0.907  -0.884
 -0.862  -0.845  -0.829  -0.807  -0.776  -0.752  -0.745  -0.729
 -0.724  -0.695  -0.689  -0.679  -0.648  -0.641  -0.623  -0.621
 -0.609  -0.595  -0.584  -0.577  -0.570  -0.568  -0.540  -0.537
 -0.526  -0.523  -0.518  -0.514  -0.512  -0.503  -0.496  -0.491
 -0.489  -0.481  -0.477  -0.463  -0.458  -0.448  -0.437  -0.433
 -0.430  -0.423  -0.403  -0.397  -0.382  -0.373  -0.371  -0.370
 -0.364  -0.358  -0.342  -0.337  -0.327  -0.319  -0.268

          Ground-State Mulliken Net Atomic Charges

     Atom                 Charge (a.u.)
  ----------------------------------------
      1 C                    -0.071370
      2 C                    -0.102360
      3 N                    -0.155121
      4 C                    -0.156904
      5 C                    -0.094833
      6 C                     0.108231
      7 C                     0.029665
      8 C                    -0.091211
      9 C                     0.018602
     10 N                    -0.182545
     11 N                    -0.274502
     12 C                     0.025152
     13 C                     0.117235
     14 S                     0.412867
     15 N                    -0.284361
     16 C                    -0.058977
     17 S                     0.130802
     18 C                    -0.007600
     19 C                    -0.021820
     20 S                     0.091597
     21 C                     0.021122
     22 C                     0.037493
     23 C                    -0.162708
     24 C                    -0.160475
     25 N                    -0.183293
     26 S                     0.100623
     27 C                    -0.074921
     28 C                    -0.203346
     29 H                     0.123999
     30 H                     0.128587
     31 H                     0.132128
     32 H                     0.128356
     33 H                     0.131412
     34 H                     0.131433
     35 H                     0.142241
     36 H                     0.129151
     37 H                     0.145650
  ----------------------------------------
  Sum of atomic charges =     0.000000

                    Cartesian Multipole Moments
 -----------------------------------------------------------------
    Charge (ESU x 10^10)
                 0.0000
    Dipole Moment (Debye)
         X      -1.8783      Y       0.0543      Z       1.3080
       Tot       2.2895
    Quadrupole Moments (Debye-Ang)
        XX    -169.4228     XY      16.2137     YY    -171.4715
        XZ       9.8229     YZ       1.5255     ZZ    -188.4929

 Total job time:  5154.86s(wall), 78031.99s(cpu)
        *  Thank you very much for using Q-Chem.  Have a nice day.  *
