 Q-Chem 4.4, Q-Chem, Inc., Pleasanton, CA (2016)
 Q-Chem 4.4.2 for Intel X86 Linux

User input:
--------------------------------------------------------------
$comment
OPTIMIZATION
$end

$rem
JOBTYPE OPT
EXCHANGE omegaB97X-D
BASIS cc-pVTZ
$end

$molecule
0 1
C          0.00000        0.00000        0.00000
C          1.38508        0.00000        0.00000
N         -0.72771       -1.11322        0.00000
C          2.04720       -1.21160       -0.00386
C         -0.08136       -2.27149       -0.00595
C          1.30925       -2.38901       -0.00649
C          1.96927       -3.70493        0.02329
C          1.99988       -4.47254        1.15485
C          2.62544       -4.27704       -1.10548
N          2.59269       -5.68462        1.28489
N          2.75705       -3.75156       -2.32493
C          3.25698       -5.55213       -0.98118
C          3.21224       -6.24284        0.27328
S          3.59989       -4.81231       -3.19510
N          3.84545       -5.96608       -2.09978
C          3.81087       -7.53518        0.51240
S          4.69854       -8.46811       -0.64408
C          3.76433       -8.21688        1.70669
C          4.99391       -9.74445        0.47193
S          3.06002       -7.87164        3.24943
C          4.43011       -9.46880        1.70021
C          5.75266      -10.92194        0.10588
C          3.66131       -9.39774        3.86187
C          4.35085      -10.13390        2.97242
N          6.00306      -11.89563        0.93332
S          6.41634      -11.16308       -1.48691
C          6.73995      -12.87306        0.33349
C          7.06266      -12.66331       -0.96605
H         -0.55134        0.93273        0.00000
H          1.92494        0.93597       -0.01293
H          3.12873       -1.25416       -0.02668
H         -0.69553       -3.16348       -0.00579
H          1.50983       -4.12048        2.05374
H          3.46043       -9.65889        4.88932
H          4.79940      -11.09352        3.16550
H          7.02811      -13.74633        0.89856
H          7.63149      -13.29291       -1.62747
$end

$opt
CONSTRAINT
tors 4 6 7 8 105.00000
tors 10 13 16 17 -179.11427
tors 17 19 22 25 179.21698
ENDCONSTRAINT
$end
--------------------------------------------------------------

   16   -2595.9041750482      4.82E-09 Convergence criterion met
 Total energy in the final basis set = -2595.9041750482
   12   -2595.9045007819      5.61E-09 Convergence criterion met
 Total energy in the final basis set = -2595.9045007819
   11   -2595.9045548285      6.24E-09 Convergence criterion met
 Total energy in the final basis set = -2595.9045548285
   10   -2595.9045668418      6.23E-09 Convergence criterion met
 Total energy in the final basis set = -2595.9045668418
   10   -2595.9045715953      6.13E-09 Convergence criterion met
 Total energy in the final basis set = -2595.9045715953
    9   -2595.9045737142      8.77E-09 Convergence criterion met
 Total energy in the final basis set = -2595.9045737142

             Standard Nuclear Orientation (Angstroms)
    I     Atom           X                Y                Z
 ----------------------------------------------------------------
    1      C      -7.6018458693     0.4654564455     0.0677038160
    2      C      -7.0052578601     0.0225772157    -1.1027699602
    3      N      -6.9176824659     0.7989642156     1.1562433443
    4      C      -5.6275430734    -0.0801531430    -1.1452628212
    5      C      -5.5952938713     0.6932604132     1.1031607221
    6      C      -4.8927461013     0.2557058213    -0.0152951876
    7      C      -3.4151132096     0.2118219582    -0.0051745594
    8      C      -2.6464605922     1.3391078254    -0.0529611281
    9      C      -2.6932617024    -1.0131441230     0.0061550286
   10      N      -1.2883935619     1.3785251563    -0.0581684095
   11      N      -3.1954298587    -2.2486143718     0.0291143702
   12      C      -1.2667028122    -0.9887713031    -0.0035103034
   13      C      -0.5852634517     0.2733888082    -0.0308274738
   14      S      -1.9329908397    -3.2511132283     0.0373504208
   15      N      -0.7143786832    -2.1986454360     0.0134395571
   16      C       0.8533164648     0.4103651236    -0.0287749171
   17      S       1.9783967710    -0.9032090179    -0.0171143591
   18      C       1.5417488965     1.6011411504    -0.0344778340
   19      C       3.3439839453     0.1424209534    -0.0162447609
   20      S       1.0566111868     3.2615156424    -0.0458777514
   21      C       2.9541679238     1.4657081026    -0.0263021348
   22      C       4.7003589478    -0.3647538700    -0.0058017513
   23      C       2.7380395777     3.7509106056    -0.0373200588
   24      C       3.6219982584     2.7373727821    -0.0279815835
   25      N       5.7515549859     0.4038092215    -0.0197789650
   26      S       5.0733991302    -2.0647969452     0.0265094926
   27      C       6.8989790374    -0.3314677244    -0.0046239866
   28      C       6.7429046985    -1.6776996721     0.0204776986
   29      H      -8.6797375806     0.5594026388     0.1333048621
   30      H      -7.6111559148    -0.2306062977    -1.9609696411
   31      H      -5.1240680104    -0.4210934913    -2.0400812023
   32      H      -5.0528474001     0.9702862440     2.0006979717
   33      H      -3.1284164747     2.3085880273    -0.0845715825
   34      H       2.9684629764     4.8044697841    -0.0403891633
   35      H       4.6932551469     2.8483897417    -0.0223071548
   36      H       7.8503926309     0.1777802526    -0.0125558308
   37      H       7.4993449771    -2.4422666736     0.0375779186
 ----------------------------------------------------------------

    9   -2595.9045742774      5.02E-09 Convergence criterion met
 Total energy in the final basis set = -2595.9045742774
 Final energy is   -2595.90457427736
 **  OPTIMIZATION CONVERGED  **

                    Orbital Energies (a.u.)
 --------------------------------------------------------------

 Alpha MOs
 -- Occupied --
-89.156 -89.094 -89.093 -89.075 -14.495 -14.488 -14.452 -14.445
-14.437 -10.375 -10.370 -10.362 -10.360 -10.345 -10.341 -10.340
-10.334 -10.329 -10.328 -10.327 -10.327 -10.324 -10.322 -10.318
-10.315 -10.314 -10.303 -10.296  -8.166  -8.109  -8.108  -8.089
 -6.116  -6.110  -6.109  -6.058  -6.057  -6.054  -6.054  -6.052
 -6.051  -6.039  -6.035  -6.031  -1.153  -1.084  -1.072  -1.055
 -1.024  -1.015  -0.957  -0.945  -0.912  -0.909  -0.908  -0.885
 -0.861  -0.844  -0.829  -0.807  -0.775  -0.749  -0.743  -0.733
 -0.723  -0.695  -0.690  -0.678  -0.648  -0.640  -0.623  -0.621
 -0.609  -0.595  -0.588  -0.576  -0.571  -0.569  -0.540  -0.536
 -0.526  -0.523  -0.518  -0.514  -0.511  -0.500  -0.497  -0.491
 -0.489  -0.481  -0.476  -0.462  -0.458  -0.445  -0.437  -0.432
 -0.431  -0.424  -0.403  -0.396  -0.378  -0.374  -0.371  -0.370
 -0.362  -0.350  -0.345  -0.337  -0.333  -0.322  -0.269

          Ground-State Mulliken Net Atomic Charges

     Atom                 Charge (a.u.)
  ----------------------------------------
      1 C                    -0.070714
      2 C                    -0.098552
      3 N                    -0.151363
      4 C                    -0.113490
      5 C                    -0.097875
      6 C                     0.071780
      7 C                    -0.035817
      8 C                    -0.057261
      9 C                     0.033337
     10 N                    -0.180400
     11 N                    -0.264340
     12 C                     0.027225
     13 C                     0.118081
     14 S                     0.409246
     15 N                    -0.284015
     16 C                    -0.060136
     17 S                     0.130179
     18 C                    -0.007018
     19 C                    -0.021951
     20 S                     0.093408
     21 C                     0.020962
     22 C                     0.037613
     23 C                    -0.162841
     24 C                    -0.160499
     25 N                    -0.183121
     26 S                     0.100286
     27 C                    -0.074872
     28 C                    -0.203425
     29 H                     0.124260
     30 H                     0.129503
     31 H                     0.123234
     32 H                     0.131817
     33 H                     0.128249
     34 H                     0.131592
     35 H                     0.142096
     36 H                     0.129172
     37 H                     0.145651
  ----------------------------------------
  Sum of atomic charges =     0.000000

                    Cartesian Multipole Moments
 -----------------------------------------------------------------
    Charge (ESU x 10^10)
                 0.0000
    Dipole Moment (Debye)
         X       1.7332      Y      -1.7645      Z      -1.7821
       Tot       3.0485
    Quadrupole Moments (Debye-Ang)
        XX    -167.3797     XY      -1.1935     YY    -174.5174
        XZ      14.7093     YZ      -0.0539     ZZ    -187.1980

 Total job time:  6041.02s(wall), 91436.81s(cpu)
        *  Thank you very much for using Q-Chem.  Have a nice day.  *
