 Q-Chem 4.4, Q-Chem, Inc., Pleasanton, CA (2016)
 Q-Chem 4.4.2 for Intel X86 Linux

User input:
--------------------------------------------------------------
$comment
OPTIMIZATION
$end

$rem
JOBTYPE OPT
EXCHANGE omegaB97X-D
BASIS cc-pVTZ
$end

$molecule
0 1
C          0.00000        0.00000        0.00000
C          1.38508        0.00000        0.00000
N         -0.72771       -1.11322        0.00000
C          2.04720       -1.21160       -0.00386
C         -0.08136       -2.27149       -0.00595
C          1.30925       -2.38901       -0.00649
C          1.96927       -3.70493        0.02329
C          1.57749       -4.72852       -0.79486
C          3.05100       -4.01828        0.89718
N          2.11041       -5.97440       -0.83057
N          3.62711       -3.22182        1.79954
C          3.61955       -5.32834        0.87207
C          3.10173       -6.30534       -0.03901
S          4.77731       -4.09254        2.51487
N          4.60918       -5.49601        1.74467
C          3.60018       -7.65592       -0.15361
S          4.88012       -8.34466        0.78616
C          3.12290       -8.60060       -1.03281
C          4.76216       -9.87135        0.00061
S          1.87627       -8.58945       -2.23326
C          3.76977       -9.86015       -0.95727
C          5.61794      -10.98386        0.35580
C          2.23490      -10.25980       -2.61659
C          3.22947      -10.80650       -1.89516
N          5.54118      -12.15321       -0.21177
S          6.84632      -10.87785        1.58684
C          6.45533      -13.01623        0.31519
C          7.24964      -12.51838        1.29405
H         -0.55134        0.93273        0.00000
H          1.92494        0.93597       -0.01293
H          3.12873       -1.25416       -0.02668
H         -0.69553       -3.16348       -0.00579
H          0.77363       -4.57022       -1.50257
H          1.65507      -10.75160       -3.38218
H          3.58699      -11.81819       -1.98483
H          6.50847      -14.02854       -0.05537
H          8.02892      -13.01499        1.84501
$end

$opt
CONSTRAINT
tors 4 6 7 8 -135.00000
tors 10 13 16 17 -179.11427
tors 17 19 22 25 179.21698
ENDCONSTRAINT
$end
--------------------------------------------------------------

   16   -2595.9068831184      5.05E-09 Convergence criterion met
 Total energy in the final basis set = -2595.9068831184
   12   -2595.9072247828      4.51E-09 Convergence criterion met
 Total energy in the final basis set = -2595.9072247828
   11   -2595.9073188102      9.68E-09 Convergence criterion met
 Total energy in the final basis set = -2595.9073188102
   11   -2595.9073434116      3.68E-09 Convergence criterion met
 Total energy in the final basis set = -2595.9073434116
   10   -2595.9073500321      7.26E-09 Convergence criterion met
 Total energy in the final basis set = -2595.9073500321
    9   -2595.9073512751      5.48E-09 Convergence criterion met
 Total energy in the final basis set = -2595.9073512751

             Standard Nuclear Orientation (Angstroms)
    I     Atom           X                Y                Z
 ----------------------------------------------------------------
    1      C      -7.5962866377    -0.5421240905     0.0963813233
    2      C      -7.0553359670     0.4172329404    -0.7454673951
    3      N      -6.8596090026    -1.3300222118     0.8722015911
    4      C      -5.6820323741     0.5613356282    -0.7931945092
    5      C      -5.5428221043    -1.1799165195     0.8211211875
    6      C      -4.8892796823    -0.2585369470     0.0039603780
    7      C      -3.4187455948    -0.1967712123    -0.0192390561
    8      C      -2.6436129311    -1.3238540805    -0.0609857669
    9      C      -2.6925868746     1.0289189246    -0.0087994822
   10      N      -1.2878791247    -1.3647460530    -0.0649102987
   11      N      -3.1867087059     2.2678357755     0.0211055569
   12      C      -1.2651168138     1.0007282481    -0.0156296999
   13      C      -0.5829555858    -0.2604020128    -0.0398400754
   14      S      -1.9211068547     3.2660260615     0.0358941388
   15      N      -0.7085113153     2.2083050783     0.0081486672
   16      C       0.8547774016    -0.3986883815    -0.0378681333
   17      S       1.9816998577     0.9125433076     0.0147331501
   18      C       1.5419115783    -1.5901214956    -0.0684220282
   19      C       3.3459113245    -0.1347414467    -0.0057028022
   20      S       1.0549384493    -3.2489795647    -0.1227453243
   21      C       2.9543657001    -1.4567914524    -0.0515259300
   22      C       4.7027795425     0.3698564630     0.0271740048
   23      C       2.7356752816    -3.7404792202    -0.1257346908
   24      C       3.6207926614    -2.7286862215    -0.0862001044
   25      N       5.7526355529    -0.4007244198     0.0275466392
   26      S       5.0784873770     2.0689886336     0.0727831316
   27      C       6.9010050710     0.3321852361     0.0650749810
   28      C       6.7470833960     1.6786186767     0.0942002958
   29      H      -8.6694905454    -0.6829918138     0.1533328475
   30      H      -7.6995518189     1.0350068866    -1.3545132744
   31      H      -5.2265186541     1.2983531955    -1.4389718166
   32      H      -4.9613737787    -1.8175965949     1.4783144497
   33      H      -3.1222271016    -2.2945180580    -0.1027466490
   34      H       2.9646595875    -4.7938605223    -0.1576928725
   35      H       4.6919477126    -2.8407678616    -0.0798526466
   36      H       7.8514687314    -0.1788635948     0.0704547858
   37      H       7.5045542490     2.4415308580     0.1300302456
 ----------------------------------------------------------------

    8   -2595.9073515569      7.65E-09 Convergence criterion met
 Total energy in the final basis set = -2595.9073515569
 Final energy is   -2595.90735155686
 **  OPTIMIZATION CONVERGED  **

                    Orbital Energies (a.u.)
 --------------------------------------------------------------

 Alpha MOs
 -- Occupied --
-89.157 -89.094 -89.093 -89.075 -14.496 -14.490 -14.452 -14.445
-14.437 -10.375 -10.370 -10.364 -10.361 -10.345 -10.341 -10.340
-10.334 -10.329 -10.328 -10.328 -10.326 -10.326 -10.322 -10.318
-10.314 -10.313 -10.302 -10.296  -8.167  -8.109  -8.108  -8.089
 -6.117  -6.111  -6.111  -6.058  -6.057  -6.054  -6.054  -6.052
 -6.052  -6.039  -6.035  -6.031  -1.154  -1.084  -1.073  -1.055
 -1.024  -1.017  -0.957  -0.946  -0.913  -0.910  -0.907  -0.887
 -0.861  -0.844  -0.829  -0.807  -0.776  -0.753  -0.745  -0.729
 -0.723  -0.695  -0.690  -0.679  -0.649  -0.640  -0.623  -0.622
 -0.609  -0.596  -0.585  -0.577  -0.570  -0.568  -0.541  -0.537
 -0.526  -0.523  -0.517  -0.515  -0.511  -0.503  -0.496  -0.491
 -0.489  -0.483  -0.476  -0.462  -0.458  -0.448  -0.438  -0.433
 -0.431  -0.425  -0.405  -0.397  -0.382  -0.372  -0.371  -0.370
 -0.361  -0.357  -0.345  -0.337  -0.328  -0.319  -0.268

          Ground-State Mulliken Net Atomic Charges

     Atom                 Charge (a.u.)
  ----------------------------------------
      1 C                    -0.072664
      2 C                    -0.100371
      3 N                    -0.152083
      4 C                    -0.129198
      5 C                    -0.125647
      6 C                     0.112427
      7 C                     0.030034
      8 C                    -0.092997
      9 C                     0.023976
     10 N                    -0.182014
     11 N                    -0.281847
     12 C                     0.025420
     13 C                     0.118006
     14 S                     0.409980
     15 N                    -0.283288
     16 C                    -0.059268
     17 S                     0.129856
     18 C                    -0.007690
     19 C                    -0.021737
     20 S                     0.093844
     21 C                     0.021305
     22 C                     0.037599
     23 C                    -0.162551
     24 C                    -0.160517
     25 N                    -0.183099
     26 S                     0.100158
     27 C                    -0.074839
     28 C                    -0.203286
     29 H                     0.123928
     30 H                     0.127504
     31 H                     0.120414
     32 H                     0.134952
     33 H                     0.135081
     34 H                     0.131631
     35 H                     0.142197
     36 H                     0.129205
     37 H                     0.145580
  ----------------------------------------
  Sum of atomic charges =     0.000000

                    Cartesian Multipole Moments
 -----------------------------------------------------------------
    Charge (ESU x 10^10)
                 0.0000
    Dipole Moment (Debye)
         X       1.7282      Y       2.5723      Z      -1.2735
       Tot       3.3504
    Quadrupole Moments (Debye-Ang)
        XX    -166.3390     XY      -5.1673     YY    -174.0699
        XZ      10.8868     YZ      -0.2063     ZZ    -188.6983

 Total job time:  6027.62s(wall), 91238.93s(cpu)
        *  Thank you very much for using Q-Chem.  Have a nice day.  *
