 Q-Chem 4.4, Q-Chem, Inc., Pleasanton, CA (2016)
 Q-Chem 4.4.2 for Intel X86 Linux

User input:
--------------------------------------------------------------
$comment
OPTIMIZATION
$end

$rem
JOBTYPE OPT
EXCHANGE omegaB97X-D
BASIS cc-pVTZ
$end

$molecule
0 1
C          0.00000        0.00000        0.00000
C          1.38508        0.00000        0.00000
N         -0.72771       -1.11322        0.00000
C          2.04720       -1.21160       -0.00386
C         -0.08136       -2.27149       -0.00595
C          1.30925       -2.38901       -0.00649
C          1.96927       -3.70493        0.02329
C          1.25546       -4.87157        0.02106
C          3.38466       -3.86983        0.06160
N          1.76934       -6.12526        0.06193
N          4.31651       -2.91495        0.08058
C          3.93919       -5.18531        0.10823
C          3.06506       -6.32048        0.10457
S          5.74115       -3.66278        0.14328
N          5.26821       -5.20141        0.15664
C          3.51327       -7.69275        0.14508
S          5.16097       -8.21647        0.22622
C          2.68709       -8.79291        0.12805
C          4.72941       -9.88243        0.23686
S          0.96930       -8.99245        0.05994
C          3.36027      -10.03979        0.18030
C          5.72491      -10.93128        0.30804
C          1.17282      -10.73098        0.10143
C          2.44875      -11.15153        0.16196
N          5.42641      -12.19847        0.33176
S          7.43607      -10.60956        0.37151
C          6.54993      -12.96669        0.40730
C          7.72822      -12.29769        0.43930
H         -0.55134        0.93273        0.00000
H          1.92494        0.93597       -0.01293
H          3.12873       -1.25416       -0.02668
H         -0.69553       -3.16348       -0.00579
H          0.17432       -4.83735       -0.02461
H          0.29353      -11.35606        0.08334
H          2.76993      -12.17856        0.19957
H          6.45978      -14.04180        0.43800
H          8.72590      -12.69588        0.49860
$end

$opt
CONSTRAINT
tors 4 6 7 8 180.00000
tors 10 13 16 17 -179.11427
tors 17 19 22 25 179.21698
ENDCONSTRAINT
$end
--------------------------------------------------------------

   16   -2595.9023023473      6.05E-09 Convergence criterion met
 Total energy in the final basis set = -2595.9023023473
   13   -2595.9022196637      6.26E-09 Convergence criterion met
 Total energy in the final basis set = -2595.9022196637
   13   -2595.9038749376      5.79E-09 Convergence criterion met
 Total energy in the final basis set = -2595.9038749376
   11   -2595.9039676496      6.91E-09 Convergence criterion met
 Total energy in the final basis set = -2595.9039676496
   10   -2595.9040285378      8.46E-09 Convergence criterion met
 Total energy in the final basis set = -2595.9040285378
    9   -2595.9040316207      6.59E-09 Convergence criterion met
 Total energy in the final basis set = -2595.9040316207
   10   -2595.9040342914      5.70E-09 Convergence criterion met
 Total energy in the final basis set = -2595.9040342914

             Standard Nuclear Orientation (Angstroms)
    I     Atom           X                Y                Z
 ----------------------------------------------------------------
    1      C       7.6362212674    -0.5626613443    -0.0325749175
    2      C       7.1023091702     0.7113866240    -0.0161726645
    3      N       6.8806379110    -1.6574837225    -0.0370271182
    4      C       5.7274253279     0.8633268268    -0.0044025368
    5      C       5.5662346511    -1.5007192268    -0.0252039903
    6      C       4.9068147805    -0.2645728995    -0.0082590195
    7      C       3.4275601957    -0.1814375474     0.0013722652
    8      C       2.6329184167    -1.3021554192    -0.0025855695
    9      C       2.6859469189     1.0452686812     0.0102949351
   10      N       1.2800000159    -1.3494901081     0.0000816791
   11      N       3.1506216540     2.2975407344     0.0174888684
   12      C       1.2541704216     1.0072277358     0.0134628958
   13      C       0.5698511050    -0.2491632764     0.0073004870
   14      S       1.8764232049     3.2814261936     0.0268304910
   15      N       0.6822957373     2.2066074684     0.0226884487
   16      C      -0.8662501310    -0.3907688506     0.0070302658
   17      S      -1.9981652301     0.9173982330    -0.0061069227
   18      C      -1.5495610344    -1.5853947809     0.0092122326
   19      C      -3.3584520402    -0.1348985842    -0.0051236807
   20      S      -1.0572159364    -3.2432313396     0.0174737691
   21      C      -2.9624263292    -1.4564783519     0.0032586375
   22      C      -4.7169567476     0.3661884600    -0.0142588396
   23      C      -2.7362577771    -3.7405022969     0.0154337923
   24      C      -3.6247243984    -2.7308983158     0.0074477003
   25      N      -5.7648033984    -0.4070211176    -0.0286154169
   26      S      -5.0974137416     2.0648826334    -0.0084129828
   27      C      -6.9152702942     0.3234407753    -0.0353126209
   28      C      -6.7649611794     1.6706389231    -0.0266927542
   29      H       8.7085959698    -0.7186892701    -0.0429937041
   30      H       7.7483345333     1.5778411608    -0.0135342381
   31      H       5.2947658295     1.8496760271     0.0068378393
   32      H       5.0081177912    -2.4273410350    -0.0299811094
   33      H       3.0857460694    -2.2823185616    -0.0086180555
   34      H      -2.9615397435    -4.7951488447     0.0198238841
   35      H      -4.6955194152    -2.8465230952     0.0036903086
   36      H      -7.8644398769    -0.1898930287    -0.0464866609
   37      H      -7.5246817981     2.4321367990    -0.0304059503
 ----------------------------------------------------------------

    9   -2595.9040348342      4.84E-09 Convergence criterion met
 Total energy in the final basis set = -2595.9040348342
 Final energy is   -2595.90403483418
 **  OPTIMIZATION CONVERGED  **

                    Orbital Energies (a.u.)
 --------------------------------------------------------------

 Alpha MOs
 -- Occupied --
-89.158 -89.095 -89.094 -89.076 -14.498 -14.491 -14.453 -14.446
-14.435 -10.375 -10.370 -10.367 -10.362 -10.346 -10.342 -10.341
-10.335 -10.331 -10.329 -10.328 -10.327 -10.323 -10.323 -10.321
-10.315 -10.306 -10.299 -10.296  -8.169  -8.110  -8.109  -8.090
 -6.119  -6.113  -6.112  -6.059  -6.058  -6.055  -6.055  -6.052
 -6.052  -6.040  -6.036  -6.032  -1.156  -1.085  -1.074  -1.054
 -1.025  -1.018  -0.958  -0.944  -0.913  -0.911  -0.905  -0.887
 -0.861  -0.845  -0.830  -0.808  -0.777  -0.755  -0.745  -0.726
 -0.722  -0.696  -0.690  -0.680  -0.650  -0.640  -0.623  -0.621
 -0.610  -0.597  -0.582  -0.579  -0.570  -0.562  -0.544  -0.537
 -0.527  -0.524  -0.518  -0.516  -0.510  -0.507  -0.494  -0.492
 -0.489  -0.485  -0.476  -0.459  -0.458  -0.453  -0.440  -0.434
 -0.432  -0.424  -0.402  -0.400  -0.385  -0.373  -0.371  -0.370
 -0.362  -0.361  -0.342  -0.338  -0.326  -0.316  -0.267

          Ground-State Mulliken Net Atomic Charges

     Atom                 Charge (a.u.)
  ----------------------------------------
      1 C                    -0.080860
      2 C                    -0.105357
      3 N                    -0.158425
      4 C                    -0.150895
      5 C                    -0.109523
      6 C                     0.105910
      7 C                     0.053822
      8 C                    -0.080819
      9 C                     0.041310
     10 N                    -0.191404
     11 N                    -0.295527
     12 C                     0.026243
     13 C                     0.112769
     14 S                     0.402980
     15 N                    -0.281526
     16 C                    -0.053714
     17 S                     0.129644
     18 C                    -0.008940
     19 C                    -0.020558
     20 S                     0.094683
     21 C                     0.021115
     22 C                     0.037484
     23 C                    -0.161992
     24 C                    -0.159980
     25 N                    -0.183025
     26 S                     0.100424
     27 C                    -0.074602
     28 C                    -0.203165
     29 H                     0.122728
     30 H                     0.128545
     31 H                     0.137002
     32 H                     0.126500
     33 H                     0.129973
     34 H                     0.131822
     35 H                     0.142181
     36 H                     0.129354
     37 H                     0.145822
  ----------------------------------------
  Sum of atomic charges =     0.000000

                    Cartesian Multipole Moments
 -----------------------------------------------------------------
    Charge (ESU x 10^10)
                 0.0000
    Dipole Moment (Debye)
         X      -2.0631      Y       3.0722      Z       0.0216
       Tot       3.7007
    Quadrupole Moments (Debye-Ang)
        XX    -167.6337     XY       9.1693     YY    -172.9102
        XZ       0.1803     YZ      -0.1008     ZZ    -190.0653

 Total job time:  7216.04s(wall), 109295.77s(cpu)
        *  Thank you very much for using Q-Chem.  Have a nice day.  *
