 Q-Chem 4.4, Q-Chem, Inc., Pleasanton, CA (2016)
 Q-Chem 4.4.2 for Intel X86 Linux

User input:
--------------------------------------------------------------
$comment
OPTIMIZATION
$end

$rem
JOBTYPE OPT
EXCHANGE omegaB97X-D
BASIS cc-pVTZ
$end

$molecule
0 1
C          0.00000        0.00000        0.00000
C          1.38508        0.00000        0.00000
N         -0.72771       -1.11322        0.00000
C          2.04720       -1.21160       -0.00386
C         -0.08136       -2.27149       -0.00595
C          1.30925       -2.38901       -0.00649
C          1.96927       -3.70493        0.02329
C          2.78987       -4.07864        1.05166
C          1.81451       -4.68147       -1.00356
N          3.45134       -5.25676        1.16117
N          1.08733       -4.58435       -2.11814
C          2.50849       -5.92576       -0.90216
C          3.34144       -6.17889        0.23575
S          1.28999       -5.96469       -2.92210
N          2.29203       -6.74138       -1.93018
C          4.08485       -7.39929        0.44462
S          4.12699       -8.75448       -0.63124
C          4.87732       -7.66246        1.53821
C          5.19294       -9.64662        0.38346
S          5.28128       -6.76407        2.96122
C          5.51214       -8.93022        1.51809
C          5.66312      -10.96865        0.02657
C          6.28771       -8.08845        3.50777
C          6.32729       -9.14916        2.68204
N          6.48032      -11.65999        0.76795
S          5.18556      -11.77933       -1.43983
C          6.76480      -12.86373        0.19500
C          6.16570      -13.11384       -0.99474
H         -0.55134        0.93273        0.00000
H          1.92494        0.93597       -0.01293
H          3.12873       -1.25416       -0.02668
H         -0.69553       -3.16348       -0.00579
H          2.94868       -3.40269        1.88230
H          6.81276       -7.98755        4.44497
H          6.89224      -10.05108        2.84557
H          7.43407      -13.54733        0.69471
H          6.24653      -13.98733       -1.61758
$end

$opt
CONSTRAINT
tors 4 6 7 8 60.00000
tors 10 13 16 17 -179.11427
tors 17 19 22 25 179.21698
ENDCONSTRAINT
$end
--------------------------------------------------------------

   16   -2595.9053385238      4.88E-09 Convergence criterion met
 Total energy in the final basis set = -2595.9053385238
   12   -2595.9055949457      6.93E-09 Convergence criterion met
 Total energy in the final basis set = -2595.9055949457
   12   -2595.9056690610      3.10E-09 Convergence criterion met
 Total energy in the final basis set = -2595.9056690610
   11   -2595.9056963702      5.78E-09 Convergence criterion met
 Total energy in the final basis set = -2595.9056963702
   10   -2595.9057047455      7.22E-09 Convergence criterion met
 Total energy in the final basis set = -2595.9057047455

             Standard Nuclear Orientation (Angstroms)
    I     Atom           X                Y                Z
 ----------------------------------------------------------------
    1      C      -7.6072909296     0.3334990934     0.0746974828
    2      C      -6.9762358206     0.9819490660    -0.9732769825
    3      N      -6.9524621442    -0.3130261093     1.0356051218
    4      C      -5.5935389787     0.9603363455    -1.0270677731
    5      C      -5.6287310618    -0.3263734153     0.9736212239
    6      C      -4.8896836827     0.3046357055    -0.0261526081
    7      C      -3.4158300586     0.2456717148    -0.0333477964
    8      C      -2.6378715298     1.3685203522     0.0028356779
    9      C      -2.7000572098    -0.9841534670    -0.0311195561
   10      N      -1.2809170247     1.4009084053     0.0107200703
   11      N      -3.2066217567    -2.2178942642    -0.0501625792
   12      C      -1.2731099365    -0.9663602274    -0.0187999990
   13      C      -0.5838739042     0.2912623687    -0.0001761526
   14      S      -1.9494171464    -3.2258756071    -0.0481816224
   15      N      -0.7264250083    -2.1789772327    -0.0272237228
   16      C       0.8553060126     0.4201638639     0.0097147001
   17      S       1.9734157284    -0.8991081271    -0.0234633573
   18      C       1.5502869244     1.6068064807     0.0406945773
   19      C       3.3446429841     0.1387540834     0.0054243850
   20      S       1.0742796472     3.2693969651     0.0824435455
   21      C       2.9619016672     1.4637329690     0.0396918162
   22      C       4.6984026970    -0.3751072235    -0.0080796234
   23      C       2.7583943614     3.7493559466     0.1010292152
   24      C       3.6366863871     2.7311662366     0.0758373813
   25      N       5.7533013734     0.3885537357    -0.0016851225
   26      S       5.0631999643    -2.0769587929    -0.0353185644
   27      C       6.8971557939    -0.3522660062    -0.0191238790
   28      C       6.7345403866    -1.6977919414    -0.0392494679
   29      H      -8.6887205219     0.3280568658     0.1470147936
   30      H      -7.5557089921     1.4856212850    -1.7336123748
   31      H      -5.0624280967     1.4419908216    -1.8377072954
   32      H      -5.1157504449    -0.8616437725     1.7644092923
   33      H      -3.1138005957     2.3413131902     0.0299235660
   34      H       2.9944435132     4.8012257896     0.1315402309
   35      H       4.7085613515     2.8360776691     0.0816662590
   36      H       7.8509537304     0.1525600595    -0.0167443859
   37      H       7.4871976290    -2.4660479325    -0.0578186947
 ----------------------------------------------------------------

    9   -2595.9057060480      3.39E-09 Convergence criterion met
 Total energy in the final basis set = -2595.9057060480
 Final energy is   -2595.90570604797
 **  OPTIMIZATION CONVERGED  **

                    Orbital Energies (a.u.)
 --------------------------------------------------------------

 Alpha MOs
 -- Occupied --
-89.156 -89.094 -89.093 -89.075 -14.495 -14.488 -14.452 -14.445
-14.436 -10.375 -10.370 -10.362 -10.360 -10.345 -10.341 -10.340
-10.334 -10.329 -10.328 -10.327 -10.326 -10.325 -10.322 -10.318
-10.315 -10.314 -10.303 -10.296  -8.166  -8.109  -8.108  -8.089
 -6.116  -6.110  -6.109  -6.058  -6.057  -6.054  -6.054  -6.052
 -6.051  -6.039  -6.035  -6.031  -1.153  -1.084  -1.073  -1.055
 -1.024  -1.015  -0.957  -0.946  -0.912  -0.910  -0.907  -0.884
 -0.862  -0.845  -0.829  -0.807  -0.775  -0.751  -0.744  -0.731
 -0.724  -0.695  -0.689  -0.678  -0.648  -0.641  -0.623  -0.621
 -0.609  -0.595  -0.586  -0.576  -0.570  -0.569  -0.540  -0.536
 -0.526  -0.523  -0.518  -0.514  -0.511  -0.501  -0.497  -0.491
 -0.489  -0.481  -0.477  -0.462  -0.458  -0.447  -0.437  -0.433
 -0.430  -0.423  -0.403  -0.396  -0.380  -0.373  -0.370  -0.370
 -0.363  -0.356  -0.343  -0.337  -0.329  -0.321  -0.269

          Ground-State Mulliken Net Atomic Charges

     Atom                 Charge (a.u.)
  ----------------------------------------
      1 C                    -0.069896
      2 C                    -0.099577
      3 N                    -0.154067
      4 C                    -0.150023
      5 C                    -0.092407
      6 C                     0.093738
      7 C                     0.004990
      8 C                    -0.074308
      9 C                     0.016719
     10 N                    -0.181181
     11 N                    -0.265095
     12 C                     0.025099
     13 C                     0.117486
     14 S                     0.411923
     15 N                    -0.284546
     16 C                    -0.060026
     17 S                     0.130689
     18 C                    -0.006792
     19 C                    -0.021904
     20 S                     0.091977
     21 C                     0.020787
     22 C                     0.037585
     23 C                    -0.162773
     24 C                    -0.160630
     25 N                    -0.183276
     26 S                     0.100525
     27 C                    -0.074965
     28 C                    -0.203406
     29 H                     0.124324
     30 H                     0.129152
     31 H                     0.133534
     32 H                     0.128287
     33 H                     0.129511
     34 H                     0.131465
     35 H                     0.142267
     36 H                     0.129153
     37 H                     0.145659
  ----------------------------------------
  Sum of atomic charges =     0.000000

                    Cartesian Multipole Moments
 -----------------------------------------------------------------
    Charge (ESU x 10^10)
                 0.0000
    Dipole Moment (Debye)
         X       1.7844      Y      -0.2393      Z      -1.5734
       Tot       2.3910
    Quadrupole Moments (Debye-Ang)
        XX    -168.4908     XY     -13.7183     YY    -172.5730
        XZ      12.2476     YZ      -1.5573     ZZ    -187.8098

 Total job time:  5416.55s(wall), 81842.97s(cpu)
        *  Thank you very much for using Q-Chem.  Have a nice day.  *
