 Q-Chem 4.4, Q-Chem, Inc., Pleasanton, CA (2016)
 Q-Chem 4.4.2 for Intel X86 Linux

User input:
--------------------------------------------------------------
$comment
OPTIMIZATION
$end

$rem
JOBTYPE OPT
EXCHANGE omegaB97X-D
BASIS cc-pVTZ
$end

$molecule
0 1
C          0.00000        0.00000        0.00000
C          1.38508        0.00000        0.00000
N         -0.72771       -1.11322        0.00000
C          2.04720       -1.21160       -0.00386
C         -0.08136       -2.27149       -0.00595
C          1.30925       -2.38901       -0.00649
C          1.96927       -3.70493        0.02329
C          1.38169       -4.79507        0.60375
C          3.25748       -3.94717       -0.53692
N          1.91348       -6.03866        0.69415
N          4.05649       -3.07327       -1.15206
C          3.83083       -5.25219       -0.44563
C          3.09808       -6.30180        0.19790
S          5.38927       -3.87789       -1.56320
N          5.03997       -5.34189       -0.99231
C          3.57624       -7.65667        0.34413
S          5.10670       -8.25336       -0.20122
C          2.87879       -8.67823        0.94677
C          4.79867       -9.84450        0.37772
S          1.32307       -8.77793        1.69849
C          3.55762       -9.92283        0.97451
C          5.76517      -10.91278        0.23335
C          1.59912      -10.47335        2.03757
C          2.78388      -10.95051        1.61668
N          5.56445      -12.12149        0.67398
S          7.30757      -10.69480       -0.54710
C          6.63500      -12.92391        0.41276
C          7.67234      -12.34100       -0.23615
H         -0.55134        0.93273        0.00000
H          1.92494        0.93597       -0.01293
H          3.12873       -1.25416       -0.02668
H         -0.69553       -3.16348       -0.00579
H          0.39435       -4.70295        1.03822
H          0.83308      -11.02949        2.55535
H          3.13226      -11.96199        1.73879
H          6.61507      -13.95746        0.72309
H          8.60713      -12.77894       -0.53918
$end

$opt
CONSTRAINT
tors 4 6 7 8 150.00000
tors 10 13 16 17 -179.11427
tors 17 19 22 25 179.21698
ENDCONSTRAINT
$end
--------------------------------------------------------------

   16   -2595.9061387480      5.52E-09 Convergence criterion met
 Total energy in the final basis set = -2595.9061387480
   12   -2595.9067855872      8.56E-09 Convergence criterion met
 Total energy in the final basis set = -2595.9067855872
   12   -2595.9069812058      3.86E-09 Convergence criterion met
 Total energy in the final basis set = -2595.9069812058
   11   -2595.9070228359      6.73E-09 Convergence criterion met
 Total energy in the final basis set = -2595.9070228359
   10   -2595.9070312205      7.35E-09 Convergence criterion met
 Total energy in the final basis set = -2595.9070312205
   10   -2595.9070342827      5.07E-09 Convergence criterion met
 Total energy in the final basis set = -2595.9070342827

             Standard Nuclear Orientation (Angstroms)
    I     Atom           X                Y                Z
 ----------------------------------------------------------------
    1      C       7.6045742783    -0.5428786857     0.0859541682
    2      C       7.0808555977     0.5817404633    -0.5292466176
    3      N       6.8484523288    -1.4850443269     0.6405491751
    4      C       5.7082108924     0.7283218621    -0.5948266277
    5      C       5.5336976904    -1.3308682397     0.5785764676
    6      C       4.8925850402    -0.2588106404    -0.0471876685
    7      C       3.4217789844    -0.1867603398    -0.0817331804
    8      C       2.6413125499    -1.3127985634    -0.1217951706
    9      C       2.6897462571     1.0376840949    -0.0326569344
   10      N       1.2870707813    -1.3576954451    -0.1090531654
   11      N       3.1736084475     2.2802133515     0.0250947107
   12      C       1.2610114037     1.0039973628    -0.0212716759
   13      C       0.5795147098    -0.2560382160    -0.0587011818
   14      S       1.9041012230     3.2709307207     0.0808403963
   15      N       0.6984458951     2.2071612805     0.0401334823
   16      C      -0.8573653749    -0.3976352697    -0.0435523111
   17      S      -1.9878403094     0.9109663171    -0.0015055967
   18      C      -1.5415051194    -1.5911908713    -0.0669947755
   19      C      -3.3492044813    -0.1401559603    -0.0115642871
   20      S      -1.0503589520    -3.2489443125    -0.1144409468
   21      C      -2.9542281291    -1.4615036384    -0.0482969161
   22      C      -4.7073572066     0.3611929665     0.0165784572
   23      C      -2.7296991685    -3.7450323662    -0.1073618447
   24      C      -3.6174028191    -2.7353484562    -0.0722642875
   25      N      -5.7556333896    -0.4112550928    -0.0051342451
   26      S      -5.0868920275     2.0587573238     0.0831732586
   27      C      -6.9057571545     0.3189073666     0.0315183326
   28      C      -6.7548034293     1.6650953901     0.0812308840
   29      H       8.6764404190    -0.6915551197     0.1468387739
   30      H       7.7385588231     1.3283738174    -0.9507797209
   31      H       5.2724003181     1.5956944293    -1.0667168197
   32      H       4.9475769047    -2.0951493090     1.0764669185
   33      H       3.1138448415    -2.2842702557    -0.1894502626
   34      H      -2.9559469123    -4.7992068535    -0.1318898482
   35      H      -4.6882431777    -2.8502303649    -0.0635297486
   36      H      -7.8552474468    -0.1938633225     0.0207252871
   37      H      -7.5141046636     2.4260496989     0.1199058983
 ----------------------------------------------------------------

    9   -2595.9070349289      3.73E-09 Convergence criterion met
 Total energy in the final basis set = -2595.9070349289
 Final energy is   -2595.90703492886
 **  OPTIMIZATION CONVERGED  **

                    Orbital Energies (a.u.)
 --------------------------------------------------------------

 Alpha MOs
 -- Occupied --
-89.157 -89.094 -89.093 -89.075 -14.497 -14.490 -14.452 -14.445
-14.436 -10.375 -10.370 -10.365 -10.362 -10.346 -10.341 -10.340
-10.334 -10.329 -10.328 -10.328 -10.328 -10.325 -10.322 -10.319
-10.314 -10.311 -10.301 -10.296  -8.168  -8.109  -8.109  -8.089
 -6.118  -6.112  -6.111  -6.058  -6.058  -6.055  -6.054  -6.052
 -6.052  -6.039  -6.035  -6.031  -1.155  -1.084  -1.073  -1.055
 -1.025  -1.017  -0.957  -0.945  -0.913  -0.910  -0.907  -0.887
 -0.860  -0.844  -0.830  -0.808  -0.776  -0.754  -0.745  -0.727
 -0.723  -0.696  -0.690  -0.679  -0.649  -0.640  -0.623  -0.622
 -0.610  -0.596  -0.584  -0.578  -0.570  -0.566  -0.542  -0.537
 -0.527  -0.523  -0.518  -0.515  -0.511  -0.504  -0.496  -0.491
 -0.489  -0.484  -0.476  -0.460  -0.458  -0.450  -0.439  -0.433
 -0.431  -0.425  -0.404  -0.398  -0.384  -0.373  -0.371  -0.370
 -0.361  -0.360  -0.345  -0.337  -0.327  -0.318  -0.267

          Ground-State Mulliken Net Atomic Charges

     Atom                 Charge (a.u.)
  ----------------------------------------
      1 C                    -0.074296
      2 C                    -0.102568
      3 N                    -0.153465
      4 C                    -0.129538
      5 C                    -0.121754
      6 C                     0.109692
      7 C                     0.036804
      8 C                    -0.098563
      9 C                     0.035740
     10 N                    -0.183213
     11 N                    -0.293736
     12 C                     0.030687
     13 C                     0.118651
     14 S                     0.409619
     15 N                    -0.282933
     16 C                    -0.058040
     17 S                     0.129751
     18 C                    -0.008259
     19 C                    -0.021491
     20 S                     0.094044
     21 C                     0.021465
     22 C                     0.037520
     23 C                    -0.162345
     24 C                    -0.160272
     25 N                    -0.183089
     26 S                     0.100242
     27 C                    -0.074781
     28 C                    -0.203212
     29 H                     0.123755
     30 H                     0.129096
     31 H                     0.120037
     32 H                     0.132397
     33 H                     0.133388
     34 H                     0.131682
     35 H                     0.142144
     36 H                     0.129247
     37 H                     0.145596
  ----------------------------------------
  Sum of atomic charges =     0.000000

                    Cartesian Multipole Moments
 -----------------------------------------------------------------
    Charge (ESU x 10^10)
                 0.0000
    Dipole Moment (Debye)
         X      -1.7982      Y       2.8355      Z      -0.8621
       Tot       3.4665
    Quadrupole Moments (Debye-Ang)
        XX    -166.2868     XY       7.3061     YY    -173.5907
        XZ      -7.9309     YZ      -0.1649     ZZ    -189.3824

 Total job time:  6250.29s(wall), 94595.07s(cpu)
        *  Thank you very much for using Q-Chem.  Have a nice day.  *
