 Q-Chem 4.4, Q-Chem, Inc., Pleasanton, CA (2016)
 Q-Chem 4.4.2 for Intel X86 Linux

User input:
--------------------------------------------------------------
$comment
OPTIMIZATION
$end

$rem
JOBTYPE OPT
EXCHANGE omegaB97X-D
BASIS cc-pVTZ
$end

$molecule
0 1
C          0.00000        0.00000        0.00000
C          1.38508        0.00000        0.00000
N         -0.72771       -1.11322        0.00000
C          2.04720       -1.21160       -0.00386
C         -0.08136       -2.27149       -0.00595
C          1.30925       -2.38901       -0.00649
C          1.96927       -3.70493        0.02329
C          1.79647       -4.62278       -0.97585
C          2.82560       -4.12715        1.08180
N          2.34666       -5.86043       -1.03069
N          3.16255       -3.44625        2.17876
C          3.40921       -5.43009        1.03805
C          3.13439       -6.28976       -0.07468
S          4.13263       -4.40409        3.03565
N          4.17349       -5.70671        2.09079
C          3.67125       -7.62191       -0.22578
S          4.71226       -8.42630        0.89896
C          3.42789       -8.45355       -1.29459
C          4.80781       -9.84990       -0.06333
S          2.49230       -8.29198       -2.74160
C          4.06348       -9.71871       -1.21714
C          5.57925      -11.00340        0.34959
C          2.96125       -9.90918       -3.22156
C          3.77241      -10.54464       -2.35744
N          5.65776      -12.09789       -0.35137
S          6.48781      -11.05204        1.83544
C          6.44160      -13.02415        0.26978
C          6.97876      -12.65056        1.45672
H         -0.55134        0.93273        0.00000
H          1.92494        0.93597       -0.01293
H          3.12873       -1.25416       -0.02668
H         -0.69553       -3.16348       -0.00579
H          1.17499       -4.37626       -1.82737
H          2.58334      -10.30344       -4.15213
H          4.16002      -11.54194       -2.47799
H          6.59800      -13.98674       -0.19267
H          7.61893      -13.21457        2.11210
$end

$opt
CONSTRAINT
tors 4 6 7 8 -120.00000
tors 10 13 16 17 -179.11427
tors 17 19 22 25 179.21698
ENDCONSTRAINT
$end
--------------------------------------------------------------

   16   -2595.9055199411      4.88E-09 Convergence criterion met
 Total energy in the final basis set = -2595.9055199411
   12   -2595.9059204939      5.48E-09 Convergence criterion met
 Total energy in the final basis set = -2595.9059204939
   12   -2595.9060464930      4.87E-09 Convergence criterion met
 Total energy in the final basis set = -2595.9060464930
   11   -2595.9060946584      8.05E-09 Convergence criterion met
 Total energy in the final basis set = -2595.9060946584
   11   -2595.9061133642      5.39E-09 Convergence criterion met
 Total energy in the final basis set = -2595.9061133642
   10   -2595.9061166495      5.93E-09 Convergence criterion met
 Total energy in the final basis set = -2595.9061166495

             Standard Nuclear Orientation (Angstroms)
    I     Atom           X                Y                Z
 ----------------------------------------------------------------
    1      C      -7.5978524107    -0.5166855032     0.0584230690
    2      C      -7.0127565304     0.2133011103    -0.9652293947
    3      N      -6.9034095921    -1.0997657429     1.0289934716
    4      C      -5.6375530554     0.3417730968    -0.9850453152
    5      C      -5.5827632227    -0.9663956198     1.0011292701
    6      C      -4.8907153763    -0.2580145955     0.0226058221
    7      C      -3.4172613902    -0.2078663502     0.0322745013
    8      C      -2.6458840619    -1.3354689969    -0.0016862729
    9      C      -2.6944386433     1.0178393662     0.0242556723
   10      N      -1.2887293390    -1.3744976986    -0.0097059206
   11      N      -3.1948327948     2.2542866523     0.0315850643
   12      C      -1.2677622958     0.9928408287     0.0147870273
   13      C      -0.5854709623    -0.2689466706     0.0008393240
   14      S      -1.9319000245     3.2562848689     0.0275814332
   15      N      -0.7147486405     2.2024588146     0.0168106733
   16      C       0.8528713929    -0.4048272911    -0.0080012094
   17      S       1.9769471351     0.9093999321     0.0249794200
   18      C       1.5424671493    -1.5946383457    -0.0391123627
   19      C       3.3434619992    -0.1346089507    -0.0035195386
   20      S       1.0589422351    -3.2549348112    -0.0812725619
   21      C       2.9547538936    -1.4578152951    -0.0381257992
   22      C       4.6992818533     0.3737856556     0.0114853608
   23      C       2.7408100023    -3.7423640260    -0.1003186221
   24      C       3.6238167190    -2.7282797126    -0.0746315106
   25      N       5.7512357054    -0.3938433164     0.0054338248
   26      S       5.0706151230     2.0742764905     0.0416895679
   27      C       6.8978850894     0.3425162915     0.0253848104
   28      C       6.7404723347     1.6886560613     0.0472044196
   29      H      -8.6739765218    -0.6396686173     0.1002737731
   30      H      -7.6253439312     0.6651301924    -1.7321341951
   31      H      -5.1433524987     0.8993495596    -1.7688853192
   32      H      -5.0348719732    -1.4414741070     1.8079117380
   33      H      -3.1270620967    -2.3055817621    -0.0266059872
   34      H       2.9721205842    -4.7952853477    -0.1306618784
   35      H       4.6952349279    -2.8378720024    -0.0800234476
   36      H       7.8498028031    -0.1658431616     0.0237142223
   37      H       7.4961082519     2.4539201847     0.0683970360
 ----------------------------------------------------------------

    9   -2595.9061173283      3.82E-09 Convergence criterion met
 Total energy in the final basis set = -2595.9061173283
 Final energy is   -2595.90611732834
 **  OPTIMIZATION CONVERGED  **

                    Orbital Energies (a.u.)
 --------------------------------------------------------------

 Alpha MOs
 -- Occupied --
-89.156 -89.094 -89.093 -89.075 -14.496 -14.489 -14.452 -14.445
-14.437 -10.375 -10.370 -10.363 -10.361 -10.345 -10.341 -10.340
-10.334 -10.329 -10.328 -10.328 -10.327 -10.325 -10.322 -10.318
-10.314 -10.314 -10.303 -10.296  -8.166  -8.109  -8.108  -8.089
 -6.116  -6.111  -6.110  -6.058  -6.057  -6.054  -6.054  -6.052
 -6.051  -6.039  -6.035  -6.031  -1.153  -1.084  -1.073  -1.055
 -1.024  -1.016  -0.957  -0.946  -0.912  -0.910  -0.907  -0.886
 -0.861  -0.844  -0.829  -0.807  -0.775  -0.751  -0.744  -0.731
 -0.723  -0.695  -0.690  -0.679  -0.648  -0.640  -0.623  -0.622
 -0.609  -0.595  -0.587  -0.577  -0.570  -0.569  -0.540  -0.537
 -0.526  -0.523  -0.517  -0.514  -0.511  -0.501  -0.497  -0.491
 -0.489  -0.482  -0.476  -0.462  -0.458  -0.446  -0.438  -0.432
 -0.431  -0.425  -0.404  -0.397  -0.380  -0.373  -0.372  -0.370
 -0.362  -0.354  -0.345  -0.337  -0.330  -0.321  -0.269

          Ground-State Mulliken Net Atomic Charges

     Atom                 Charge (a.u.)
  ----------------------------------------
      1 C                    -0.071389
      2 C                    -0.100980
      3 N                    -0.151563
      4 C                    -0.125364
      5 C                    -0.118879
      6 C                     0.098901
      7 C                     0.003511
      8 C                    -0.075274
      9 C                     0.021043
     10 N                    -0.180986
     11 N                    -0.270153
     12 C                     0.024723
     13 C                     0.118051
     14 S                     0.409473
     15 N                    -0.283864
     16 C                    -0.060205
     17 S                     0.130010
     18 C                    -0.007168
     19 C                    -0.021741
     20 S                     0.093644
     21 C                     0.020949
     22 C                     0.037611
     23 C                    -0.162700
     24 C                    -0.160530
     25 N                    -0.183109
     26 S                     0.100157
     27 C                    -0.074852
     28 C                    -0.203397
     29 H                     0.124521
     30 H                     0.128983
     31 H                     0.123172
     32 H                     0.135732
     33 H                     0.133049
     34 H                     0.131610
     35 H                     0.142176
     36 H                     0.129198
     37 H                     0.145641
  ----------------------------------------
  Sum of atomic charges =     0.000000

                    Cartesian Multipole Moments
 -----------------------------------------------------------------
    Charge (ESU x 10^10)
                 0.0000
    Dipole Moment (Debye)
         X       1.7417      Y       2.2068      Z      -1.6141
       Tot       3.2417
    Quadrupole Moments (Debye-Ang)
        XX    -167.2379     XY      -2.2449     YY    -174.3999
        XZ      13.0029     YZ      -0.1562     ZZ    -187.7937

 Total job time:  6256.14s(wall), 94600.83s(cpu)
        *  Thank you very much for using Q-Chem.  Have a nice day.  *
