 Q-Chem 4.4, Q-Chem, Inc., Pleasanton, CA (2016)
 Q-Chem 4.4.2 for Intel X86 Linux

User input:
--------------------------------------------------------------
$comment
OPTIMIZATION
$end

$rem
JOBTYPE OPT
EXCHANGE omegaB97X-D
BASIS cc-pVTZ
$end

$molecule
0 1
C          0.00000        0.00000        0.00000
C          1.38508        0.00000        0.00000
N         -0.72771       -1.11322        0.00000
C          2.04720       -1.21160       -0.00386
C         -0.08136       -2.27149       -0.00595
C          1.30925       -2.38901       -0.00649
C          1.96927       -3.70493        0.02329
C          3.28890       -3.84412        0.35462
C          1.29971       -4.92354       -0.29085
N          3.98643       -5.00571        0.39547
N          0.02543       -5.08380       -0.65281
C          2.02381       -6.15421       -0.25488
C          3.41000       -6.14741        0.10730
S         -0.18732       -6.65998       -0.90412
N          1.28967       -7.21363       -0.58288
C          4.23769       -7.32861        0.18048
S          3.72687       -8.94473       -0.17021
C          5.56578       -7.33975        0.54002
C          5.27917       -9.60834        0.16412
S          6.68566       -6.10401        1.00270
C          6.16987       -8.62258        0.53484
C          5.54903      -11.02553        0.04186
C          7.93982       -7.31244        1.18268
C          7.55541       -8.57316        0.91562
N          6.71666      -11.55262        0.27473
S          4.33620      -12.18256       -0.43345
C          6.69499      -12.90139        0.07841
C          5.50688      -13.42868       -0.30541
H         -0.55134        0.93273        0.00000
H          1.92494        0.93597       -0.01293
H          3.12873       -1.25416       -0.02668
H         -0.69553       -3.16348       -0.00579
H          3.86802       -2.97005        0.62432
H          8.92632       -6.99451        1.48258
H          8.18484       -9.44529        0.96639
H          7.59515      -13.47703        0.23095
H          5.26354      -14.45541       -0.51528
$end

$opt
CONSTRAINT
tors 4 6 7 8 15.00000
tors 10 13 16 17 -179.11427
tors 17 19 22 25 179.21698
ENDCONSTRAINT
$end
--------------------------------------------------------------

   16   -2595.9034653550      5.20E-09 Convergence criterion met
 Total energy in the final basis set = -2595.9034653550
   13   -2595.9038956858      4.76E-09 Convergence criterion met
 Total energy in the final basis set = -2595.9038956858
   12   -2595.9045662100      6.83E-09 Convergence criterion met
 Total energy in the final basis set = -2595.9045662100
   10   -2595.9046220284      9.81E-09 Convergence criterion met
 Total energy in the final basis set = -2595.9046220284
   10   -2595.9046435022      6.44E-09 Convergence criterion met
 Total energy in the final basis set = -2595.9046435022
   11   -2595.9046591161      4.52E-09 Convergence criterion met
 Total energy in the final basis set = -2595.9046591161

             Standard Nuclear Orientation (Angstroms)
    I     Atom           X                Y                Z
 ----------------------------------------------------------------
    1      C       7.6361491926     0.3977174828    -0.0176938104
    2      C       6.9261210226     1.5220988508     0.3707138816
    3      N       7.0495103357    -0.7361050109    -0.3794953561
    4      C       5.5478513228     1.4605253657     0.3892206810
    5      C       5.7222066822    -0.7847067967    -0.3598132829
    6      C       4.9004922819     0.2786463039     0.0278478542
    7      C       3.4264856066     0.1931096223    -0.0313197401
    8      C       2.6353786543     1.3142488065    -0.0354067817
    9      C       2.6910357593    -1.0342378999    -0.0046784855
   10      N       1.2821669841     1.3588087483    -0.0361394152
   11      N       3.1669063817    -2.2805055901     0.0422933581
   12      C       1.2606801949    -1.0006455404    -0.0031688342
   13      C       0.5752841764     0.2558432371    -0.0209144090
   14      S       1.8972364842    -3.2692839208     0.0741901484
   15      N       0.6948063454    -2.2029149644     0.0366288704
   16      C      -0.8615753683     0.3948490276    -0.0191015241
   17      S      -1.9901588294    -0.9153956538     0.0215406381
   18      C      -1.5476273171     1.5873243113    -0.0480843137
   19      C      -3.3530695361     0.1333550610    -0.0007566223
   20      S      -1.0592596856     3.2459646793    -0.0960034897
   21      C      -2.9601258354     1.4553277212    -0.0391609666
   22      C      -4.7106026471    -0.3698820160     0.0234950240
   23      C      -2.7395689094     3.7390994235    -0.1070120266
   24      C      -3.6254309455     2.7277476443    -0.0743193528
   25      N      -5.7596990098     0.4018599991     0.0222775066
   26      S      -5.0881817953    -2.0686969537     0.0601541974
   27      C      -6.9089117035    -0.3300689380     0.0513153513
   28      C      -6.7563480778    -1.6768037148     0.0754979982
   29      H       8.7198449456     0.4084351921    -0.0401183152
   30      H       7.4440367302     2.4250613060     0.6608880515
   31      H       4.9864545516     2.3231116255     0.7189059911
   32      H       5.2842221797    -1.7206698636    -0.6725599935
   33      H       3.0954098771     2.2922266930    -0.0698596028
   34      H      -2.9674957276     4.7926960766    -0.1389784939
   35      H      -4.6965089964     2.8407898602    -0.0744699807
   36      H      -7.8588453449     0.1819704173     0.0543591111
   37      H      -7.5146800362    -2.4391827096     0.1035819798
 ----------------------------------------------------------------

    9   -2595.9046600586      4.17E-09 Convergence criterion met
 Total energy in the final basis set = -2595.9046600586
 Final energy is   -2595.90466005858
 **  OPTIMIZATION CONVERGED  **

                    Orbital Energies (a.u.)
 --------------------------------------------------------------

 Alpha MOs
 -- Occupied --
-89.156 -89.095 -89.093 -89.076 -14.496 -14.489 -14.453 -14.446
-14.434 -10.375 -10.370 -10.365 -10.361 -10.346 -10.341 -10.341
-10.335 -10.330 -10.329 -10.328 -10.325 -10.323 -10.323 -10.320
-10.314 -10.314 -10.302 -10.296  -8.167  -8.109  -8.109  -8.090
 -6.117  -6.111  -6.110  -6.058  -6.058  -6.055  -6.054  -6.052
 -6.052  -6.040  -6.036  -6.032  -1.154  -1.084  -1.074  -1.053
 -1.025  -1.016  -0.957  -0.945  -0.913  -0.911  -0.907  -0.884
 -0.862  -0.845  -0.830  -0.808  -0.776  -0.755  -0.745  -0.725
 -0.724  -0.695  -0.689  -0.679  -0.649  -0.641  -0.625  -0.621
 -0.609  -0.596  -0.581  -0.578  -0.570  -0.564  -0.542  -0.537
 -0.527  -0.524  -0.518  -0.515  -0.512  -0.505  -0.496  -0.491
 -0.489  -0.480  -0.478  -0.465  -0.458  -0.451  -0.438  -0.434
 -0.430  -0.421  -0.401  -0.399  -0.385  -0.372  -0.372  -0.370
 -0.364  -0.359  -0.340  -0.337  -0.326  -0.317  -0.267

          Ground-State Mulliken Net Atomic Charges

     Atom                 Charge (a.u.)
  ----------------------------------------
      1 C                    -0.078180
      2 C                    -0.103110
      3 N                    -0.157606
      4 C                    -0.147389
      5 C                    -0.098180
      6 C                     0.102488
      7 C                     0.032492
      8 C                    -0.096610
      9 C                     0.046651
     10 N                    -0.187438
     11 N                    -0.291441
     12 C                     0.033681
     13 C                     0.117094
     14 S                     0.410828
     15 N                    -0.283835
     16 C                    -0.054637
     17 S                     0.131046
     18 C                    -0.009614
     19 C                    -0.021405
     20 S                     0.091287
     21 C                     0.021660
     22 C                     0.037439
     23 C                    -0.162294
     24 C                    -0.160172
     25 N                    -0.183278
     26 S                     0.100947
     27 C                    -0.074810
     28 C                    -0.203186
     29 H                     0.123488
     30 H                     0.128823
     31 H                     0.122223
     32 H                     0.136213
     33 H                     0.128226
     34 H                     0.131440
     35 H                     0.142224
     36 H                     0.129195
     37 H                     0.145741
  ----------------------------------------
  Sum of atomic charges =     0.000000

                    Cartesian Multipole Moments
 -----------------------------------------------------------------
    Charge (ESU x 10^10)
                 0.0000
    Dipole Moment (Debye)
         X      -2.1070      Y       0.4251      Z       0.6247
       Tot       2.2384
    Quadrupole Moments (Debye-Ang)
        XX    -170.8155     XY      19.3560     YY    -169.6556
        XZ       4.3918     YZ       0.6975     ZZ    -189.6968

 Total job time:  6356.97s(wall), 96225.02s(cpu)
        *  Thank you very much for using Q-Chem.  Have a nice day.  *
