 Q-Chem 4.4, Q-Chem, Inc., Pleasanton, CA (2016)
 Q-Chem 4.4.2 for Intel X86 Linux

User input:
--------------------------------------------------------------
$comment
OPTIMIZATION
$end

$rem
JOBTYPE OPT
EXCHANGE omegaB97X-D
BASIS cc-pVTZ
$end

$molecule
0 1
C          0.00000        0.00000        0.00000
C          1.38508        0.00000        0.00000
N         -0.72771       -1.11322        0.00000
C          2.04720       -1.21160       -0.00386
C         -0.08136       -2.27149       -0.00595
C          1.30925       -2.38901       -0.00649
C          1.96927       -3.70493        0.02329
C          3.33088       -3.82985        0.05475
C          1.25544       -4.93879        0.01664
N          4.02865       -4.99193        0.06855
N         -0.06664       -5.11565       -0.01995
C          1.97851       -6.17054        0.02765
C          3.41078       -6.14817        0.05650
S         -0.31853       -6.70600       -0.02973
N          1.19731       -7.24667        0.00397
C          4.24282       -7.32845        0.07376
S          3.67829       -8.96431        0.04149
C          5.61812       -7.32310        0.11557
C          5.27134       -9.61410        0.08327
S          6.80428       -6.06360        0.15969
C          6.21535       -8.60914        0.12064
C          5.51746      -11.04077        0.06812
C          8.07614       -7.26665        0.18477
C          7.65095       -8.54228        0.16263
N          6.71167      -11.55942        0.08481
S          4.23730      -12.22180        0.02409
C          6.65647      -12.92118        0.05749
C          5.41625      -13.46671        0.02268
H         -0.55134        0.93273        0.00000
H          1.92494        0.93597       -0.01293
H          3.12873       -1.25416       -0.02668
H         -0.69553       -3.16348       -0.00579
H          3.94934       -2.94160        0.07954
H          9.10257       -6.93493        0.20950
H          8.28234       -9.41446        0.16800
H          7.57229      -13.49227        0.06404
H          5.13957      -14.50602       -0.00408
$end

$opt
CONSTRAINT
tors 4 6 7 8 0.00000
tors 10 13 16 17 -179.11427
tors 17 19 22 25 179.21698
ENDCONSTRAINT
$end
--------------------------------------------------------------

   16   -2595.9015255716      5.70E-09 Convergence criterion met
 Total energy in the final basis set = -2595.9015255716
   13   -2595.9014976520      6.62E-09 Convergence criterion met
 Total energy in the final basis set = -2595.9014976520
   12   -2595.9031614645      9.47E-09 Convergence criterion met
 Total energy in the final basis set = -2595.9031614645
   11   -2595.9032711780      7.58E-09 Convergence criterion met
 Total energy in the final basis set = -2595.9032711780
   10   -2595.9033399365      8.88E-09 Convergence criterion met
 Total energy in the final basis set = -2595.9033399365
    9   -2595.9033440843      5.43E-09 Convergence criterion met
 Total energy in the final basis set = -2595.9033440843
   10   -2595.9033478801      4.99E-09 Convergence criterion met
 Total energy in the final basis set = -2595.9033478801

             Standard Nuclear Orientation (Angstroms)
    I     Atom           X                Y                Z
 ----------------------------------------------------------------
    1      C       7.6497826776     0.3948378156     0.0226323321
    2      C       6.9344722113     1.5813346367     0.0279789240
    3      N       7.0656479139    -0.7949315144     0.0110146160
    4      C       5.5569631250     1.5243050731     0.0213187787
    5      C       5.7366848052    -0.8395721958     0.0047765878
    6      C       4.9072989727     0.2877095767     0.0097874374
    7      C       3.4284100785     0.1880176491     0.0030239889
    8      C       2.6305141638     1.3058280425     0.0077828979
    9      C       2.6895826364    -1.0406251376    -0.0062744154
   10      N       1.2778733842     1.3522532307     0.0049893817
   11      N       3.1557988273    -2.2917595227    -0.0129139202
   12      C       1.2575668728    -1.0044293299    -0.0106316392
   13      C       0.5704095643     0.2501595523    -0.0042341278
   14      S       1.8839860416    -3.2771962584    -0.0233394409
   15      N       0.6873044106    -2.2047633269    -0.0203616064
   16      C      -0.8661246327     0.3895943270    -0.0052704824
   17      S      -1.9964762815    -0.9197396505     0.0051878437
   18      C      -1.5507602307     1.5833936988    -0.0059779624
   19      C      -3.3579844901     0.1310408095     0.0044940222
   20      S      -1.0603239044     3.2420802394    -0.0109152463
   21      C      -2.9633719306     1.4530766795    -0.0013875131
   22      C      -4.7161972436    -0.3709593904     0.0104264362
   23      C      -2.7399656102     3.7375523980    -0.0091384609
   24      C      -3.6271133893     2.7268300223    -0.0037433452
   25      N      -5.7644326081     0.4018064976     0.0249199508
   26      S      -5.0958370357    -2.0697072031    -0.0006382885
   27      C      -6.9145677739    -0.3291855286     0.0275470141
   28      C      -6.7636020015    -1.6762813697     0.0156022090
   29      H       8.7337814876     0.4013651889     0.0277203229
   30      H       7.4485225787     2.5318102500     0.0363574325
   31      H       5.0035516265     2.4511659665     0.0246857251
   32      H       5.3040568681    -1.8272472320    -0.0046138991
   33      H       3.0817727565     2.2870320441     0.0149571834
   34      H      -2.9666260159     4.7919125081    -0.0115425099
   35      H      -4.6980418799     2.8411750975    -0.0005508452
   36      H      -7.8639913892     0.1836985104     0.0382860356
   37      H      -7.5229716069    -2.4381339020     0.0152435164
 ----------------------------------------------------------------

    8   -2595.9033482920      8.55E-09 Convergence criterion met
 Total energy in the final basis set = -2595.9033482920
 Final energy is   -2595.90334829196
 **  OPTIMIZATION CONVERGED  **

                    Orbital Energies (a.u.)
 --------------------------------------------------------------

 Alpha MOs
 -- Occupied --
-89.157 -89.095 -89.093 -89.076 -14.496 -14.489 -14.453 -14.446
-14.433 -10.375 -10.370 -10.366 -10.361 -10.346 -10.342 -10.341
-10.335 -10.331 -10.329 -10.328 -10.324 -10.323 -10.321 -10.320
-10.314 -10.314 -10.301 -10.297  -8.167  -8.109  -8.109  -8.090
 -6.117  -6.111  -6.111  -6.059  -6.058  -6.055  -6.054  -6.052
 -6.052  -6.040  -6.036  -6.032  -1.154  -1.084  -1.074  -1.052
 -1.025  -1.017  -0.958  -0.945  -0.913  -0.912  -0.907  -0.883
 -0.861  -0.845  -0.830  -0.808  -0.777  -0.755  -0.745  -0.725
 -0.724  -0.696  -0.690  -0.679  -0.649  -0.641  -0.625  -0.620
 -0.609  -0.596  -0.581  -0.578  -0.571  -0.562  -0.542  -0.537
 -0.527  -0.524  -0.518  -0.515  -0.512  -0.506  -0.496  -0.491
 -0.489  -0.480  -0.477  -0.466  -0.458  -0.452  -0.439  -0.434
 -0.431  -0.420  -0.400  -0.400  -0.386  -0.372  -0.372  -0.371
 -0.364  -0.358  -0.338  -0.338  -0.326  -0.316  -0.267

          Ground-State Mulliken Net Atomic Charges

     Atom                 Charge (a.u.)
  ----------------------------------------
      1 C                    -0.079336
      2 C                    -0.102578
      3 N                    -0.156861
      4 C                    -0.146040
      5 C                    -0.117514
      6 C                     0.105762
      7 C                     0.046277
      8 C                    -0.094397
      9 C                     0.051258
     10 N                    -0.191651
     11 N                    -0.289639
     12 C                     0.030774
     13 C                     0.111582
     14 S                     0.407042
     15 N                    -0.283016
     16 C                    -0.051894
     17 S                     0.130912
     18 C                    -0.008952
     19 C                    -0.020763
     20 S                     0.091504
     21 C                     0.020824
     22 C                     0.037295
     23 C                    -0.162117
     24 C                    -0.159902
     25 N                    -0.183251
     26 S                     0.101071
     27 C                    -0.074740
     28 C                    -0.203180
     29 H                     0.122687
     30 H                     0.127275
     31 H                     0.119546
     32 H                     0.144180
     33 H                     0.129093
     34 H                     0.131493
     35 H                     0.142158
     36 H                     0.129239
     37 H                     0.145858
  ----------------------------------------
  Sum of atomic charges =     0.000000

                    Cartesian Multipole Moments
 -----------------------------------------------------------------
    Charge (ESU x 10^10)
                 0.0000
    Dipole Moment (Debye)
         X      -2.2282      Y       0.5104      Z       0.0005
       Tot       2.2859
    Quadrupole Moments (Debye-Ang)
        XX    -171.4064     XY      20.1544     YY    -169.1101
        XZ       0.0783     YZ       0.0529     ZZ    -190.0657

 Total job time:  7137.19s(wall), 108110.97s(cpu)
        *  Thank you very much for using Q-Chem.  Have a nice day.  *
