 Q-Chem 4.4, Q-Chem, Inc., Pleasanton, CA (2016)
 Q-Chem 4.4.2 for Intel X86 Linux

User input:
--------------------------------------------------------------
$comment
OPTIMIZATION
$end

$rem
JOBTYPE OPT
EXCHANGE omegaB97X-D
BASIS cc-pVTZ
$end

$molecule
0 1
C          0.00000        0.00000        0.00000
C          1.38508        0.00000        0.00000
N         -0.72771       -1.11322        0.00000
C          2.04720       -1.21160       -0.00386
C         -0.08136       -2.27149       -0.00595
C          1.30925       -2.38901       -0.00649
C          1.96927       -3.70493        0.02329
C          1.28419       -4.85034        0.32209
C          3.35639       -3.89101       -0.24742
N          1.80410       -6.10042        0.38908
N          4.25922       -2.95809       -0.55571
C          3.91768       -5.20255       -0.17705
C          3.07605       -6.31385        0.15373
S          5.66589       -3.72045       -0.73701
N          5.22187       -5.23805       -0.43541
C          3.53300       -7.68050        0.24937
S          5.15903       -8.22238        0.00822
C          2.73462       -8.75947        0.55207
C          4.75570       -9.86753        0.31248
S          1.04951       -8.93307        0.90635
C          3.41207      -10.00448        0.59247
C          5.74941      -10.91977        0.27361
C          1.27173      -10.65872        1.10218
C          2.53047      -11.09350        0.91496
N          5.47520      -12.16989        0.51326
S          7.42598      -10.62525       -0.09787
C          6.59209      -12.94535        0.41630
C          7.74007      -12.29949        0.09701
H         -0.55134        0.93273        0.00000
H          1.92494        0.93597       -0.01293
H          3.12873       -1.25416       -0.02668
H         -0.69553       -3.16348       -0.00579
H          0.22163       -4.80122        0.52371
H          0.41745      -11.26500        1.36072
H          2.86026      -12.11520        0.99689
H          6.52054      -14.00783        0.59217
H          8.72767      -12.70695       -0.02972
$end

$opt
CONSTRAINT
tors 4 6 7 8 165.00000
tors 10 13 16 17 -179.11427
tors 17 19 22 25 179.21698
ENDCONSTRAINT
$end
--------------------------------------------------------------

   16   -2595.9036010309      6.01E-09 Convergence criterion met
 Total energy in the final basis set = -2595.9036010309
   13   -2595.9042063721      4.85E-09 Convergence criterion met
 Total energy in the final basis set = -2595.9042063721
   12   -2595.9050816027      8.40E-09 Convergence criterion met
 Total energy in the final basis set = -2595.9050816027
   11   -2595.9052035958      9.29E-09 Convergence criterion met
 Total energy in the final basis set = -2595.9052035958
   11   -2595.9052614205      7.33E-09 Convergence criterion met
 Total energy in the final basis set = -2595.9052614205
   12   -2595.9053017773      5.13E-09 Convergence criterion met
 Total energy in the final basis set = -2595.9053017773
   10   -2595.9053067714      5.86E-09 Convergence criterion met
 Total energy in the final basis set = -2595.9053067714
    9   -2595.9053098079      8.54E-09 Convergence criterion met
 Total energy in the final basis set = -2595.9053098079

             Standard Nuclear Orientation (Angstroms)
    I     Atom           X                Y                Z
 ----------------------------------------------------------------
    1      C       7.6162098387    -0.5499164050     0.1318831789
    2      C       7.0988324818     0.6723264659    -0.2569834591
    3      N       6.8506039819    -1.5919038206     0.4419119727
    4      C       5.7271345008     0.8199860646    -0.3498351633
    5      C       5.5382379220    -1.4379774975     0.3546091750
    6      C       4.8996956599    -0.2645975915    -0.0628460282
    7      C       3.4254626550    -0.1842598419    -0.1147597871
    8      C       2.6358873653    -1.3070025581    -0.1292594818
    9      C       2.6888969173     1.0418097266    -0.0736260673
   10      N       1.2826700911    -1.3524899902    -0.1123506364
   11      N       3.1630405243     2.2894923994    -0.0344200648
   12      C       1.2585132779     1.0063308465    -0.0518204063
   13      C       0.5745334028    -0.2512832069    -0.0700511563
   14      S       1.8918219005     3.2767991214     0.0180709173
   15      N       0.6917846325     2.2075507062    -0.0015421343
   16      C      -0.8617310868    -0.3929006630    -0.0467607429
   17      S      -1.9933790674     0.9150176371    -0.0129065537
   18      C      -1.5450298009    -1.5872845999    -0.0615498385
   19      C      -3.3537419313    -0.1374363679    -0.0111553746
   20      S      -1.0527408462    -3.2448095789    -0.1015962088
   21      C      -2.9577604036    -1.4586808833    -0.0410001278
   22      C      -4.7121399277     0.3628317145     0.0229858417
   23      C      -2.7316256003    -3.7422440582    -0.0895095916
   24      C      -3.6200457550    -2.7331084472    -0.0572760681
   25      N      -5.7598441931    -0.4106000593     0.0102324674
   26      S      -5.0927349786     2.0601154609     0.0900942377
   27      C      -6.9103184244     0.3185265873     0.0540256280
   28      C      -6.7602175451     1.6649561617     0.1006906596
   29      H       8.6865856333    -0.7012416633     0.2093122724
   30      H       7.7596582672     1.4969267936    -0.4831352299
   31      H       5.3036228594     1.7637181025    -0.6532999540
   32      H       4.9564450677    -2.2994361884     0.6583686855
   33      H       3.0963463730    -2.2835385639    -0.1847859657
   34      H      -2.9570269156    -4.7966980500    -0.1092950473
   35      H      -4.6907954134    -2.8486551886    -0.0464012106
   36      H      -7.8593672076    -0.1951554567     0.0506268553
   37      H      -7.5199099631     2.4252559448     0.1443691638
 ----------------------------------------------------------------

    9   -2595.9053103887      5.74E-09 Convergence criterion met
 Total energy in the final basis set = -2595.9053103887
 Final energy is   -2595.90531038867
 **  OPTIMIZATION CONVERGED  **

                    Orbital Energies (a.u.)
 --------------------------------------------------------------

 Alpha MOs
 -- Occupied --
-89.158 -89.095 -89.093 -89.075 -14.497 -14.490 -14.453 -14.446
-14.436 -10.375 -10.370 -10.366 -10.362 -10.346 -10.341 -10.341
-10.335 -10.330 -10.329 -10.328 -10.328 -10.324 -10.322 -10.320
-10.314 -10.308 -10.300 -10.296  -8.168  -8.109  -8.109  -8.090
 -6.118  -6.113  -6.112  -6.059  -6.058  -6.055  -6.054  -6.052
 -6.052  -6.039  -6.035  -6.032  -1.155  -1.084  -1.074  -1.054
 -1.025  -1.018  -0.957  -0.945  -0.913  -0.911  -0.906  -0.887
 -0.860  -0.845  -0.830  -0.808  -0.777  -0.755  -0.745  -0.726
 -0.723  -0.696  -0.690  -0.679  -0.650  -0.640  -0.623  -0.621
 -0.610  -0.597  -0.582  -0.579  -0.570  -0.564  -0.544  -0.537
 -0.527  -0.524  -0.518  -0.515  -0.511  -0.505  -0.495  -0.491
 -0.489  -0.485  -0.476  -0.459  -0.458  -0.452  -0.440  -0.434
 -0.432  -0.425  -0.403  -0.399  -0.385  -0.373  -0.371  -0.370
 -0.361  -0.361  -0.343  -0.337  -0.326  -0.317  -0.267

          Ground-State Mulliken Net Atomic Charges

     Atom                 Charge (a.u.)
  ----------------------------------------
      1 C                    -0.077718
      2 C                    -0.102857
      3 N                    -0.154750
      4 C                    -0.137193
      5 C                    -0.115832
      6 C                     0.104217
      7 C                     0.041625
      8 C                    -0.093703
      9 C                     0.044352
     10 N                    -0.185819
     11 N                    -0.298637
     12 C                     0.031366
     13 C                     0.118369
     14 S                     0.406856
     15 N                    -0.282431
     16 C                    -0.056261
     17 S                     0.129683
     18 C                    -0.008719
     19 C                    -0.021052
     20 S                     0.094289
     21 C                     0.021444
     22 C                     0.037426
     23 C                    -0.162099
     24 C                    -0.160121
     25 N                    -0.183036
     26 S                     0.100393
     27 C                    -0.074718
     28 C                    -0.203052
     29 H                     0.123195
     30 H                     0.128710
     31 H                     0.126759
     32 H                     0.129230
     33 H                     0.131251
     34 H                     0.131743
     35 H                     0.142171
     36 H                     0.129300
     37 H                     0.145617
  ----------------------------------------
  Sum of atomic charges =     0.000000

                    Cartesian Multipole Moments
 -----------------------------------------------------------------
    Charge (ESU x 10^10)
                 0.0000
    Dipole Moment (Debye)
         X      -1.9244      Y       2.9909      Z      -0.4773
       Tot       3.5884
    Quadrupole Moments (Debye-Ang)
        XX    -166.7272     XY       8.5758     YY    -173.1820
        XZ      -4.8849     YZ       0.1466     ZZ    -189.8999

 Total job time:  8126.69s(wall), 123028.86s(cpu)
        *  Thank you very much for using Q-Chem.  Have a nice day.  *
