 Q-Chem 4.4, Q-Chem, Inc., Pleasanton, CA (2016)
 Q-Chem 4.4.2 for Intel X86 Linux

User input:
--------------------------------------------------------------
$comment
OPTIMIZATION
$end

$rem
JOBTYPE OPT
EXCHANGE omegaB97X-D
BASIS cc-pVTZ
$end

$molecule
0 1
C          0.00000        0.00000        0.00000
C          1.38508        0.00000        0.00000
N         -0.72771       -1.11322        0.00000
C          2.04720       -1.21160       -0.00386
C         -0.08136       -2.27149       -0.00595
C          1.30925       -2.38901       -0.00649
C          1.96927       -3.70493        0.02329
C          2.04931       -4.49850       -1.08776
C          2.56575       -4.25491        1.19535
N          2.62055       -5.72590       -1.15612
N          2.62727       -3.70946        2.41158
C          3.16817       -5.54872        1.13792
C          3.17411       -6.27041       -0.09977
S          3.39109       -4.76883        3.35343
N          3.67370       -5.95265        2.29990
C          3.75641       -7.58031       -0.27510
S          4.52446       -8.51912        0.95961
C          3.78228       -8.27954       -1.45985
C          4.86657       -9.82153       -0.11206
S          3.20335       -7.94245       -3.05561
C          4.40656       -9.55041       -1.38382
C          5.54341      -11.02177        0.33237
C          3.80095       -9.49652       -3.59724
C          4.40242      -10.23524       -2.64801
N          5.80237      -12.02766       -0.45284
S          6.08493      -11.25101        1.97243
C          6.43888      -13.02660        0.22182
C          6.68018      -12.79852        1.53586
H         -0.55134        0.93273        0.00000
H          1.92494        0.93597       -0.01293
H          3.12873       -1.25416       -0.02668
H         -0.69553       -3.16348       -0.00579
H          1.63678       -4.14913       -2.02577
H          3.65572       -9.77637       -4.62913
H          4.82615      -11.21489       -2.78976
H          6.71603      -13.92997       -0.29973
H          7.16219      -13.44049        2.25210
$end

$opt
CONSTRAINT
tors 4 6 7 8 -105.00000
tors 10 13 16 17 -179.11427
tors 17 19 22 25 179.21698
ENDCONSTRAINT
$end
--------------------------------------------------------------

   16   -2595.9039614937      4.84E-09 Convergence criterion met
 Total energy in the final basis set = -2595.9039614937
   12   -2595.9043841370      5.64E-09 Convergence criterion met
 Total energy in the final basis set = -2595.9043841370
   12   -2595.9044890541      3.96E-09 Convergence criterion met
 Total energy in the final basis set = -2595.9044890541
   11   -2595.9045353504      8.58E-09 Convergence criterion met
 Total energy in the final basis set = -2595.9045353504
   11   -2595.9045619119      7.10E-09 Convergence criterion met
 Total energy in the final basis set = -2595.9045619119
   10   -2595.9045673867      7.19E-09 Convergence criterion met
 Total energy in the final basis set = -2595.9045673867

             Standard Nuclear Orientation (Angstroms)
    I     Atom           X                Y                Z
 ----------------------------------------------------------------
    1      C      -7.5999910400    -0.4808758432     0.1054490445
    2      C      -7.0082258631    -0.0562545860    -1.0742104697
    3      N      -6.9117309308    -0.7921243504     1.1980034463
    4      C      -5.6310014586     0.0504505330    -1.1223709949
    5      C      -5.5898701484    -0.6831009679     1.1392737403
    6      C      -4.8919046128    -0.2635300081     0.0111170751
    7      C      -3.4143510507    -0.2164702203     0.0149453275
    8      C      -2.6437277186    -1.3430267019    -0.0152963950
    9      C      -2.6948425560     1.0098216183     0.0003722422
   10      N      -1.2856023361    -1.3799034708    -0.0251064261
   11      N      -3.1993691118     2.2445142252     0.0020830645
   12      C      -1.2683024714     0.9880453110    -0.0159780932
   13      C      -0.5845085668    -0.2731436538    -0.0230368735
   14      S      -1.9389289603     3.2494544363    -0.0149771645
   15      N      -0.7182913291     2.1990436395    -0.0250986527
   16      C       0.8543362696    -0.4073008892    -0.0254443494
   17      S       1.9767759931     0.9083899869    -0.0015279957
   18      C       1.5451251957    -1.5967146261    -0.0310818884
   19      C       3.3444348007    -0.1345218922    -0.0034607752
   20      S       1.0632794632    -3.2580236085    -0.0460270916
   21      C       2.9572429105    -1.4585244478    -0.0193934240
   22      C       4.6997947799     0.3752486424     0.0112197835
   23      C       2.7456807347    -3.7440919608    -0.0390738983
   24      C       3.6276071937    -2.7288379905    -0.0250270106
   25      N       5.7522779920    -0.3915438046     0.0249898969
   26      S       5.0698118165     2.0762822366     0.0119752324
   27      C       6.8983284584     0.3459344611     0.0369489423
   28      C       6.7398868630     1.6921105970     0.0326784762
   29      H      -8.6772946004    -0.5782559422     0.1755188204
   30      H      -7.6174617547     0.1802704323    -1.9347854708
   31      H      -5.1311004890     0.3788236011    -2.0238777435
   32      H      -5.0438633774    -0.9412814078     2.0402707772
   33      H      -3.1239550251    -2.3137901506    -0.0274725777
   34      H       2.9782015479    -4.7971781490    -0.0449112482
   35      H       4.6990660564    -2.8377220159    -0.0169155499
   36      H       7.8505730774    -0.1616865179     0.0487066699
   37      H       7.4949191908     2.4582057092     0.0413871255
 ----------------------------------------------------------------

    9   -2595.9045683031      3.84E-09 Convergence criterion met
 Total energy in the final basis set = -2595.9045683031
 Final energy is   -2595.90456830310
 **  OPTIMIZATION CONVERGED  **

                    Orbital Energies (a.u.)
 --------------------------------------------------------------

 Alpha MOs
 -- Occupied --
-89.156 -89.094 -89.093 -89.075 -14.495 -14.488 -14.452 -14.445
-14.437 -10.375 -10.370 -10.362 -10.360 -10.345 -10.341 -10.340
-10.334 -10.329 -10.328 -10.327 -10.327 -10.324 -10.322 -10.318
-10.315 -10.314 -10.303 -10.296  -8.166  -8.109  -8.108  -8.089
 -6.116  -6.110  -6.109  -6.058  -6.057  -6.054  -6.054  -6.052
 -6.051  -6.039  -6.035  -6.031  -1.153  -1.084  -1.072  -1.055
 -1.024  -1.015  -0.957  -0.945  -0.912  -0.909  -0.908  -0.885
 -0.861  -0.844  -0.829  -0.807  -0.775  -0.749  -0.743  -0.733
 -0.723  -0.695  -0.690  -0.678  -0.648  -0.640  -0.623  -0.621
 -0.609  -0.595  -0.588  -0.576  -0.571  -0.569  -0.540  -0.536
 -0.526  -0.523  -0.518  -0.514  -0.511  -0.500  -0.497  -0.491
 -0.489  -0.481  -0.476  -0.462  -0.458  -0.445  -0.437  -0.432
 -0.431  -0.424  -0.403  -0.396  -0.378  -0.374  -0.371  -0.370
 -0.362  -0.350  -0.345  -0.337  -0.333  -0.322  -0.269

          Ground-State Mulliken Net Atomic Charges

     Atom                 Charge (a.u.)
  ----------------------------------------
      1 C                    -0.070656
      2 C                    -0.098684
      3 N                    -0.151365
      4 C                    -0.113648
      5 C                    -0.098068
      6 C                     0.072185
      7 C                    -0.036045
      8 C                    -0.057136
      9 C                     0.033465
     10 N                    -0.180395
     11 N                    -0.264381
     12 C                     0.027182
     13 C                     0.118180
     14 S                     0.409220
     15 N                    -0.284033
     16 C                    -0.060293
     17 S                     0.130201
     18 C                    -0.006931
     19 C                    -0.021884
     20 S                     0.093385
     21 C                     0.020909
     22 C                     0.037609
     23 C                    -0.162827
     24 C                    -0.160535
     25 N                    -0.183107
     26 S                     0.100260
     27 C                    -0.074880
     28 C                    -0.203436
     29 H                     0.124255
     30 H                     0.129502
     31 H                     0.123313
     32 H                     0.131821
     33 H                     0.128237
     34 H                     0.131598
     35 H                     0.142132
     36 H                     0.129182
     37 H                     0.145670
  ----------------------------------------
  Sum of atomic charges =     0.000000

                    Cartesian Multipole Moments
 -----------------------------------------------------------------
    Charge (ESU x 10^10)
                 0.0000
    Dipole Moment (Debye)
         X       1.7249      Y       1.7364      Z      -1.8289
       Tot       3.0554
    Quadrupole Moments (Debye-Ang)
        XX    -167.2867     XY       1.4729     YY    -174.5112
        XZ      14.7022     YZ       0.1336     ZZ    -187.3123

 Total job time:  5890.04s(wall), 88128.16s(cpu)
        *  Thank you very much for using Q-Chem.  Have a nice day.  *
