 Q-Chem 4.4, Q-Chem, Inc., Pleasanton, CA (2016)
 Q-Chem 4.4.2 for Intel X86 Linux

User input:
--------------------------------------------------------------
$comment
OPTIMIZATION
$end

$rem
JOBTYPE OPT
EXCHANGE omegaB97X-D
BASIS cc-pVTZ
$end

$molecule
0 1
C          0.00000        0.00000        0.00000
C          1.38508        0.00000        0.00000
N         -0.72771       -1.11322        0.00000
C          2.04720       -1.21160       -0.00386
C         -0.08136       -2.27149       -0.00595
C          1.30925       -2.38901       -0.00649
C          1.96927       -3.70493        0.02329
C          1.29744       -4.85730       -0.27882
C          3.34039       -3.88508        0.36909
N          1.81157       -6.11148       -0.26499
N          4.22445       -2.94680        0.71344
C          3.89388       -5.20164        0.39076
C          3.06584       -6.32124        0.05377
S          5.60994       -3.70880        1.01767
N          5.17585       -5.23445        0.74348
C          3.51841       -7.69259        0.03836
S          5.11239       -8.23605        0.43793
C          2.73943       -8.77626       -0.29640
C          4.72158       -9.88819        0.15600
S          1.08791       -8.95204       -0.78308
C          3.40576      -10.02635       -0.23389
C          5.69335      -10.94652        0.33429
C          1.30914      -10.68519       -0.89649
C          2.54428      -11.12065       -0.59103
N          5.42142      -12.20527        0.14184
S          7.33718      -10.64881        0.82906
C          6.51141      -12.98649        0.38638
C          7.63758      -12.33572        0.76740
H         -0.55134        0.93273        0.00000
H          1.92494        0.93597       -0.01293
H          3.12873       -1.25416       -0.02668
H         -0.69553       -3.16348       -0.00579
H          0.25565       -4.80889       -0.56939
H          0.46977      -11.29647       -1.18975
H          2.86742      -12.14772       -0.59882
H          6.43692      -14.05704        0.27109
H          8.60192      -12.74649        1.00981
$end

$opt
CONSTRAINT
tors 4 6 7 8 -165.00000
tors 10 13 16 17 -179.11427
tors 17 19 22 25 179.21698
ENDCONSTRAINT
$end
--------------------------------------------------------------

   16   -2595.9040043733      5.52E-09 Convergence criterion met
 Total energy in the final basis set = -2595.9040043733
   13   -2595.9044691119      4.44E-09 Convergence criterion met
 Total energy in the final basis set = -2595.9044691119
   12   -2595.9052097418      7.17E-09 Convergence criterion met
 Total energy in the final basis set = -2595.9052097418
   11   -2595.9052840881      5.81E-09 Convergence criterion met
 Total energy in the final basis set = -2595.9052840881
   10   -2595.9053130329      8.93E-09 Convergence criterion met
 Total energy in the final basis set = -2595.9053130329
   11   -2595.9053274656      4.43E-09 Convergence criterion met
 Total energy in the final basis set = -2595.9053274656
    9   -2595.9053289023      6.57E-09 Convergence criterion met
 Total energy in the final basis set = -2595.9053289023

             Standard Nuclear Orientation (Angstroms)
    I     Atom           X                Y                Z
 ----------------------------------------------------------------
    1      C       7.6151782309    -0.5530388215    -0.1659551010
    2      C       7.1000657332     0.6652812544     0.2377735830
    3      N       6.8476665742    -1.5908575288    -0.4853190477
    4      C       5.7287560138     0.8130301509     0.3366446108
    5      C       5.5357530600    -1.4368567416    -0.3921519377
    6      C       4.8995327533    -0.2677191364     0.0406598771
    7      C       3.4256194043    -0.1872848459     0.0994369339
    8      C       2.6356727162    -1.3098880220     0.1042921333
    9      C       2.6893301373     1.0394395387     0.0764952822
   10      N       1.2824037173    -1.3547018745     0.0918340793
   11      N       3.1636550509     2.2873673370     0.0496028117
   12      C       1.2588778933     1.0046830424     0.0609573602
   13      C       0.5745039054    -0.2527563785     0.0673069383
   14      S       1.8924939081     3.2756298294     0.0144725053
   15      N       0.6922534770     2.2065384730     0.0273639658
   16      C      -0.8619019110    -0.3931325698     0.0481099178
   17      S      -1.9917983278     0.9155903060    -0.0070941962
   18      C      -1.5465909926    -1.5866483104     0.0688877063
   19      C      -3.3533868793    -0.1352069169    -0.0020072653
   20      S      -1.0564076090    -3.2443795880     0.1226833059
   21      C      -2.9590949179    -1.4565630935     0.0420297964
   22      C      -4.7110704610     0.3661986452    -0.0461173165
   23      C      -2.7359214481    -3.7398170893     0.1126721463
   24      C      -3.6229927939    -2.7299385452     0.0686079076
   25      N      -5.7590141981    -0.4069387384    -0.0582165156
   26      S      -5.0904161377     2.0644392606    -0.0932101380
   27      C      -6.9086763985     0.3232251195    -0.1059810652
   28      C      -6.7576712041     1.6701183616    -0.1317005193
   29      H       8.6851653726    -0.7045366933    -0.2482194937
   30      H       7.7622439728     1.4867420109     0.4712368487
   31      H       5.3071063663     1.7537960098     0.6516667289
   32      H       4.9522616607    -2.2942340449    -0.7040598759
   33      H       3.0962193500    -2.2870576267     0.1465248104
   34      H      -2.9626103752    -4.7937966814     0.1409006551
   35      H      -4.6938321270    -2.8443019513     0.0542277824
   36      H      -7.8578379459    -0.1900356190    -0.1211847760
   37      H      -7.5165891662     2.4312517749    -0.1743518534
 ----------------------------------------------------------------

    9   -2595.9053297051      3.48E-09 Convergence criterion met
 Total energy in the final basis set = -2595.9053297051
 Final energy is   -2595.90532970507
 **  OPTIMIZATION CONVERGED  **

                    Orbital Energies (a.u.)
 --------------------------------------------------------------

 Alpha MOs
 -- Occupied --
-89.158 -89.095 -89.093 -89.075 -14.497 -14.490 -14.453 -14.446
-14.436 -10.375 -10.370 -10.366 -10.362 -10.346 -10.341 -10.341
-10.335 -10.330 -10.329 -10.328 -10.328 -10.324 -10.322 -10.320
-10.314 -10.308 -10.300 -10.296  -8.168  -8.109  -8.109  -8.090
 -6.118  -6.113  -6.112  -6.059  -6.058  -6.055  -6.054  -6.052
 -6.052  -6.039  -6.035  -6.032  -1.155  -1.084  -1.074  -1.054
 -1.025  -1.018  -0.957  -0.945  -0.913  -0.911  -0.906  -0.887
 -0.860  -0.845  -0.830  -0.808  -0.777  -0.755  -0.745  -0.726
 -0.723  -0.696  -0.690  -0.679  -0.650  -0.640  -0.623  -0.621
 -0.610  -0.597  -0.582  -0.579  -0.570  -0.564  -0.544  -0.537
 -0.527  -0.524  -0.518  -0.515  -0.511  -0.505  -0.495  -0.491
 -0.489  -0.485  -0.476  -0.459  -0.458  -0.452  -0.440  -0.434
 -0.432  -0.425  -0.403  -0.399  -0.385  -0.373  -0.371  -0.370
 -0.361  -0.361  -0.343  -0.337  -0.326  -0.317  -0.267

          Ground-State Mulliken Net Atomic Charges

     Atom                 Charge (a.u.)
  ----------------------------------------
      1 C                    -0.077681
      2 C                    -0.102816
      3 N                    -0.154721
      4 C                    -0.137022
      5 C                    -0.115825
      6 C                     0.104069
      7 C                     0.041744
      8 C                    -0.093529
      9 C                     0.044309
     10 N                    -0.185786
     11 N                    -0.298574
     12 C                     0.031347
     13 C                     0.118176
     14 S                     0.406845
     15 N                    -0.282453
     16 C                    -0.056174
     17 S                     0.129741
     18 C                    -0.008831
     19 C                    -0.021129
     20 S                     0.094287
     21 C                     0.021559
     22 C                     0.037488
     23 C                    -0.162098
     24 C                    -0.160256
     25 N                    -0.183012
     26 S                     0.100360
     27 C                    -0.074725
     28 C                    -0.203058
     29 H                     0.123191
     30 H                     0.128682
     31 H                     0.126580
     32 H                     0.129180
     33 H                     0.131231
     34 H                     0.131740
     35 H                     0.142234
     36 H                     0.129303
     37 H                     0.145625
  ----------------------------------------
  Sum of atomic charges =     0.000000

                    Cartesian Multipole Moments
 -----------------------------------------------------------------
    Charge (ESU x 10^10)
                 0.0000
    Dipole Moment (Debye)
         X      -1.9211      Y       2.9879      Z       0.5228
       Tot       3.5904
    Quadrupole Moments (Debye-Ang)
        XX    -166.6865     XY       8.5177     YY    -173.2004
        XZ       5.0390     YZ      -0.2746     ZZ    -189.9187

 Total job time:  7156.94s(wall), 108368.59s(cpu)
        *  Thank you very much for using Q-Chem.  Have a nice day.  *
