 Q-Chem 4.4, Q-Chem, Inc., Pleasanton, CA (2016)
 Q-Chem 4.4.2 for Intel X86 Linux

User input:
--------------------------------------------------------------
$comment
OPTIMIZATION
$end

$rem
JOBTYPE OPT
EXCHANGE omegaB97X-D
BASIS cc-pVTZ
$end

$molecule
0 1
C          0.00000        0.00000        0.00000
C          1.38508        0.00000        0.00000
N         -0.72771       -1.11322        0.00000
C          2.04720       -1.21160       -0.00386
C         -0.08136       -2.27149       -0.00595
C          1.30925       -2.38901       -0.00649
C          1.96927       -3.70493        0.02329
C          2.58647       -4.22889       -1.07904
C          2.01466       -4.53158        1.18372
N          3.20530       -5.43257       -1.15440
N          1.49283       -4.27904        2.38556
C          2.66071       -5.80371        1.11706
C          3.26359       -6.22581       -0.11221
S          1.82273       -5.55647        3.30865
N          2.62007       -6.48200        2.26038
C          3.94523       -7.48603       -0.29356
S          4.14072       -8.71268        0.91180
C          4.54088       -7.89913       -1.46307
C          5.00683       -9.75208       -0.15181
S          4.71356       -7.18441       -3.02980
C          5.14551       -9.18013       -1.39926
C          5.48972      -11.05010        0.27027
C          5.58765       -8.59989       -3.57566
C          5.74885       -9.55991       -2.64783
N          6.13502      -11.86226       -0.51675
S          5.25703      -11.66829        1.88251
C          6.46645      -13.01482        0.13129
C          6.08180      -13.10109        1.42803
H         -0.55134        0.93273        0.00000
H          1.92494        0.93597       -0.01293
H          3.12873       -1.25416       -0.02668
H         -0.69553       -3.16348       -0.00579
H          2.61383       -3.65847       -1.99881
H          5.93567       -8.63209       -4.59647
H          6.25287      -10.49949       -2.79793
H          7.00396      -13.78774       -0.39652
H          6.23398      -13.90899        2.12199
$end

$opt
CONSTRAINT
tors 4 6 7 8 -75.00000
tors 10 13 16 17 -179.11427
tors 17 19 22 25 179.21698
ENDCONSTRAINT
$end
--------------------------------------------------------------

   16   -2595.9039203265      4.81E-09 Convergence criterion met
 Total energy in the final basis set = -2595.9039203265
   12   -2595.9042901440      5.98E-09 Convergence criterion met
 Total energy in the final basis set = -2595.9042901440
   11   -2595.9043456239      5.17E-09 Convergence criterion met
 Total energy in the final basis set = -2595.9043456239
   10   -2595.9043574280      5.20E-09 Convergence criterion met
 Total energy in the final basis set = -2595.9043574280
    9   -2595.9043611307      8.27E-09 Convergence criterion met
 Total energy in the final basis set = -2595.9043611307
    9   -2595.9043623059      4.64E-09 Convergence criterion met
 Total energy in the final basis set = -2595.9043623059

             Standard Nuclear Orientation (Angstroms)
    I     Atom           X                Y                Z
 ----------------------------------------------------------------
    1      C      -7.6052190720    -0.3309206119     0.1396506107
    2      C      -7.0043619757    -0.7115562001    -1.0483724425
    3      N      -6.9227537332     0.0511706349     1.2153321146
    4      C      -5.6224673841    -0.6969839634    -1.1243604495
    5      C      -5.5998240372     0.0608799591     1.1292618888
    6      C      -4.8906073950    -0.3140763801    -0.0094105436
    7      C      -3.4129755535    -0.2631147006    -0.0297442953
    8      C      -2.6344536015    -1.3838026732     0.0126861342
    9      C      -2.7017271389     0.9678852750    -0.0468521611
   10      N      -1.2762604008    -1.4118140918     0.0162170801
   11      N      -3.2142916677     2.1989014786    -0.0766694268
   12      C      -1.2749939209     0.9556382894    -0.0380563050
   13      C      -0.5827273119    -0.3003666728    -0.0078662385
   14      S      -1.9608547092     3.2118415605    -0.0884356094
   15      N      -0.7330343850     2.1702518942    -0.0602608953
   16      C       0.8571029157    -0.4247052011    -0.0004854426
   17      S       1.9703028106     0.8990354816    -0.0064075827
   18      C       1.5562674166    -1.6090897267     0.0170760203
   19      C       3.3452637773    -0.1340731813     0.0108662326
   20      S       1.0863384418    -3.2738856520     0.0340435144
   21      C       2.9673543147    -1.4607991061     0.0227723997
   22      C       4.6971072666     0.3850979939     0.0155412232
   23      C       2.7722168331    -3.7478423264     0.0461494491
   24      C       3.6467797945    -2.7261573620     0.0396557962
   25      N       5.7547311189    -0.3742181091     0.0434181837
   26      S       5.0555917108     2.0883056050    -0.0127562179
   27      C       6.8957895505     0.3710921939     0.0423683253
   28      C       6.7282350421     1.7158527471     0.0144022569
   29      H      -8.6849924367    -0.3297774348     0.2339299094
   30      H      -7.6073605462    -1.0067836725    -1.8950838854
   31      H      -5.1126296696    -0.9808886134    -2.0356257704
   32      H      -5.0622177530     0.3818126680     2.0148285057
   33      H      -3.1079762583    -2.3574332064     0.0461847292
   34      H       3.0122413979    -4.7991693587     0.0595393397
   35      H       4.7190269291    -2.8271242295     0.0471271192
   36      H       7.8513628538    -0.1299758625     0.0625306508
   37      H       7.4780412036     2.4870744112     0.0077616451
 ----------------------------------------------------------------

    8   -2595.9043625069      6.18E-09 Convergence criterion met
 Total energy in the final basis set = -2595.9043625069
 Final energy is   -2595.90436250694
 **  OPTIMIZATION CONVERGED  **

                    Orbital Energies (a.u.)
 --------------------------------------------------------------

 Alpha MOs
 -- Occupied --
-89.155 -89.094 -89.093 -89.075 -14.495 -14.488 -14.452 -14.445
-14.437 -10.374 -10.370 -10.362 -10.360 -10.345 -10.341 -10.340
-10.334 -10.329 -10.328 -10.327 -10.326 -10.324 -10.322 -10.317
-10.315 -10.314 -10.303 -10.296  -8.165  -8.109  -8.108  -8.089
 -6.115  -6.110  -6.109  -6.058  -6.057  -6.054  -6.054  -6.051
 -6.051  -6.039  -6.035  -6.031  -1.152  -1.084  -1.072  -1.055
 -1.024  -1.015  -0.957  -0.945  -0.912  -0.910  -0.907  -0.884
 -0.862  -0.845  -0.829  -0.807  -0.775  -0.749  -0.742  -0.733
 -0.723  -0.694  -0.689  -0.678  -0.648  -0.641  -0.623  -0.621
 -0.608  -0.595  -0.588  -0.576  -0.571  -0.569  -0.540  -0.536
 -0.526  -0.523  -0.518  -0.514  -0.511  -0.500  -0.497  -0.491
 -0.489  -0.481  -0.477  -0.462  -0.458  -0.446  -0.437  -0.432
 -0.430  -0.423  -0.403  -0.396  -0.378  -0.374  -0.370  -0.370
 -0.363  -0.353  -0.343  -0.337  -0.332  -0.322  -0.269

          Ground-State Mulliken Net Atomic Charges

     Atom                 Charge (a.u.)
  ----------------------------------------
      1 C                    -0.069561
      2 C                    -0.098436
      3 N                    -0.152761
      4 C                    -0.129826
      5 C                    -0.080664
      6 C                     0.067639
      7 C                    -0.031586
      8 C                    -0.057378
      9 C                     0.029859
     10 N                    -0.180639
     11 N                    -0.262101
     12 C                     0.028339
     13 C                     0.117581
     14 S                     0.410691
     15 N                    -0.284517
     16 C                    -0.060038
     17 S                     0.130608
     18 C                    -0.006793
     19 C                    -0.021888
     20 S                     0.092330
     21 C                     0.020753
     22 C                     0.037561
     23 C                    -0.162828
     24 C                    -0.160651
     25 N                    -0.183206
     26 S                     0.100488
     27 C                    -0.074981
     28 C                    -0.203451
     29 H                     0.124005
     30 H                     0.130117
     31 H                     0.129151
     32 H                     0.127389
     33 H                     0.126104
     34 H                     0.131533
     35 H                     0.142284
     36 H                     0.129195
     37 H                     0.145675
  ----------------------------------------
  Sum of atomic charges =     0.000000

                    Cartesian Multipole Moments
 -----------------------------------------------------------------
    Charge (ESU x 10^10)
                 0.0000
    Dipole Moment (Debye)
         X       1.7237      Y       0.6114      Z      -1.7984
       Tot       2.5650
    Quadrupole Moments (Debye-Ang)
        XX    -167.6921     XY      10.6263     YY    -173.4418
        XZ      14.0647     YZ       1.3277     ZZ    -187.4580

 Total job time:  5911.04s(wall), 89480.47s(cpu)
        *  Thank you very much for using Q-Chem.  Have a nice day.  *
