 Q-Chem 4.4, Q-Chem, Inc., Pleasanton, CA (2016)
 Q-Chem 4.4.2 for Intel X86 Linux

User input:
--------------------------------------------------------------
$comment
OPTIMIZATION
$end

$rem
JOBTYPE OPT
EXCHANGE omegaB97X-D
BASIS cc-pVTZ
$end

$molecule
0 1
C          0.00000        0.00000        0.00000
C          1.38508        0.00000        0.00000
N         -0.72771       -1.11322        0.00000
C          2.04720       -1.21160       -0.00386
C         -0.08136       -2.27149       -0.00595
C          1.30925       -2.38901       -0.00649
C          1.96927       -3.70493        0.02329
C          2.83419       -4.10192       -0.95900
C          1.76099       -4.66163        1.05931
N          3.47631       -5.29376       -1.02738
N          0.97097       -4.54660        2.12850
C          2.42887       -5.92270        0.99776
C          3.30725       -6.20360       -0.09871
S          1.10278       -5.92570        2.94914
N          2.13804       -6.72934        2.01445
C          4.03603       -7.43976       -0.26144
S          3.97092       -8.80022        0.80659
C          4.89341       -7.71864       -1.30083
C          5.07877       -9.71574       -0.14013
S          5.40979       -6.82755       -2.69172
C          5.49103       -9.00339       -1.24697
C          5.47552      -11.05814        0.22963
C          6.41291       -8.17702       -3.17988
C          6.37352       -9.24002       -2.35710
N          6.30039      -11.77837       -0.47485
S          4.88842      -11.85816        1.66172
C          6.49486      -13.00139        0.09488
C          5.82278      -13.23507        1.24841
H         -0.55134        0.93273        0.00000
H          1.92494        0.93597       -0.01293
H          3.12873       -1.25416       -0.02668
H         -0.69553       -3.16348       -0.00579
H          3.06250       -3.42838       -1.77529
H          6.98786       -8.09287       -4.08904
H          6.91623      -10.15989       -2.49377
H          7.15426      -13.71198       -0.37965
H          5.82577      -14.11965        1.86075
$end

$opt
CONSTRAINT
tors 4 6 7 8 -60.00000
tors 10 13 16 17 -179.11427
tors 17 19 22 25 179.21698
ENDCONSTRAINT
$end
--------------------------------------------------------------

   16   -2595.9052536738      4.78E-09 Convergence criterion met
 Total energy in the final basis set = -2595.9052536738
   12   -2595.9056091017      5.36E-09 Convergence criterion met
 Total energy in the final basis set = -2595.9056091017
   11   -2595.9056736864      5.77E-09 Convergence criterion met
 Total energy in the final basis set = -2595.9056736864
   10   -2595.9056867884      5.32E-09 Convergence criterion met
 Total energy in the final basis set = -2595.9056867884
    9   -2595.9056911889      8.83E-09 Convergence criterion met
 Total energy in the final basis set = -2595.9056911889
    9   -2595.9056925101      5.18E-09 Convergence criterion met
 Total energy in the final basis set = -2595.9056925101

             Standard Nuclear Orientation (Angstroms)
    I     Atom           X                Y                Z
 ----------------------------------------------------------------
    1      C      -7.6052680791    -0.3417735863     0.1228386315
    2      C      -6.9816726637    -1.0084159706    -0.9182378140
    3      N      -6.9438190763     0.3251229212     1.0651052819
    4      C      -5.5995717428    -0.9844984248    -0.9845727589
    5      C      -5.6207326426     0.3400769088     0.9914989971
    6      C      -4.8887912250    -0.3085603593    -0.0021228583
    7      C      -3.4151153789    -0.2481787443    -0.0213055522
    8      C      -2.6359409969    -1.3696342899     0.0312734910
    9      C      -2.7005129198     0.9819492235    -0.0458847905
   10      N      -1.2789670307    -1.4006840787     0.0333370388
   11      N      -3.2082293228     2.2147273785    -0.0856645918
   12      C      -1.2735217474     0.9656985984    -0.0411767609
   13      C      -0.5830434953    -0.2907581457    -0.0023356745
   14      S      -1.9521197688     3.2237398339    -0.1100721717
   15      N      -0.7280416816     2.1784663802    -0.0761147763
   16      C       0.8562603364    -0.4179544755     0.0046920632
   17      S       1.9725805875     0.9030510726    -0.0153312693
   18      C       1.5527854321    -1.6036793553     0.0371673781
   19      C       3.3451872921    -0.1329927690     0.0139315904
   20      S       1.0789679080    -3.2670088036     0.0754702587
   21      C       2.9641672409    -1.4586040004     0.0420498605
   22      C       4.6981888837     0.3830633998     0.0093058526
   23      C       2.7636669922    -3.7447009899     0.0956077078
   24      C       3.6406074004    -2.7252406407     0.0761540901
   25      N       5.7541571836    -0.3782240335     0.0459160781
   26      S       5.0604858469     2.0847882260    -0.0454782641
   27      C       6.8968867365     0.3643398260     0.0305858292
   28      C       6.7323279086     1.7089208621    -0.0173491098
   29      H      -8.6860216044    -0.3380645631     0.2047815367
   30      H      -7.5667833721    -1.5280926856    -1.6633064426
   31      H      -5.0740328102    -1.4790441096    -1.7910738340
   32      H      -5.1018011454     0.8921626024     1.7667589200
   33      H      -3.1110146649    -2.3421132032     0.0784556194
   34      H       3.0011958152    -4.7962889038     0.1240669959
   35      H       4.7126010072    -2.8286053876     0.0862813442
   36      H       7.8514255581    -0.1385003410     0.0552699302
   37      H       7.4838902862     2.4781430361    -0.0396969772
 ----------------------------------------------------------------

    8   -2595.9056927728      9.71E-09 Convergence criterion met
 Total energy in the final basis set = -2595.9056927728
 Final energy is   -2595.90569277284
 **  OPTIMIZATION CONVERGED  **

                    Orbital Energies (a.u.)
 --------------------------------------------------------------

 Alpha MOs
 -- Occupied --
-89.156 -89.094 -89.093 -89.075 -14.495 -14.488 -14.452 -14.445
-14.436 -10.375 -10.370 -10.362 -10.360 -10.345 -10.341 -10.340
-10.334 -10.329 -10.328 -10.327 -10.326 -10.325 -10.322 -10.318
-10.315 -10.314 -10.303 -10.296  -8.166  -8.109  -8.108  -8.089
 -6.116  -6.110  -6.109  -6.058  -6.057  -6.054  -6.054  -6.052
 -6.051  -6.039  -6.035  -6.031  -1.153  -1.084  -1.073  -1.055
 -1.024  -1.015  -0.957  -0.946  -0.912  -0.910  -0.907  -0.884
 -0.862  -0.845  -0.829  -0.807  -0.775  -0.751  -0.744  -0.731
 -0.724  -0.695  -0.689  -0.678  -0.648  -0.641  -0.623  -0.622
 -0.609  -0.595  -0.586  -0.576  -0.570  -0.569  -0.540  -0.536
 -0.526  -0.523  -0.518  -0.514  -0.511  -0.501  -0.497  -0.491
 -0.489  -0.481  -0.477  -0.462  -0.458  -0.447  -0.437  -0.433
 -0.430  -0.423  -0.403  -0.396  -0.380  -0.373  -0.370  -0.370
 -0.363  -0.356  -0.343  -0.337  -0.329  -0.321  -0.269

          Ground-State Mulliken Net Atomic Charges

     Atom                 Charge (a.u.)
  ----------------------------------------
      1 C                    -0.069866
      2 C                    -0.099433
      3 N                    -0.154056
      4 C                    -0.150142
      5 C                    -0.092501
      6 C                     0.093968
      7 C                     0.005242
      8 C                    -0.074195
      9 C                     0.016343
     10 N                    -0.181178
     11 N                    -0.265109
     12 C                     0.025133
     13 C                     0.117461
     14 S                     0.411976
     15 N                    -0.284610
     16 C                    -0.059966
     17 S                     0.130724
     18 C                    -0.006875
     19 C                    -0.021794
     20 S                     0.091959
     21 C                     0.020670
     22 C                     0.037441
     23 C                    -0.162772
     24 C                    -0.160535
     25 N                    -0.183222
     26 S                     0.100575
     27 C                    -0.074961
     28 C                    -0.203428
     29 H                     0.124320
     30 H                     0.129036
     31 H                     0.133467
     32 H                     0.128239
     33 H                     0.129552
     34 H                     0.131474
     35 H                     0.142230
     36 H                     0.129190
     37 H                     0.145647
  ----------------------------------------
  Sum of atomic charges =     0.000000

                    Cartesian Multipole Moments
 -----------------------------------------------------------------
    Charge (ESU x 10^10)
                 0.0000
    Dipole Moment (Debye)
         X       1.7735      Y       0.2124      Z      -1.5837
       Tot       2.3872
    Quadrupole Moments (Debye-Ang)
        XX    -168.3382     XY      13.9857     YY    -172.4574
        XZ      12.0838     YZ       1.5150     ZZ    -188.0201

 Total job time:  5942.23s(wall), 89923.28s(cpu)
        *  Thank you very much for using Q-Chem.  Have a nice day.  *
