 Q-Chem 4.4, Q-Chem, Inc., Pleasanton, CA (2016)
 Q-Chem 4.4.2 for Intel X86 Linux

User input:
--------------------------------------------------------------
$comment
OPTIMIZATION
$end

$rem
JOBTYPE OPT
EXCHANGE omegaB97X-D
BASIS cc-pVTZ
$end

$molecule
0 1
C          0.00000        0.00000        0.00000
C          1.38508        0.00000        0.00000
N         -0.72771       -1.11322        0.00000
C          2.04720       -1.21160       -0.00386
C         -0.08136       -2.27149       -0.00595
C          1.30925       -2.38901       -0.00649
C          1.96927       -3.70493        0.02329
C          3.30215       -3.85108       -0.24628
C          1.28372       -4.91761        0.32565
N          3.99389       -5.01677       -0.25859
N         -0.00935       -5.07251        0.61633
C          2.00001       -6.15329        0.31293
C          3.39978       -6.15480        0.00734
S         -0.24327       -6.64833        0.85055
N          1.24365       -7.21003        0.59601
C          4.22310       -7.34071       -0.03053
S          3.68023       -8.95841        0.25949
C          5.57059       -7.35654       -0.30845
C          5.24505       -9.62900        0.00765
S          6.72407       -6.12298       -0.68672
C          6.16356       -8.64445       -0.29152
C          5.49296      -11.05227        0.10255
C          7.97723       -7.33891       -0.81597
C          7.56923       -8.60032       -0.59037
N          6.66289      -11.58800       -0.09669
S          4.24740      -12.20612        0.49347
C          6.61432      -12.94253        0.04848
C          5.40440      -13.46491        0.36497
H         -0.55134        0.93273        0.00000
H          1.92494        0.93597       -0.01293
H          3.12873       -1.25416       -0.02668
H         -0.69553       -3.16348       -0.00579
H          3.90203       -2.97773       -0.46878
H          8.97865       -7.02599       -1.06787
H          8.19201       -9.47781       -0.62931
H          7.51153      -13.52624       -0.09013
H          5.13779      -14.49496        0.52424
$end

$opt
CONSTRAINT
tors 4 6 7 8 -15.00000
tors 10 13 16 17 -179.11427
tors 17 19 22 25 179.21698
ENDCONSTRAINT
$end
--------------------------------------------------------------

   16   -2595.9026360088      5.69E-09 Convergence criterion met
 Total energy in the final basis set = -2595.9026360088
   13   -2595.9034002088      5.56E-09 Convergence criterion met
 Total energy in the final basis set = -2595.9034002088
   12   -2595.9043421157      7.63E-09 Convergence criterion met
 Total energy in the final basis set = -2595.9043421157
   11   -2595.9045168905      8.22E-09 Convergence criterion met
 Total energy in the final basis set = -2595.9045168905
   11   -2595.9045986035      4.91E-09 Convergence criterion met
 Total energy in the final basis set = -2595.9045986035
   11   -2595.9046335621      5.51E-09 Convergence criterion met
 Total energy in the final basis set = -2595.9046335621
    9   -2595.9046365019      6.17E-09 Convergence criterion met
 Total energy in the final basis set = -2595.9046365019
    9   -2595.9046379276      3.06E-09 Convergence criterion met
 Total energy in the final basis set = -2595.9046379276

             Standard Nuclear Orientation (Angstroms)
    I     Atom           X                Y                Z
 ----------------------------------------------------------------
    1      C       7.6357544633     0.3986953855     0.0569792326
    2      C       6.9280585584     1.5285671069    -0.3193228745
    3      N       7.0470062842    -0.7407862146     0.3973434444
    4      C       5.5498955963     1.4672619868    -0.3475549732
    5      C       5.7199452496    -0.7892227108     0.3682426737
    6      C       4.9005303346     0.2801130831    -0.0078849522
    7      C       3.4260727642     0.1935233491     0.0415202257
    8      C       2.6345956960     1.3142243678     0.0580516856
    9      C       2.6911932508    -1.0335265962    -0.0060506522
   10      N       1.2812623165     1.3582274968     0.0545524268
   11      N       3.1676294275    -2.2789517913    -0.0684189712
   12      C       1.2609260834    -1.0004882639    -0.0138108107
   13      C       0.5749602053     0.2554668201     0.0192707934
   14      S       1.8988663730    -3.2680534290    -0.1201430876
   15      N       0.6960472303    -2.2024552459    -0.0732638524
   16      C      -0.8620130714     0.3940525084     0.0145718315
   17      S      -1.9904169137    -0.9167747439    -0.0072406341
   18      C      -1.5482768112     1.5864396842     0.0404500864
   19      C      -3.3535585849     0.1318367839     0.0112579908
   20      S      -1.0601220747     3.2454948414     0.0777757370
   21      C      -2.9607507550     1.4541189461     0.0380617213
   22      C      -4.7109934553    -0.3720703338    -0.0033642024
   23      C      -2.7404571272     3.7383841062     0.0883132248
   24      C      -3.6262380505     2.7267102805     0.0657883683
   25      N      -5.7605067519     0.3985433082     0.0249698218
   26      S      -5.0878566938    -2.0704188026    -0.0630391018
   27      C      -6.9094972438    -0.3338338879    -0.0007680257
   28      C      -6.7563715895    -1.6798636477    -0.0486256750
   29      H       8.7192506552     0.4092882047     0.0872238302
   30      H       7.4481094029     2.4356510602    -0.5923705932
   31      H       4.9903228899     2.3346974245    -0.6674112110
   32      H       5.2798727783    -1.7301364417     0.6627404432
   33      H       3.0936629136     2.2919508187     0.1081675769
   34      H      -2.9686494933     4.7921135098     0.1135964529
   35      H      -4.6973493821     2.8393275559     0.0697635136
   36      H      -7.8598044646     0.1772512410     0.0162692549
   37      H      -7.5144982696    -2.4423629125    -0.0788513403
 ----------------------------------------------------------------

    9   -2595.9046383644      3.43E-09 Convergence criterion met
 Total energy in the final basis set = -2595.9046383644
 Final energy is   -2595.90463836441
 **  OPTIMIZATION CONVERGED  **

                    Orbital Energies (a.u.)
 --------------------------------------------------------------

 Alpha MOs
 -- Occupied --
-89.156 -89.095 -89.093 -89.076 -14.496 -14.489 -14.453 -14.446
-14.434 -10.375 -10.370 -10.365 -10.361 -10.346 -10.341 -10.341
-10.335 -10.330 -10.329 -10.328 -10.325 -10.323 -10.323 -10.320
-10.314 -10.314 -10.302 -10.296  -8.167  -8.109  -8.109  -8.090
 -6.117  -6.111  -6.110  -6.058  -6.058  -6.055  -6.054  -6.052
 -6.052  -6.040  -6.036  -6.032  -1.154  -1.084  -1.074  -1.053
 -1.025  -1.016  -0.957  -0.945  -0.913  -0.911  -0.907  -0.884
 -0.862  -0.845  -0.830  -0.808  -0.776  -0.755  -0.745  -0.725
 -0.724  -0.695  -0.689  -0.679  -0.649  -0.641  -0.625  -0.621
 -0.609  -0.596  -0.581  -0.578  -0.570  -0.564  -0.542  -0.537
 -0.527  -0.524  -0.518  -0.515  -0.512  -0.505  -0.496  -0.491
 -0.489  -0.480  -0.478  -0.465  -0.458  -0.451  -0.438  -0.434
 -0.430  -0.421  -0.401  -0.399  -0.385  -0.372  -0.372  -0.370
 -0.364  -0.358  -0.340  -0.337  -0.326  -0.317  -0.267

          Ground-State Mulliken Net Atomic Charges

     Atom                 Charge (a.u.)
  ----------------------------------------
      1 C                    -0.078146
      2 C                    -0.103162
      3 N                    -0.157753
      4 C                    -0.147404
      5 C                    -0.098552
      6 C                     0.102662
      7 C                     0.032524
      8 C                    -0.096759
      9 C                     0.046787
     10 N                    -0.187497
     11 N                    -0.291642
     12 C                     0.033663
     13 C                     0.117242
     14 S                     0.410923
     15 N                    -0.283873
     16 C                    -0.054769
     17 S                     0.130991
     18 C                    -0.009491
     19 C                    -0.021250
     20 S                     0.091263
     21 C                     0.021475
     22 C                     0.037295
     23 C                    -0.162289
     24 C                    -0.160016
     25 N                    -0.183260
     26 S                     0.100978
     27 C                    -0.074808
     28 C                    -0.203186
     29 H                     0.123495
     30 H                     0.128891
     31 H                     0.122173
     32 H                     0.136581
     33 H                     0.128361
     34 H                     0.131443
     35 H                     0.142161
     36 H                     0.129216
     37 H                     0.145732
  ----------------------------------------
  Sum of atomic charges =     0.000000

                    Cartesian Multipole Moments
 -----------------------------------------------------------------
    Charge (ESU x 10^10)
                 0.0000
    Dipole Moment (Debye)
         X      -2.1038      Y       0.4333      Z      -0.6285
       Tot       2.2380
    Quadrupole Moments (Debye-Ang)
        XX    -170.7728     XY      19.4328     YY    -169.5997
        XZ      -4.1788     YZ      -0.6178     ZZ    -189.7759

 Total job time:  7948.08s(wall), 120285.65s(cpu)
        *  Thank you very much for using Q-Chem.  Have a nice day.  *
