 Q-Chem 4.4, Q-Chem, Inc., Pleasanton, CA (2016)
 Q-Chem 4.4.2 for Intel X86 Linux

User input:
--------------------------------------------------------------
$comment
OPTIMIZATION
$end

$rem
JOBTYPE OPT
EXCHANGE omegaB97X-D
BASIS cc-pVTZ
$end

$molecule
0 1
C          0.00000        0.00000        0.00000
C          1.38508        0.00000        0.00000
N         -0.72771       -1.11322        0.00000
C          2.04720       -1.21160       -0.00386
C         -0.08136       -2.27149       -0.00595
C          1.30925       -2.38901       -0.00649
C          1.96927       -3.70493        0.02329
C          1.54130       -4.70951        0.84684
C          3.09470       -4.03448       -0.78715
N          2.09002       -5.94418        0.95637
N          3.72212       -3.25265       -1.66783
C          3.68456       -5.33084       -0.67921
C          3.12964       -6.28515        0.23407
S          4.93016       -4.12437       -2.27899
N          4.73491       -5.50585       -1.47611
C          3.64005       -7.62288        0.42288
S          5.00755       -8.30732       -0.38782
C          3.10976       -8.55472        1.28525
C          4.85538       -9.81492        0.42812
S          1.77135       -8.53761        2.38235
C          3.78701       -9.80040        1.30040
C          5.77112      -10.91078        0.19000
C          2.13268      -10.18748        2.84386
C          3.19172      -10.73232        2.21928
N          5.68809      -12.05655        0.80297
S          7.08893      -10.81348       -0.94557
C          6.67574      -12.90383        0.39694
C          7.52963      -12.41939       -0.53747
H         -0.55134        0.93273        0.00000
H          1.92494        0.93597       -0.01293
H          3.12873       -1.25416       -0.02668
H         -0.69553       -3.16348       -0.00579
H          0.68070       -4.54924        1.48385
H          1.51210      -10.66560        3.58581
H          3.56741      -11.72934        2.37473
H          6.73693      -13.89410        0.82184
H          8.37247      -12.90695       -0.99504
$end

$opt
CONSTRAINT
tors 4 6 7 8 135.00000
tors 10 13 16 17 -179.11427
tors 17 19 22 25 179.21698
ENDCONSTRAINT
$end
--------------------------------------------------------------

   16   -2595.9069393546      5.10E-09 Convergence criterion met
 Total energy in the final basis set = -2595.9069393546
   12   -2595.9072678149      5.05E-09 Convergence criterion met
 Total energy in the final basis set = -2595.9072678149
   11   -2595.9073286178      7.92E-09 Convergence criterion met
 Total energy in the final basis set = -2595.9073286178
    9   -2595.9073363366      8.86E-09 Convergence criterion met
 Total energy in the final basis set = -2595.9073363366
    9   -2595.9073378277      5.30E-09 Convergence criterion met
 Total energy in the final basis set = -2595.9073378277

             Standard Nuclear Orientation (Angstroms)
    I     Atom           X                Y                Z
 ----------------------------------------------------------------
    1      C       7.5982780777    -0.5318133613     0.0482452006
    2      C       7.0495393598     0.4400330930    -0.7739367121
    3      N       6.8686419210    -1.3329824005     0.8171414569
    4      C       5.6757527365     0.5828135135    -0.8088257539
    5      C       5.5513074568    -1.1838308509     0.7787785785
    6      C       4.8901607974    -0.2506841733    -0.0188120809
    7      C       3.4194006888    -0.1911189634    -0.0304975475
    8      C       2.6460006379    -1.3188908249    -0.0841534527
    9      C       2.6910741947     1.0329436593     0.0023840870
   10      N       1.2904037622    -1.3621908798    -0.0823052659
   11      N       3.1831048527     2.2722292737     0.0494089462
   12      C       1.2636376857     1.0021450202     0.0034159830
   13      C       0.5836297616    -0.2596793430    -0.0365039347
   14      S       1.9158754442     3.2676141876     0.0875445416
   15      N       0.7050919407     2.2081813713     0.0500559472
   16      C      -0.8538499082    -0.4006816591    -0.0319727819
   17      S      -1.9833716691     0.9088645549     0.0025291065
   18      C      -1.5387192438    -1.5935059427    -0.0604258213
   19      C      -3.3455956318    -0.1410786340    -0.0152120190
   20      S      -1.0485320336    -3.2516606292    -0.1061047460
   21      C      -2.9515071174    -1.4626953131    -0.0506347650
   22      C      -4.7035091496     0.3613571204     0.0055415774
   23      C      -2.7283414785    -3.7463797751    -0.1102112726
   24      C      -3.6154760233    -2.7360278355    -0.0798738585
   25      N      -5.7522860794    -0.4102144633    -0.0220809295
   26      S      -5.0819994987     2.0592089161     0.0709811056
   27      C      -6.9020218851     0.3209136924     0.0089563344
   28      C      -6.7502176459     1.6669220328     0.0602180666
   29      H       8.6720822467    -0.6718469256     0.0945606826
   30      H       7.6883862520     1.0677003340    -1.3785401139
   31      H       5.2142752123     1.3289850015    -1.4397072482
   32      H       4.9757936370    -1.8321751525     1.4306652239
   33      H       3.1258740072    -2.2881132724    -0.1419976424
   34      H      -2.9552758600    -4.8003477165    -0.1375500840
   35      H      -4.6864201955    -2.8502113811    -0.0784628628
   36      H      -7.8518728638    -0.1910704267    -0.0067020881
   37      H      -7.5090724984     2.4285106522     0.0949137469
 ----------------------------------------------------------------

    9   -2595.9073384952      4.13E-09 Convergence criterion met
 Total energy in the final basis set = -2595.9073384952
 Final energy is   -2595.90733849523
 **  OPTIMIZATION CONVERGED  **

                    Orbital Energies (a.u.)
 --------------------------------------------------------------

 Alpha MOs
 -- Occupied --
-89.157 -89.094 -89.093 -89.075 -14.496 -14.490 -14.452 -14.445
-14.437 -10.375 -10.370 -10.364 -10.361 -10.345 -10.341 -10.340
-10.334 -10.329 -10.328 -10.328 -10.326 -10.326 -10.322 -10.318
-10.314 -10.313 -10.302 -10.296  -8.167  -8.109  -8.108  -8.089
 -6.117  -6.111  -6.111  -6.058  -6.057  -6.054  -6.054  -6.052
 -6.052  -6.039  -6.035  -6.031  -1.154  -1.084  -1.073  -1.055
 -1.024  -1.017  -0.957  -0.946  -0.913  -0.910  -0.907  -0.887
 -0.861  -0.844  -0.829  -0.807  -0.776  -0.753  -0.745  -0.729
 -0.723  -0.695  -0.690  -0.679  -0.649  -0.640  -0.623  -0.622
 -0.609  -0.596  -0.585  -0.577  -0.570  -0.568  -0.541  -0.537
 -0.526  -0.523  -0.517  -0.515  -0.511  -0.503  -0.496  -0.491
 -0.489  -0.483  -0.476  -0.462  -0.458  -0.448  -0.438  -0.433
 -0.431  -0.425  -0.405  -0.397  -0.382  -0.372  -0.371  -0.370
 -0.361  -0.357  -0.345  -0.337  -0.328  -0.319  -0.268

          Ground-State Mulliken Net Atomic Charges

     Atom                 Charge (a.u.)
  ----------------------------------------
      1 C                    -0.072710
      2 C                    -0.100385
      3 N                    -0.152090
      4 C                    -0.129201
      5 C                    -0.125751
      6 C                     0.112399
      7 C                     0.030543
      8 C                    -0.093016
      9 C                     0.023531
     10 N                    -0.182042
     11 N                    -0.281720
     12 C                     0.025401
     13 C                     0.118005
     14 S                     0.410036
     15 N                    -0.283269
     16 C                    -0.059221
     17 S                     0.129831
     18 C                    -0.007746
     19 C                    -0.021748
     20 S                     0.093861
     21 C                     0.021285
     22 C                     0.037580
     23 C                    -0.162555
     24 C                    -0.160404
     25 N                    -0.183132
     26 S                     0.100201
     27 C                    -0.074825
     28 C                    -0.203315
     29 H                     0.123967
     30 H                     0.127462
     31 H                     0.120361
     32 H                     0.134974
     33 H                     0.135134
     34 H                     0.131631
     35 H                     0.142133
     36 H                     0.129213
     37 H                     0.145585
  ----------------------------------------
  Sum of atomic charges =     0.000000

                    Cartesian Multipole Moments
 -----------------------------------------------------------------
    Charge (ESU x 10^10)
                 0.0000
    Dipole Moment (Debye)
         X      -1.7424      Y       2.5888      Z      -1.2319
       Tot       3.3549
    Quadrupole Moments (Debye-Ang)
        XX    -166.5127     XY       5.3386     YY    -174.0313
        XZ     -10.6760     YZ      -0.3372     ZZ    -188.6147

 Total job time:  5206.73s(wall), 78827.48s(cpu)
        *  Thank you very much for using Q-Chem.  Have a nice day.  *
