 Q-Chem 4.4, Q-Chem, Inc., Pleasanton, CA (2016)
 Q-Chem 4.4.2 for Intel X86 Linux

User input:
--------------------------------------------------------------
$comment
OPTIMIZATION
$end

$rem
JOBTYPE OPT
EXCHANGE omegaB97X-D
BASIS cc-pVTZ
$end

$molecule
0 1
C          0.00000        0.00000        0.00000
C          1.38508        0.00000        0.00000
N         -0.72771       -1.11322        0.00000
C          2.04720       -1.21160       -0.00386
C         -0.08136       -2.27149       -0.00595
C          1.30925       -2.38901       -0.00649
C          1.96927       -3.70493        0.02329
C          1.75215       -4.59950        1.03481
C          2.87912       -4.14699       -0.98108
N          2.32168       -5.82343        1.15786
N          3.27890       -3.48400       -2.06787
C          3.48883       -5.43315       -0.86187
C          3.16858       -6.26504        0.25978
S          4.31984       -4.44308       -2.83560
N          4.32748       -5.71875       -1.85385
C          3.72007       -7.58144        0.48028
S          4.86834       -8.38056       -0.53887
C          3.41180       -8.39736        1.54445
C          4.92198       -9.78079        0.46026
S          2.36379       -8.22850        2.91135
C          4.08460       -9.64554        1.54792
C          5.76685      -10.91390        0.14653
C          2.83605       -9.82061        3.46609
C          3.72618      -10.45379        2.68170
N          5.83769      -11.97952        0.89142
S          6.78495      -10.97320       -1.26612
C          6.71154      -12.88649        0.36990
C          7.32169      -12.52933       -0.78643
H         -0.55134        0.93273        0.00000
H          1.92494        0.93597       -0.01293
H          3.12873       -1.25416       -0.02668
H         -0.69553       -3.16348       -0.00579
H          1.06117       -4.35057        1.83022
H          2.40824      -10.19811        4.38189
H          4.13604      -11.43313        2.86135
H          6.87781      -13.82209        0.88169
H          8.03970      -13.08226       -1.36623
$end

$opt
CONSTRAINT
tors 4 6 7 8 120.00000
tors 10 13 16 17 -179.11427
tors 17 19 22 25 179.21698
ENDCONSTRAINT
$end
--------------------------------------------------------------

   16   -2595.9057053341      4.83E-09 Convergence criterion met
 Total energy in the final basis set = -2595.9057053341
   12   -2595.9060219920      5.51E-09 Convergence criterion met
 Total energy in the final basis set = -2595.9060219920
   11   -2595.9060822467      5.95E-09 Convergence criterion met
 Total energy in the final basis set = -2595.9060822467
   10   -2595.9060956228      6.88E-09 Convergence criterion met
 Total energy in the final basis set = -2595.9060956228
   10   -2595.9061010944      6.89E-09 Convergence criterion met
 Total energy in the final basis set = -2595.9061010944
    9   -2595.9061033601      9.56E-09 Convergence criterion met
 Total energy in the final basis set = -2595.9061033601

             Standard Nuclear Orientation (Angstroms)
    I     Atom           X                Y                Z
 ----------------------------------------------------------------
    1      C      -7.5996139406     0.5017770989     0.0111456016
    2      C      -7.0054423982    -0.2450534190    -0.9950562486
    3      N      -6.9135796759     1.1050145173     0.9753258193
    4      C      -5.6297717397    -0.3698359311    -1.0029964158
    5      C      -5.5924310122     0.9746665538     0.9592134255
    6      C      -4.8917238008     0.2501000497    -0.0010528092
    7      C      -3.4182713511     0.2036470094     0.0197051869
    8      C      -2.6489613165     1.3321088174    -0.0294092179
    9      C      -2.6929147050    -1.0205218032     0.0357145243
   10      N      -1.2918564803     1.3738689861    -0.0320942929
   11      N      -3.1908112024    -2.2577414226     0.0619165533
   12      C      -1.2662890287    -0.9926538206     0.0328381171
   13      C      -0.5864551104     0.2701163443     0.0007568201
   14      S      -1.9259061368    -3.2570102273     0.0813637331
   15      N      -0.7109078602    -2.2009231784     0.0586522313
   16      C       0.8516585574     0.4086132352    -0.0051401567
   17      S       1.9779284065    -0.9040213159     0.0117145370
   18      C       1.5392254519     1.5996456185    -0.0351888948
   19      C       3.3426614685     0.1423357246    -0.0149500870
   20      S       1.0528792177     3.2592836177    -0.0700952129
   21      C       2.9517481464     1.4651005717    -0.0404003666
   22      C       4.6992564569    -0.3642149663    -0.0093326186
   23      C       2.7339011356     3.7496078124    -0.0895337142
   24      C       3.6186272569     2.7368517865    -0.0719564799
   25      N       5.7501014658     0.4041809342    -0.0439625198
   26      S       5.0729924522    -2.0635300252     0.0458146454
   27      C       6.8977869313    -0.3306622883    -0.0268812395
   28      C       6.7422650888    -1.6763662587     0.0204086104
   29      H      -8.6764005991     0.6218441105     0.0434866565
   30      H      -7.6113640668    -0.7131333075    -1.7574977999
   31      H      -5.1283595910    -0.9400996687    -1.7730060205
   32      H      -5.0512630860     1.4660125703     1.7607792132
   33      H      -3.1318582276     2.3007538432    -0.0723341015
   34      H       2.9634455994     4.8030315648    -0.1156152055
   35      H       4.6898204686     2.8483229026    -0.0815234938
   36      H       7.8490434277     0.1784347621    -0.0497210304
   37      H       7.4990035031    -2.4404608786     0.0443360940
 ----------------------------------------------------------------

    9   -2595.9061040055      5.30E-09 Convergence criterion met
 Total energy in the final basis set = -2595.9061040055
 Final energy is   -2595.90610400553
 **  OPTIMIZATION CONVERGED  **

                    Orbital Energies (a.u.)
 --------------------------------------------------------------

 Alpha MOs
 -- Occupied --
-89.156 -89.094 -89.093 -89.075 -14.496 -14.489 -14.452 -14.445
-14.437 -10.375 -10.370 -10.363 -10.361 -10.345 -10.341 -10.340
-10.334 -10.329 -10.328 -10.328 -10.327 -10.325 -10.322 -10.318
-10.314 -10.314 -10.303 -10.296  -8.166  -8.109  -8.108  -8.089
 -6.116  -6.111  -6.110  -6.058  -6.057  -6.054  -6.054  -6.052
 -6.051  -6.039  -6.035  -6.031  -1.153  -1.084  -1.073  -1.055
 -1.024  -1.016  -0.957  -0.946  -0.912  -0.910  -0.907  -0.886
 -0.861  -0.844  -0.829  -0.807  -0.775  -0.751  -0.744  -0.731
 -0.723  -0.695  -0.690  -0.679  -0.648  -0.640  -0.623  -0.622
 -0.609  -0.595  -0.587  -0.577  -0.570  -0.569  -0.540  -0.537
 -0.526  -0.523  -0.517  -0.514  -0.511  -0.501  -0.497  -0.491
 -0.489  -0.482  -0.476  -0.462  -0.458  -0.446  -0.438  -0.432
 -0.431  -0.425  -0.404  -0.397  -0.380  -0.373  -0.372  -0.370
 -0.362  -0.354  -0.345  -0.337  -0.330  -0.321  -0.269

          Ground-State Mulliken Net Atomic Charges

     Atom                 Charge (a.u.)
  ----------------------------------------
      1 C                    -0.071327
      2 C                    -0.100992
      3 N                    -0.151557
      4 C                    -0.125604
      5 C                    -0.118935
      6 C                     0.099402
      7 C                     0.003909
      8 C                    -0.075221
      9 C                     0.020534
     10 N                    -0.181027
     11 N                    -0.270158
     12 C                     0.024799
     13 C                     0.118058
     14 S                     0.409490
     15 N                    -0.283864
     16 C                    -0.060180
     17 S                     0.129973
     18 C                    -0.007257
     19 C                    -0.021689
     20 S                     0.093697
     21 C                     0.020870
     22 C                     0.037550
     23 C                    -0.162727
     24 C                    -0.160394
     25 N                    -0.183116
     26 S                     0.100218
     27 C                    -0.074834
     28 C                    -0.203425
     29 H                     0.124512
     30 H                     0.128890
     31 H                     0.123188
     32 H                     0.135587
     33 H                     0.133068
     34 H                     0.131614
     35 H                     0.142102
     36 H                     0.129217
     37 H                     0.145631
  ----------------------------------------
  Sum of atomic charges =     0.000000

                    Cartesian Multipole Moments
 -----------------------------------------------------------------
    Charge (ESU x 10^10)
                 0.0000
    Dipole Moment (Debye)
         X       1.7586      Y      -2.2339      Z      -1.5672
       Tot       3.2464
    Quadrupole Moments (Debye-Ang)
        XX    -167.4563     XY       2.5023     YY    -174.3624
        XZ      12.8528     YZ       0.2852     ZZ    -187.6894

 Total job time:  6044.98s(wall), 91509.69s(cpu)
        *  Thank you very much for using Q-Chem.  Have a nice day.  *
