 Q-Chem 4.4, Q-Chem, Inc., Pleasanton, CA (2016)
 Q-Chem 4.4.2 for Intel X86 Linux

User input:
--------------------------------------------------------------
$comment
OPTIMIZATION
$end

$rem
JOBTYPE OPT
EXCHANGE omegaB97X-D
BASIS cc-pVTZ
$end

$molecule
0 1
C          0.00000        0.00000        0.00000
C          1.38508        0.00000        0.00000
N         -0.72771       -1.11322        0.00000
C          2.04720       -1.21160       -0.00386
C         -0.08136       -2.27149       -0.00595
C          1.30925       -2.38901       -0.00649
C          1.96927       -3.70493        0.02329
C          3.04504       -3.99191       -0.77103
C          1.54541       -4.77414        0.86538
N          3.70798       -5.17301       -0.82589
N          0.52776       -4.77795        1.72845
C          2.23314       -6.02500        0.81509
C          3.34619       -6.18349       -0.07300
S          0.49246       -6.24442        2.39253
N          1.73061       -6.94224        1.63671
C          4.11605       -7.39832       -0.20404
S          3.83170       -8.87346        0.65554
C          5.19545       -7.56128       -1.04163
C          5.14536       -9.68161       -0.10799
S          6.00223       -6.51844       -2.16272
C          5.78862       -8.84852       -0.99945
C          5.47125      -11.06127        0.18615
C          7.11628       -7.81015       -2.55765
C          6.90798       -8.96149       -1.89468
N          6.44999      -11.70133       -0.38639
S          4.58444      -12.01788        1.34117
C          6.53066      -12.98404        0.06784
C          5.61483      -13.34500        0.99946
H         -0.55134        0.93273        0.00000
H          1.92494        0.93597       -0.01293
H          3.12873       -1.25416       -0.02668
H         -0.69553       -3.16348       -0.00579
H          3.44297       -3.22971       -1.42891
H          7.88400       -7.62539       -3.29296
H          7.48486       -9.86367       -2.00715
H          7.29514      -13.63997       -0.31980
H          5.49299      -14.29495        1.48955
$end

$opt
CONSTRAINT
tors 4 6 7 8 -45.00000
tors 10 13 16 17 -179.11427
tors 17 19 22 25 179.21698
ENDCONSTRAINT
$end
--------------------------------------------------------------

   16   -2595.9062299565      4.96E-09 Convergence criterion met
 Total energy in the final basis set = -2595.9062299565
   12   -2595.9066147226      4.55E-09 Convergence criterion met
 Total energy in the final basis set = -2595.9066147226
   11   -2595.9067043848      8.61E-09 Convergence criterion met
 Total energy in the final basis set = -2595.9067043848
   10   -2595.9067158155      4.68E-09 Convergence criterion met
 Total energy in the final basis set = -2595.9067158155
    9   -2595.9067193155      7.00E-09 Convergence criterion met
 Total energy in the final basis set = -2595.9067193155

             Standard Nuclear Orientation (Angstroms)
    I     Atom           X                Y                Z
 ----------------------------------------------------------------
    1      C       7.6103149627     0.3754785979     0.0869964946
    2      C       6.9446194123     1.2492425143    -0.7562475219
    3      N       6.9879494951    -0.5087569494     0.8611920902
    4      C       5.5634408325     1.2014986460    -0.7989682307
    5      C       5.6637745655    -0.5448272987     0.8130898032
    6      C       4.8896974813     0.2908924793     0.0068751510
    7      C       3.4186205409     0.2205818570     0.0124445190
    8      C       2.6390731627     1.3438523128     0.0664206827
    9      C       2.6971290873    -1.0070936076    -0.0277200808
   10      N       1.2835873326     1.3808548914     0.0653569629
   11      N       3.1954591649    -2.2431578514    -0.0872389559
   12      C       1.2695635059    -0.9834483269    -0.0274034291
   13      C       0.5828972966     0.2741727396     0.0192778973
   14      S       1.9341236044    -3.2442959345    -0.1305919487
   15      N       0.7171870444    -2.1922249941    -0.0826835375
   16      C      -0.8555353695     0.4071928070     0.0199376904
   17      S      -1.9775111616    -0.9087984554    -0.0139041625
   18      C      -1.5473058589     1.5957706388     0.0553471820
   19      C      -3.3458028743     0.1329871399     0.0137052480
   20      S      -1.0666915256     3.2567983250     0.1050797454
   21      C      -2.9592833287     1.4567925639     0.0514981385
   22      C      -4.7008426318    -0.3773745944    -0.0016968566
   23      C      -2.7493871931     3.7416848805     0.1184892555
   24      C      -3.6305308136     2.7261258457     0.0885682470
   25      N      -5.7539456130     0.3879985976     0.0334205861
   26      S      -5.0696664746    -2.0772271616    -0.0691204994
   27      C      -6.8995289288    -0.3498274949     0.0067381750
   28      C      -6.7400798447    -1.6947647138    -0.0486316838
   29      H       8.6926967749     0.3818303867     0.1428813646
   30      H       7.4997110669     1.9414759721    -1.3728645553
   31      H       5.0068395449     1.8522764829    -1.4606218152
   32      H       5.1813562527    -1.2739980578     1.4521587274
   33      H       3.1146834960     2.3154131320     0.1250228869
   34      H      -2.9825086065     4.7941389484     0.1512673202
   35      H      -4.7021044142     2.8340709340     0.0929827783
   36      H      -7.8522394198     0.1565888945     0.0286653543
   37      H      -7.4945788320    -2.4607635705    -0.0810001592
 ----------------------------------------------------------------

    9   -2595.9067200563      4.54E-09 Convergence criterion met
 Total energy in the final basis set = -2595.9067200563
 Final energy is   -2595.90672005631
 **  OPTIMIZATION CONVERGED  **

                    Orbital Energies (a.u.)
 --------------------------------------------------------------

 Alpha MOs
 -- Occupied --
-89.156 -89.094 -89.093 -89.075 -14.495 -14.488 -14.452 -14.445
-14.436 -10.375 -10.370 -10.363 -10.360 -10.345 -10.341 -10.340
-10.334 -10.329 -10.328 -10.327 -10.326 -10.326 -10.322 -10.318
-10.315 -10.314 -10.303 -10.296  -8.166  -8.109  -8.108  -8.089
 -6.116  -6.111  -6.110  -6.058  -6.057  -6.054  -6.054  -6.052
 -6.051  -6.039  -6.035  -6.032  -1.153  -1.084  -1.073  -1.055
 -1.024  -1.016  -0.957  -0.946  -0.912  -0.911  -0.907  -0.884
 -0.862  -0.845  -0.829  -0.807  -0.776  -0.752  -0.745  -0.729
 -0.724  -0.695  -0.689  -0.679  -0.648  -0.641  -0.623  -0.621
 -0.609  -0.595  -0.584  -0.577  -0.570  -0.568  -0.540  -0.537
 -0.526  -0.523  -0.518  -0.514  -0.512  -0.503  -0.496  -0.491
 -0.489  -0.481  -0.477  -0.463  -0.458  -0.448  -0.437  -0.433
 -0.430  -0.423  -0.403  -0.397  -0.382  -0.373  -0.371  -0.370
 -0.364  -0.358  -0.343  -0.337  -0.327  -0.319  -0.268

          Ground-State Mulliken Net Atomic Charges

     Atom                 Charge (a.u.)
  ----------------------------------------
      1 C                    -0.071339
      2 C                    -0.102388
      3 N                    -0.155116
      4 C                    -0.156999
      5 C                    -0.094813
      6 C                     0.108193
      7 C                     0.029838
      8 C                    -0.091442
      9 C                     0.018250
     10 N                    -0.182510
     11 N                    -0.274206
     12 C                     0.025124
     13 C                     0.117297
     14 S                     0.412898
     15 N                    -0.284366
     16 C                    -0.058943
     17 S                     0.130809
     18 C                    -0.007567
     19 C                    -0.021742
     20 S                     0.091568
     21 C                     0.021003
     22 C                     0.037348
     23 C                    -0.162686
     24 C                    -0.160373
     25 N                    -0.183250
     26 S                     0.100666
     27 C                    -0.074916
     28 C                    -0.203348
     29 H                     0.124008
     30 H                     0.128614
     31 H                     0.132157
     32 H                     0.128285
     33 H                     0.131530
     34 H                     0.131435
     35 H                     0.142173
     36 H                     0.129181
     37 H                     0.145628
  ----------------------------------------
  Sum of atomic charges =     0.000000

                    Cartesian Multipole Moments
 -----------------------------------------------------------------
    Charge (ESU x 10^10)
                 0.0000
    Dipole Moment (Debye)
         X      -1.8727      Y       0.0738      Z      -1.3180
       Tot       2.2912
    Quadrupole Moments (Debye-Ang)
        XX    -169.3718     XY      16.3799     YY    -171.3812
        XZ      -9.6315     YZ      -1.4666     ZZ    -188.6339

 Total job time:  5246.01s(wall), 79385.49s(cpu)
        *  Thank you very much for using Q-Chem.  Have a nice day.  *
