 Q-Chem 4.4, Q-Chem, Inc., Pleasanton, CA (2016)
 Q-Chem 4.4.2 for Intel X86 Linux

User input:
--------------------------------------------------------------
$comment
OPTIMIZATION
$end

$rem
JOBTYPE OPT
EXCHANGE omegaB97X-D
BASIS cc-pVTZ
$end

$molecule
0 1
C          0.00000        0.00000        0.00000
C          1.38508        0.00000        0.00000
N         -0.72771       -1.11322        0.00000
C          2.04720       -1.21160       -0.00386
C         -0.08136       -2.27149       -0.00595
C          1.30925       -2.38901       -0.00649
C          1.96927       -3.70493        0.02329
C          2.53703       -4.20292        1.16356
C          2.07436       -4.55371       -1.11712
N          3.17745       -5.39129        1.28660
N          1.62260       -4.32114       -2.35095
C          2.74952       -5.80713       -1.00203
C          3.30172       -6.19824        0.26084
S          2.03153       -5.59995       -3.23988
N          2.79182       -6.49543       -2.13929
C          3.99969       -7.44089        0.49394
S          4.31479       -8.66166       -0.69189
C          4.52293       -7.83646        1.70346
C          5.13418       -9.67500        0.43218
S          4.57023       -7.11360        3.27524
C          5.16906       -9.09852        1.68477
C          5.69896      -10.95028        0.04379
C          5.44802       -8.50111        3.88344
C          5.69728       -9.45857        2.97260
N          6.33571      -11.73023        0.86941
S          5.58844      -11.58036       -1.57683
C          6.76753      -12.86128        0.24296
C          6.46428      -12.96587       -1.07388
H         -0.55134        0.93273        0.00000
H          1.92494        0.93597       -0.01293
H          3.12873       -1.25416       -0.02668
H         -0.69553       -3.16348       -0.00579
H          2.48688       -3.62982        2.08070
H          5.74038       -8.51462        4.92197
H          6.22612      -10.37812        3.15733
H          7.31604      -13.60410        0.80177
H          6.70328      -13.76141       -1.75758
$end

$opt
CONSTRAINT
tors 4 6 7 8 75.00000
tors 10 13 16 17 -179.11427
tors 17 19 22 25 179.21698
ENDCONSTRAINT
$end
--------------------------------------------------------------

   16   -2595.9038765007      4.86E-09 Convergence criterion met
 Total energy in the final basis set = -2595.9038765007
   12   -2595.9042123631      7.58E-09 Convergence criterion met
 Total energy in the final basis set = -2595.9042123631
   12   -2595.9043034241      3.79E-09 Convergence criterion met
 Total energy in the final basis set = -2595.9043034241
   11   -2595.9043395178      6.52E-09 Convergence criterion met
 Total energy in the final basis set = -2595.9043395178
   11   -2595.9043561521      5.21E-09 Convergence criterion met
 Total energy in the final basis set = -2595.9043561521

             Standard Nuclear Orientation (Angstroms)
    I     Atom           X                Y                Z
 ----------------------------------------------------------------
    1      C      -7.6062655493     0.3224177803     0.1050817837
    2      C      -7.0032168313     0.6817119691    -1.0884443553
    3      N      -6.9257166182    -0.0387788222     1.1892047619
    4      C      -5.6211273914     0.6686329069    -1.1609307538
    5      C      -5.6025749484    -0.0478964904     1.1062802413
    6      C      -4.8912948754     0.3080143717    -0.0373316096
    7      C      -3.4135912849     0.2588419832    -0.0522864715
    8      C      -2.6365242426     1.3809815567    -0.0286753358
    9      C      -2.7007347807    -0.9715102465    -0.0420755085
   10      N      -1.2783290863     1.4108045881    -0.0200719224
   11      N      -3.2118156741    -2.2034629110    -0.0494441202
   12      C      -1.2740473190    -0.9571552643    -0.0257129379
   13      C      -0.5834012200     0.3001173070    -0.0168494025
   14      S      -1.9569938031    -3.2146656950    -0.0336877130
   15      N      -0.7305408017    -2.1711595822    -0.0198530923
   16      C       0.8562452469     0.4267630097    -0.0042481708
   17      S       1.9720047666    -0.8947639463    -0.0198127673
   18      C       1.5531532351     1.6124582536     0.0122770796
   19      C       3.3449800033     0.1409622877     0.0000197158
   20      S       1.0798513473     3.2762489053     0.0302941089
   21      C       2.9645700646     1.4669483324     0.0157046275
   22      C       4.6978316752    -0.3755870948     0.0015360341
   23      C       2.7647920796     3.7535599608     0.0445769665
   24      C       3.6414084816     2.7336336698     0.0354019843
   25      N       5.7541949288     0.3860195883     0.0015075227
   26      S       5.0593445608    -2.0783820861     0.0062176425
   27      C       6.8966600158    -0.3571837322     0.0046271493
   28      C       6.7314488393    -1.7025221834     0.0070914700
   29      H      -8.6862550100     0.3212531748     0.1967656898
   30      H      -7.6049283168     0.9608576627    -1.9415259141
   31      H      -5.1095866303     0.9372448297    -2.0758727688
   32      H      -5.0663053895    -0.3520267027     1.9984996775
   33      H      -3.1109594549     2.3546186080    -0.0161523382
   34      H       3.0026704626     4.8053578488     0.0597867553
   35      H       4.7134102935     2.8370983567     0.0412870037
   36      H       7.8514164456     0.1458315241     0.0051168821
   37      H       7.4826395400    -2.4724262679     0.0096602245
 ----------------------------------------------------------------

    9   -2595.9043588679      5.55E-09 Convergence criterion met
 Total energy in the final basis set = -2595.9043588679
 Final energy is   -2595.90435886792
 **  OPTIMIZATION CONVERGED  **

                    Orbital Energies (a.u.)
 --------------------------------------------------------------

 Alpha MOs
 -- Occupied --
-89.155 -89.094 -89.093 -89.075 -14.495 -14.488 -14.452 -14.445
-14.437 -10.374 -10.370 -10.362 -10.360 -10.345 -10.341 -10.340
-10.334 -10.329 -10.328 -10.327 -10.326 -10.324 -10.322 -10.317
-10.315 -10.314 -10.303 -10.296  -8.165  -8.109  -8.108  -8.089
 -6.115  -6.110  -6.109  -6.058  -6.057  -6.054  -6.054  -6.051
 -6.051  -6.039  -6.035  -6.031  -1.152  -1.084  -1.072  -1.055
 -1.024  -1.015  -0.957  -0.945  -0.912  -0.910  -0.907  -0.884
 -0.862  -0.845  -0.829  -0.807  -0.775  -0.749  -0.742  -0.733
 -0.723  -0.694  -0.689  -0.678  -0.648  -0.641  -0.623  -0.621
 -0.608  -0.595  -0.588  -0.576  -0.571  -0.569  -0.540  -0.536
 -0.526  -0.523  -0.518  -0.514  -0.511  -0.500  -0.497  -0.491
 -0.489  -0.481  -0.477  -0.462  -0.458  -0.446  -0.437  -0.432
 -0.430  -0.423  -0.403  -0.396  -0.378  -0.374  -0.370  -0.370
 -0.363  -0.353  -0.343  -0.337  -0.332  -0.322  -0.269

          Ground-State Mulliken Net Atomic Charges

     Atom                 Charge (a.u.)
  ----------------------------------------
      1 C                    -0.069590
      2 C                    -0.098422
      3 N                    -0.152844
      4 C                    -0.130018
      5 C                    -0.080765
      6 C                     0.067986
      7 C                    -0.031647
      8 C                    -0.057333
      9 C                     0.029870
     10 N                    -0.180708
     11 N                    -0.262093
     12 C                     0.028272
     13 C                     0.117699
     14 S                     0.410626
     15 N                    -0.284421
     16 C                    -0.060169
     17 S                     0.130560
     18 C                    -0.006649
     19 C                    -0.021889
     20 S                     0.092387
     21 C                     0.020767
     22 C                     0.037545
     23 C                    -0.162823
     24 C                    -0.160667
     25 N                    -0.183206
     26 S                     0.100462
     27 C                    -0.074960
     28 C                    -0.203432
     29 H                     0.124010
     30 H                     0.130102
     31 H                     0.129197
     32 H                     0.127485
     33 H                     0.126060
     34 H                     0.131525
     35 H                     0.142232
     36 H                     0.129172
     37 H                     0.145678
  ----------------------------------------
  Sum of atomic charges =     0.000000

                    Cartesian Multipole Moments
 -----------------------------------------------------------------
    Charge (ESU x 10^10)
                 0.0000
    Dipole Moment (Debye)
         X       1.7279      Y      -0.6390      Z      -1.7701
       Tot       2.5549
    Quadrupole Moments (Debye-Ang)
        XX    -167.7296     XY     -10.3545     YY    -173.5312
        XZ      14.2503     YZ      -1.3332     ZZ    -187.3023

 Total job time:  5496.99s(wall), 83122.72s(cpu)
        *  Thank you very much for using Q-Chem.  Have a nice day.  *
