 Q-Chem 4.4, Q-Chem, Inc., Pleasanton, CA (2016)
 Q-Chem 4.4.2 for Intel X86 Linux

User input:
--------------------------------------------------------------
$comment
OPTIMIZATION
$end

$rem
JOBTYPE OPT
EXCHANGE omegaB97X-D
BASIS cc-pVTZ
$end

$molecule
0 1
C          0.00000        0.00000        0.00000
C          1.38508        0.00000        0.00000
N         -0.72771       -1.11322        0.00000
C          2.04720       -1.21160       -0.00386
C         -0.08136       -2.27149       -0.00595
C          1.30925       -2.38901       -0.00649
C          1.96927       -3.70493        0.02329
C          3.17906       -3.89292        0.63292
C          1.41352       -4.87291       -0.57585
N          3.87010       -5.05717        0.69988
N          0.26057       -4.97913       -1.23911
C          2.13283       -6.10542       -0.51541
C          3.39749       -6.15257        0.15627
S          0.14143       -6.51340       -1.71302
N          1.51446       -7.11315       -1.12452
C          4.20805       -7.34117        0.28236
S          3.82266       -8.90101       -0.36120
C          5.41713       -7.40534        0.93597
C          5.26799       -9.61212        0.24471
S          6.37631       -6.24147        1.78487
C          6.03020       -8.68385        0.92284
C          5.58551      -11.00760        0.02557
C          7.57756       -7.47315        2.10975
C          7.28913       -8.69084        1.61726
N          6.67751      -11.56806        0.46012
S          4.53735      -12.09105       -0.84798
C          6.72726      -12.88449        0.10982
C          5.67012      -13.35340       -0.59695
H         -0.55134        0.93273        0.00000
H          1.92494        0.93597       -0.01293
H          3.12873       -1.25416       -0.02668
H         -0.69553       -3.16348       -0.00579
H          3.66360       -3.06117        1.12842
H          8.46193       -7.20068        2.66461
H          7.90615       -9.56821        1.71145
H          7.57854      -13.48155        0.39923
H          5.50127      -14.34657       -0.97452
$end

$opt
CONSTRAINT
tors 4 6 7 8 30.00000
tors 10 13 16 17 -179.11427
tors 17 19 22 25 179.21698
ENDCONSTRAINT
$end
--------------------------------------------------------------

   16   -2595.9061184201      4.86E-09 Convergence criterion met
 Total energy in the final basis set = -2595.9061184201
   12   -2595.9063699515      5.40E-09 Convergence criterion met
 Total energy in the final basis set = -2595.9063699515
   10   -2595.9064353332      8.56E-09 Convergence criterion met
 Total energy in the final basis set = -2595.9064353332
    9   -2595.9064458063      9.20E-09 Convergence criterion met
 Total energy in the final basis set = -2595.9064458063
    9   -2595.9064492995      6.83E-09 Convergence criterion met
 Total energy in the final basis set = -2595.9064492995

             Standard Nuclear Orientation (Angstroms)
    I     Atom           X                Y                Z
 ----------------------------------------------------------------
    1      C       7.6195998504     0.4023225314    -0.0467748079
    2      C       6.9236244096     1.4140490621     0.5942339852
    3      N       7.0243816436    -0.6315398333    -0.6314807077
    4      C       5.5442700533     1.3465312648     0.6295041213
    5      C       5.6994037907    -0.6857089171    -0.5935670481
    6      C       4.8939419668     0.2743870900     0.0236381466
    7      C       3.4229367485     0.1966834023    -0.0146397453
    8      C       2.6403861067     1.3211617733    -0.0427291838
    9      C       2.6931692615    -1.0295850652     0.0156003390
   10      N       1.2863021648     1.3638961679    -0.0440135338
   11      N       3.1794119282    -2.2709925351     0.0721596148
   12      C       1.2645786823    -0.9989423731     0.0109529294
   13      C       0.5808069057     0.2597034346    -0.0202185431
   14      S       1.9126538922    -3.2649043777     0.1048277864
   15      N       0.7043005484    -2.2041937350     0.0564812607
   16      C      -0.8566008543     0.3983097214    -0.0221970666
   17      S      -1.9843913407    -0.9122385346     0.0280948809
   18      C      -1.5432145158     1.5900572754    -0.0577333817
   19      C      -3.3480124777     0.1355122688    -0.0020349681
   20      S      -1.0555653487     3.2487593404    -0.1133921210
   21      C      -2.9557125922     1.4574067586    -0.0475259110
   22      C      -4.7053350264    -0.3683526439     0.0212815634
   23      C      -2.7361351856     3.7409781071    -0.1255077842
   24      C      -3.6215662612     2.7293941673    -0.0883320055
   25      N      -5.7548290483     0.4028035319     0.0141886748
   26      S      -5.0821603738    -2.0672724228     0.0613460930
   27      C      -6.9037785969    -0.3296676279     0.0415165547
   28      C      -6.7506249550    -1.6762231410     0.0700042849
   29      H       8.7024745703     0.4206300334    -0.0910832742
   30      H       7.4513326487     2.2321200167     1.0632050035
   31      H       4.9776543374     2.1079414079     1.1486031099
   32      H       5.2461376363    -1.5384365159    -1.0804456902
   33      H       3.1120713946     2.2944945899    -0.0904390343
   34      H      -2.9645719252     4.7943430027    -0.1614511385
   35      H      -4.6926883381     2.8419860849    -0.0882045477
   36      H      -7.8539721445     0.1819034067     0.0399968723
   37      H      -7.5086462867    -2.4389244754     0.0976567815
 ----------------------------------------------------------------

    9   -2595.9064499768      4.08E-09 Convergence criterion met
 Total energy in the final basis set = -2595.9064499768
 Final energy is   -2595.90644997682
 **  OPTIMIZATION CONVERGED  **

                    Orbital Energies (a.u.)
 --------------------------------------------------------------

 Alpha MOs
 -- Occupied --
-89.156 -89.094 -89.093 -89.075 -14.495 -14.489 -14.452 -14.445
-14.435 -10.375 -10.370 -10.364 -10.361 -10.346 -10.341 -10.340
-10.334 -10.329 -10.328 -10.328 -10.326 -10.325 -10.322 -10.319
-10.315 -10.314 -10.302 -10.296  -8.166  -8.109  -8.108  -8.090
 -6.116  -6.111  -6.110  -6.058  -6.057  -6.054  -6.054  -6.052
 -6.052  -6.039  -6.035  -6.032  -1.153  -1.084  -1.073  -1.054
 -1.024  -1.016  -0.957  -0.946  -0.913  -0.911  -0.907  -0.884
 -0.862  -0.845  -0.830  -0.808  -0.776  -0.754  -0.745  -0.727
 -0.724  -0.695  -0.689  -0.679  -0.649  -0.641  -0.624  -0.621
 -0.609  -0.596  -0.583  -0.578  -0.570  -0.566  -0.541  -0.537
 -0.527  -0.523  -0.518  -0.515  -0.512  -0.504  -0.496  -0.491
 -0.489  -0.481  -0.478  -0.464  -0.458  -0.450  -0.438  -0.433
 -0.430  -0.422  -0.402  -0.398  -0.384  -0.373  -0.371  -0.370
 -0.364  -0.359  -0.342  -0.337  -0.327  -0.318  -0.267

          Ground-State Mulliken Net Atomic Charges

     Atom                 Charge (a.u.)
  ----------------------------------------
      1 C                    -0.074775
      2 C                    -0.102744
      3 N                    -0.155949
      4 C                    -0.153303
      5 C                    -0.094525
      6 C                     0.108318
      7 C                     0.032690
      8 C                    -0.096785
      9 C                     0.031824
     10 N                    -0.184244
     11 N                    -0.285490
     12 C                     0.030580
     13 C                     0.117855
     14 S                     0.413071
     15 N                    -0.284254
     16 C                    -0.057420
     17 S                     0.130939
     18 C                    -0.008519
     19 C                    -0.021782
     20 S                     0.091354
     21 C                     0.021558
     22 C                     0.037500
     23 C                    -0.162543
     24 C                    -0.160337
     25 N                    -0.183309
     26 S                     0.100768
     27 C                    -0.074871
     28 C                    -0.203280
     29 H                     0.123870
     30 H                     0.128831
     31 H                     0.127006
     32 H                     0.129954
     33 H                     0.129547
     34 H                     0.131411
     35 H                     0.142214
     36 H                     0.129153
     37 H                     0.145689
  ----------------------------------------
  Sum of atomic charges =     0.000000

                    Cartesian Multipole Moments
 -----------------------------------------------------------------
    Charge (ESU x 10^10)
                 0.0000
    Dipole Moment (Debye)
         X      -1.9861      Y       0.2744      Z       0.9939
       Tot       2.2378
    Quadrupole Moments (Debye-Ang)
        XX    -170.2087     XY      18.0560     YY    -170.4243
        XZ       7.2557     YZ       1.2116     ZZ    -189.1742

 Total job time:  5184.94s(wall), 78547.40s(cpu)
        *  Thank you very much for using Q-Chem.  Have a nice day.  *
