 Q-Chem 4.4, Q-Chem, Inc., Pleasanton, CA (2016)
 Q-Chem 4.4.2 for Intel X86 Linux

User input:
--------------------------------------------------------------
$comment
OPTIMIZATION
$end

$rem
JOBTYPE OPT
EXCHANGE omegaB97X-D
BASIS cc-pVTZ
$end

$molecule
0 1
C          0.00000        0.00000        0.00000
C          1.38508        0.00000        0.00000
N         -0.72771       -1.11322        0.00000
C          2.04720       -1.21160       -0.00386
C         -0.08136       -2.27149       -0.00595
C          1.30925       -2.38901       -0.00649
C          1.96927       -3.70493        0.02329
C          3.04486       -3.95576        0.82999
C          1.55200       -4.80802       -0.77739
N          3.72631       -5.12438        0.91627
N          0.54624       -4.84522       -1.65350
C          2.26335       -6.04410       -0.69858
C          3.37925       -6.16090        0.19241
S          0.53898       -6.32692       -2.28381
N          1.78433       -6.98642       -1.50573
C          4.16725       -7.35995        0.35676
S          3.93086       -8.84971       -0.49207
C          5.23222       -7.49170        1.21798
C          5.24541       -9.62206        0.30618
S          5.99863       -6.41836        2.33861
C          5.85372       -8.76608        1.20048
C          5.61707      -10.99188        0.02046
C          7.13339       -7.68106        2.76702
C          6.95917       -8.84504        2.11640
N          5.98353      -11.40075       -1.16019
S          5.61241      -12.24595        1.22997
C          6.27083      -12.73326       -1.15155
C          6.13143      -13.36519        0.03932
H         -0.55134        0.93273        0.00000
H          1.92494        0.93597       -0.01293
H          3.12873       -1.25416       -0.02668
H         -0.69553       -3.16348       -0.00579
H          3.41622       -3.17720        1.48423
H          7.89362       -7.46677        3.50210
H          7.55900       -9.73031        2.24234
H          6.58713      -13.21653       -2.06332
H          6.30045      -14.40137        0.27429
$end

$opt
CONSTRAINT
tors 4 6 7 8 42.24575
tors 10 13 16 17 -179.11427
tors 17 19 22 25 60.00000
ENDCONSTRAINT
$end
--------------------------------------------------------------

   16   -2595.9010936157      4.48E-09 Convergence criterion met
 Total energy in the final basis set = -2595.9010936157
   12   -2595.9017373647      5.05E-09 Convergence criterion met
 Total energy in the final basis set = -2595.9017373647
   11   -2595.9018895273      6.34E-09 Convergence criterion met
 Total energy in the final basis set = -2595.9018895273
   11   -2595.9019428493      7.43E-09 Convergence criterion met
 Total energy in the final basis set = -2595.9019428493
   11   -2595.9019791579      7.26E-09 Convergence criterion met
 Total energy in the final basis set = -2595.9019791579
   10   -2595.9019867764      4.63E-09 Convergence criterion met
 Total energy in the final basis set = -2595.9019867764

             Standard Nuclear Orientation (Angstroms)
    I     Atom           X                Y                Z
 ----------------------------------------------------------------
    1      C       7.6285760357     0.5150041885    -0.1997569910
    2      C       6.9568034068     1.3919328165     0.6354685602
    3      N       7.0157947996    -0.4165137509    -0.9242563037
    4      C       5.5804381824     1.2965688806     0.7227158665
    5      C       5.6957200491    -0.4984898357    -0.8335347872
    6      C       4.9156512642     0.3355257806    -0.0308969213
    7      C       3.4478239069     0.2204851992     0.0047247221
    8      C       2.6351130610     1.3210680339    -0.0151429724
    9      C       2.7621986908    -1.0275683019     0.0564078194
   10      N       1.2794918232     1.3187636985     0.0258218602
   11      N       3.2956936511    -2.2497071997     0.0923064577
   12      C       1.3349686765    -1.0448672172     0.0935215901
   13      C       0.6117784682     0.1925172090     0.0774392585
   14      S       2.0646091353    -3.2865118088     0.1589830009
   15      N       0.8179544944    -2.2691887763     0.1507612703
   16      C      -0.8307733379     0.2856882596     0.1098154497
   17      S      -1.9220441955    -1.0533973497     0.2002503170
   18      C      -1.5474591422     1.4593799125     0.0788198916
   19      C      -3.3072640836    -0.0409373522     0.2066099438
   20      S      -1.1100330602     3.1325678930     0.0002376854
   21      C      -2.9551343326     1.2859580574     0.1202751856
   22      C      -4.6480482372    -0.6156010778     0.1936506723
   23      C      -2.8035090017     3.5772413115     0.0191781998
   24      C      -3.6571906142     2.5408532168     0.0840038083
   25      N      -5.1286614808    -1.4089469311     1.1017192034
   26      S      -5.7768028265    -0.2095716801    -1.0640115235
   27      C      -6.4243232336    -1.7393620302     0.8256240505
   28      C      -6.9535743844    -1.1855538424    -0.2935754810
   29      H       8.7077272923     0.5592163028    -0.2906279288
   30      H       7.5033663629     2.1244269100     1.2118911554
   31      H       5.0219436057     1.9490208197     1.3810167027
   32      H       5.2220012790    -1.2665107441    -1.4320026898
   33      H       3.0800376571     2.3066200909    -0.0803581470
   34      H      -3.0642569458     4.6230161845    -0.0165472105
   35      H      -4.7309919685     2.6404567904     0.1115255090
   36      H      -6.9555138881    -2.3979501340     1.4953687444
   37      H      -7.9460405560    -1.3004974093    -0.6934488954
 ----------------------------------------------------------------

    9   -2595.9019881366      4.94E-09 Convergence criterion met
 Total energy in the final basis set = -2595.9019881366
 Final energy is   -2595.90198813656
 **  OPTIMIZATION CONVERGED  **

                    Orbital Energies (a.u.)
 --------------------------------------------------------------

 Alpha MOs
 -- Occupied --
-89.155 -89.094 -89.093 -89.077 -14.494 -14.487 -14.452 -14.447
-14.435 -10.374 -10.369 -10.362 -10.359 -10.344 -10.340 -10.338
-10.334 -10.330 -10.327 -10.326 -10.326 -10.326 -10.325 -10.318
-10.316 -10.314 -10.304 -10.302  -8.165  -8.110  -8.107  -8.091
 -6.115  -6.110  -6.109  -6.059  -6.056  -6.055  -6.053  -6.052
 -6.050  -6.041  -6.037  -6.033  -1.152  -1.084  -1.072  -1.054
 -1.024  -1.015  -0.958  -0.946  -0.912  -0.910  -0.907  -0.884
 -0.861  -0.846  -0.830  -0.808  -0.775  -0.752  -0.744  -0.728
 -0.722  -0.697  -0.693  -0.676  -0.648  -0.640  -0.623  -0.621
 -0.616  -0.597  -0.584  -0.577  -0.570  -0.568  -0.541  -0.535
 -0.527  -0.526  -0.519  -0.514  -0.512  -0.503  -0.496  -0.490
 -0.488  -0.480  -0.478  -0.463  -0.458  -0.448  -0.440  -0.433
 -0.429  -0.423  -0.402  -0.391  -0.380  -0.373  -0.370  -0.369
 -0.364  -0.357  -0.342  -0.339  -0.327  -0.320  -0.274

          Ground-State Mulliken Net Atomic Charges

     Atom                 Charge (a.u.)
  ----------------------------------------
      1 C                    -0.072086
      2 C                    -0.102722
      3 N                    -0.155236
      4 C                    -0.156975
      5 C                    -0.095406
      6 C                     0.109728
      7 C                     0.032449
      8 C                    -0.094507
      9 C                     0.020197
     10 N                    -0.184370
     11 N                    -0.276908
     12 C                     0.028953
     13 C                     0.112637
     14 S                     0.414384
     15 N                    -0.282926
     16 C                    -0.066751
     17 S                     0.171305
     18 C                    -0.006132
     19 C                     0.068448
     20 S                     0.092496
     21 C                    -0.011898
     22 C                    -0.069924
     23 C                    -0.162481
     24 C                    -0.165143
     25 N                    -0.158797
     26 S                     0.108392
     27 C                    -0.091829
     28 C                    -0.192776
     29 H                     0.123767
     30 H                     0.128771
     31 H                     0.131098
     32 H                     0.128576
     33 H                     0.131039
     34 H                     0.131767
     35 H                     0.135170
     36 H                     0.133363
     37 H                     0.144326
  ----------------------------------------
  Sum of atomic charges =     0.000000

                    Cartesian Multipole Moments
 -----------------------------------------------------------------
    Charge (ESU x 10^10)
                 0.0000
    Dipole Moment (Debye)
         X      -2.5273      Y       1.5008      Z       0.1723
       Tot       2.9444
    Quadrupole Moments (Debye-Ang)
        XX    -163.4007     XY       9.5869     YY    -173.1751
        XZ      14.8021     YZ       2.3457     ZZ    -189.1293

 Total job time:  6163.11s(wall), 93200.31s(cpu)
        *  Thank you very much for using Q-Chem.  Have a nice day.  *
