 Q-Chem 4.4, Q-Chem, Inc., Pleasanton, CA (2016)
 Q-Chem 4.4.2 for Intel X86 Linux

User input:
--------------------------------------------------------------
$comment
OPTIMIZATION
$end

$rem
JOBTYPE OPT
EXCHANGE omegaB97X-D
BASIS cc-pVTZ
$end

$molecule
0 1
C          0.00000        0.00000        0.00000
C          1.38508        0.00000        0.00000
N         -0.72771       -1.11322        0.00000
C          2.04720       -1.21160       -0.00386
C         -0.08136       -2.27149       -0.00595
C          1.30925       -2.38901       -0.00649
C          1.96927       -3.70493        0.02329
C          3.04486       -3.95576        0.82999
C          1.55200       -4.80802       -0.77739
N          3.72631       -5.12438        0.91627
N          0.54624       -4.84522       -1.65350
C          2.26335       -6.04410       -0.69858
C          3.37925       -6.16090        0.19241
S          0.53898       -6.32692       -2.28381
N          1.78433       -6.98642       -1.50573
C          4.16725       -7.35995        0.35676
S          3.93086       -8.84971       -0.49207
C          5.23222       -7.49170        1.21798
C          5.24541       -9.62206        0.30618
S          5.99863       -6.41836        2.33861
C          5.85372       -8.76608        1.20048
C          5.61707      -10.99188        0.02046
C          7.13339       -7.68106        2.76702
C          6.95917       -8.84504        2.11640
N          5.44081      -11.55185       -1.14177
S          6.34151      -12.04314        1.20606
C          5.87102      -12.84531       -1.13440
C          6.38726      -13.29494        0.03533
H         -0.55134        0.93273        0.00000
H          1.92494        0.93597       -0.01293
H          3.12873       -1.25416       -0.02668
H         -0.69553       -3.16348       -0.00579
H          3.41622       -3.17720        1.48423
H          7.89362       -7.46677        3.50210
H          7.55900       -9.73031        2.24234
H          5.78601      -13.44071       -2.03062
H          6.78064      -14.26936        0.26602
$end

$opt
CONSTRAINT
tors 4 6 7 8 42.24575
tors 10 13 16 17 -179.11427
tors 17 19 22 25 30.00000
ENDCONSTRAINT
$end
--------------------------------------------------------------

   16   -2595.9046625926      4.82E-09 Convergence criterion met
 Total energy in the final basis set = -2595.9046625926
   12   -2595.9053499252      5.32E-09 Convergence criterion met
 Total energy in the final basis set = -2595.9053499252
   11   -2595.9054333584      5.49E-09 Convergence criterion met
 Total energy in the final basis set = -2595.9054333584
   10   -2595.9054536628      7.47E-09 Convergence criterion met
 Total energy in the final basis set = -2595.9054536628
   10   -2595.9054653321      8.04E-09 Convergence criterion met
 Total energy in the final basis set = -2595.9054653321
   10   -2595.9054691009      4.08E-09 Convergence criterion met
 Total energy in the final basis set = -2595.9054691009

             Standard Nuclear Orientation (Angstroms)
    I     Atom           X                Y                Z
 ----------------------------------------------------------------
    1      C       7.6207854627     0.5388801189    -0.1319122897
    2      C       6.9342093449     1.4030047799     0.7045818732
    3      N       7.0210123597    -0.3820050071    -0.8804673806
    4      C       5.5566950562     1.3052817240     0.7675994515
    5      C       5.6997066817    -0.4666632213    -0.8126344830
    6      C       4.9055414950     0.3542785869    -0.0102553670
    7      C       3.4375225671     0.2364641088     0.0008121605
    8      C       2.6228200448     1.3358932788    -0.0156663090
    9      C       2.7538334512    -1.0133719461     0.0269857161
   10      N       1.2670098842     1.3305837995     0.0070186135
   11      N       3.2894627123    -2.2348537847     0.0545355509
   12      C       1.3262786041    -1.0337866815     0.0458246603
   13      C       0.6006358635     0.2023819820     0.0365399140
   14      S       2.0595911146    -3.2747243782     0.0927142164
   15      N       0.8113532800    -2.2597417659     0.0815855243
   16      C      -0.8421996928     0.2914465803     0.0550096441
   17      S      -1.9271359690    -1.0529094322     0.1160269406
   18      C      -1.5612877427     1.4644641347     0.0350569896
   19      C      -3.3171496645    -0.0435016418     0.1155207502
   20      S      -1.1192324624     3.1376410867    -0.0100025666
   21      C      -2.9688127360     1.2898565175     0.0616924461
   22      C      -4.6312737897    -0.6552170241     0.1116583102
   23      C      -2.8093306043     3.5843902701     0.0091815439
   24      C      -3.6659328652     2.5479990802     0.0486373125
   25      N      -4.8934398701    -1.8102614628     0.6489989489
   26      S      -6.0073101783     0.1079851088    -0.6277636833
   27      C      -6.2076277030    -2.1376006031     0.4918320020
   28      C      -6.9727261283    -1.2288932527    -0.1619921390
   29      H       8.7012627619     0.5850843864    -0.2041028491
   30      H       7.4706570182     2.1274566784     1.3003384226
   31      H       4.9868386765     1.9479458272     1.4257803463
   32      H       5.2375336553    -1.2248722716    -1.4320620040
   33      H       3.0668797835     2.3228802421    -0.0623558148
   34      H      -3.0699135937     4.6307142875    -0.0050489449
   35      H      -4.7384126398     2.6585074914     0.0781339742
   36      H      -6.5702830260    -3.0725538109     0.8906141412
   37      H      -8.0239302524    -1.2743931428    -0.3869193352
 ----------------------------------------------------------------

    8   -2595.9054696578      7.97E-09 Convergence criterion met
 Total energy in the final basis set = -2595.9054696578
 Final energy is   -2595.90546965776
 **  OPTIMIZATION CONVERGED  **

                    Orbital Energies (a.u.)
 --------------------------------------------------------------

 Alpha MOs
 -- Occupied --
-89.155 -89.094 -89.091 -89.078 -14.493 -14.487 -14.452 -14.445
-14.435 -10.374 -10.369 -10.362 -10.359 -10.345 -10.340 -10.338
-10.334 -10.329 -10.328 -10.327 -10.326 -10.326 -10.325 -10.318
-10.317 -10.314 -10.305 -10.302  -8.165  -8.110  -8.106  -8.092
 -6.115  -6.109  -6.108  -6.059  -6.055  -6.055  -6.053  -6.051
 -6.048  -6.041  -6.038  -6.034  -1.152  -1.084  -1.072  -1.054
 -1.024  -1.015  -0.958  -0.945  -0.912  -0.910  -0.907  -0.884
 -0.861  -0.846  -0.831  -0.809  -0.775  -0.752  -0.744  -0.728
 -0.722  -0.699  -0.693  -0.676  -0.646  -0.640  -0.623  -0.621
 -0.615  -0.596  -0.584  -0.577  -0.570  -0.568  -0.542  -0.536
 -0.528  -0.527  -0.519  -0.514  -0.512  -0.502  -0.496  -0.490
 -0.486  -0.480  -0.478  -0.463  -0.459  -0.448  -0.440  -0.433
 -0.430  -0.422  -0.402  -0.394  -0.381  -0.374  -0.370  -0.369
 -0.364  -0.358  -0.342  -0.338  -0.326  -0.320  -0.270

          Ground-State Mulliken Net Atomic Charges

     Atom                 Charge (a.u.)
  ----------------------------------------
      1 C                    -0.072102
      2 C                    -0.102854
      3 N                    -0.155193
      4 C                    -0.156831
      5 C                    -0.095255
      6 C                     0.109491
      7 C                     0.032722
      8 C                    -0.094891
      9 C                     0.019249
     10 N                    -0.185075
     11 N                    -0.276711
     12 C                     0.029135
     13 C                     0.113210
     14 S                     0.414675
     15 N                    -0.281360
     16 C                    -0.062595
     17 S                     0.169492
     18 C                    -0.006200
     19 C                     0.047495
     20 S                     0.094329
     21 C                    -0.005984
     22 C                    -0.031099
     23 C                    -0.164618
     24 C                    -0.167178
     25 N                    -0.171922
     26 S                     0.099057
     27 C                    -0.085866
     28 C                    -0.200859
     29 H                     0.123785
     30 H                     0.128773
     31 H                     0.130897
     32 H                     0.128720
     33 H                     0.130905
     34 H                     0.132524
     35 H                     0.133868
     36 H                     0.133004
     37 H                     0.145258
  ----------------------------------------
  Sum of atomic charges =     0.000000

                    Cartesian Multipole Moments
 -----------------------------------------------------------------
    Charge (ESU x 10^10)
                 0.0000
    Dipole Moment (Debye)
         X      -2.6108      Y       1.7197      Z       0.6659
       Tot       3.1964
    Quadrupole Moments (Debye-Ang)
        XX    -163.2141     XY       8.7112     YY    -172.8881
        XZ      12.5051     YZ       2.3646     ZZ    -188.8241

 Total job time:  5998.82s(wall), 90846.73s(cpu)
        *  Thank you very much for using Q-Chem.  Have a nice day.  *
