 Q-Chem 4.4, Q-Chem, Inc., Pleasanton, CA (2016)
 Q-Chem 4.4.2 for Intel X86 Linux

User input:
--------------------------------------------------------------
$comment
OPTIMIZATION
$end

$rem
JOBTYPE OPT
EXCHANGE omegaB97X-D
BASIS cc-pVTZ
$end

$molecule
0 1
C          0.00000        0.00000        0.00000
C          1.38508        0.00000        0.00000
N         -0.72771       -1.11322        0.00000
C          2.04720       -1.21160       -0.00386
C         -0.08136       -2.27149       -0.00595
C          1.30925       -2.38901       -0.00649
C          1.96927       -3.70493        0.02329
C          3.04486       -3.95576        0.82999
C          1.55200       -4.80802       -0.77739
N          3.72631       -5.12438        0.91627
N          0.54624       -4.84522       -1.65350
C          2.26335       -6.04410       -0.69858
C          3.37925       -6.16090        0.19241
S          0.53898       -6.32692       -2.28381
N          1.78433       -6.98642       -1.50573
C          4.16725       -7.35995        0.35676
S          3.93086       -8.84971       -0.49207
C          5.23222       -7.49170        1.21798
C          5.24541       -9.62206        0.30618
S          5.99863       -6.41836        2.33861
C          5.85372       -8.76608        1.20048
C          5.61707      -10.99188        0.02046
C          7.13339       -7.68106        2.76702
C          6.95917       -8.84504        2.11640
N          4.81122      -12.00047        0.19009
S          7.18926      -11.44020       -0.58189
C          5.41557      -13.17465       -0.14792
C          6.69499      -13.08197       -0.58547
H         -0.55134        0.93273        0.00000
H          1.92494        0.93597       -0.01293
H          3.12873       -1.25416       -0.02668
H         -0.69553       -3.16348       -0.00579
H          3.41622       -3.17720        1.48423
H          7.89362       -7.46677        3.50210
H          7.55900       -9.73031        2.24234
H          4.86955      -14.10115       -0.05641
H          7.35645      -13.86984       -0.90040
$end

$opt
CONSTRAINT
tors 4 6 7 8 42.24575
tors 10 13 16 17 -179.11427
tors 17 19 22 25 -60.00000
ENDCONSTRAINT
$end
--------------------------------------------------------------

   16   -2595.9011628024      4.47E-09 Convergence criterion met
 Total energy in the final basis set = -2595.9011628024
   11   -2595.9017668794      8.46E-09 Convergence criterion met
 Total energy in the final basis set = -2595.9017668794
   11   -2595.9018926534      9.13E-09 Convergence criterion met
 Total energy in the final basis set = -2595.9018926534
   11   -2595.9019299403      6.00E-09 Convergence criterion met
 Total energy in the final basis set = -2595.9019299403
   11   -2595.9019553099      5.92E-09 Convergence criterion met
 Total energy in the final basis set = -2595.9019553099
   10   -2595.9019601701      4.09E-09 Convergence criterion met
 Total energy in the final basis set = -2595.9019601701
    9   -2595.9019611734      4.95E-09 Convergence criterion met
 Total energy in the final basis set = -2595.9019611734

             Standard Nuclear Orientation (Angstroms)
    I     Atom           X                Y                Z
 ----------------------------------------------------------------
    1      C       7.6309975409     0.5255934675     0.0597373525
    2      C       6.9081135966     1.3943944221     0.8600829779
    3      N       7.0649207501    -0.3988368985    -0.7104161459
    4      C       5.5290369268     1.2980059428     0.8614249378
    5      C       5.7417796904    -0.4822849005    -0.7018968610
    6      C       4.9132354999     0.3433391656     0.0597127702
    7      C       3.4461570120     0.2262594924     0.0040914313
    8      C       2.6332874152     1.3252967939    -0.0555314748
    9      C       2.7617529883    -1.0235044009     0.0087791762
   10      N       1.2775525142     1.3199001808    -0.0950260711
   11      N       3.2955057182    -2.2445381612     0.0712448150
   12      C       1.3348208394    -1.0439771927    -0.0340352013
   13      C       0.6107871951     0.1919490527    -0.0870232206
   14      S       2.0647856783    -3.2841833754     0.0674060061
   15      N       0.8183798996    -2.2695152147    -0.0062570847
   16      C      -0.8318183083     0.2814804909    -0.1277854074
   17      S      -1.9217278495    -1.0613782087    -0.1044125179
   18      C      -1.5497838062     1.4531655570    -0.1896569423
   19      C      -3.3079757078    -0.0544621986    -0.1941211857
   20      S      -1.1143252603     3.1278384232    -0.2453050998
   21      C      -2.9573125853     1.2753936211    -0.2172223979
   22      C      -4.6472883634    -0.6299415582    -0.1350507479
   23      C      -2.8080929648     3.5674277213    -0.3060928117
   24      C      -3.6605935729     2.5282251078    -0.2864818032
   25      N      -5.1226473725    -1.4959769530    -0.9772077593
   26      S      -5.7808983483    -0.1266548254     1.0817974022
   27      C      -6.4175100881    -1.8081237109    -0.6782565188
   28      C      -6.9519058498    -1.1671991571     0.3909650369
   29      H       8.7136848566     0.5705541122     0.0366024967
   30      H       7.4179137731     2.1218098430     1.4753299926
   31      H       4.9312134645     1.9437307949     1.4911897374
   32      H       5.3075602351    -1.2434602183    -1.3378057359
   33      H       3.0790480450     2.3120388176    -0.0885605483
   34      H      -3.0697484958     4.6122040168    -0.3594860758
   35      H      -4.7344299161     2.6240357630    -0.3246711629
   36      H      -6.9442094120    -2.5204215263    -1.2944228817
   37      H      -7.9446500023    -1.2529780169     0.7973490195
 ----------------------------------------------------------------

    8   -2595.9019614177      7.56E-09 Convergence criterion met
 Total energy in the final basis set = -2595.9019614177
 Final energy is   -2595.90196141771
 **  OPTIMIZATION CONVERGED  **

                    Orbital Energies (a.u.)
 --------------------------------------------------------------

 Alpha MOs
 -- Occupied --
-89.155 -89.094 -89.093 -89.077 -14.494 -14.487 -14.452 -14.447
-14.435 -10.374 -10.369 -10.362 -10.359 -10.344 -10.340 -10.338
-10.334 -10.330 -10.327 -10.326 -10.326 -10.326 -10.325 -10.318
-10.316 -10.314 -10.304 -10.302  -8.165  -8.110  -8.107  -8.091
 -6.115  -6.109  -6.109  -6.059  -6.056  -6.055  -6.053  -6.052
 -6.050  -6.041  -6.037  -6.033  -1.152  -1.085  -1.072  -1.054
 -1.024  -1.015  -0.958  -0.946  -0.912  -0.910  -0.907  -0.884
 -0.861  -0.846  -0.830  -0.808  -0.775  -0.752  -0.744  -0.728
 -0.722  -0.697  -0.693  -0.676  -0.648  -0.640  -0.623  -0.621
 -0.616  -0.597  -0.584  -0.577  -0.570  -0.568  -0.541  -0.535
 -0.527  -0.526  -0.519  -0.515  -0.512  -0.502  -0.496  -0.491
 -0.487  -0.480  -0.478  -0.463  -0.458  -0.448  -0.440  -0.432
 -0.429  -0.423  -0.402  -0.391  -0.379  -0.373  -0.370  -0.369
 -0.364  -0.357  -0.342  -0.339  -0.327  -0.320  -0.274

          Ground-State Mulliken Net Atomic Charges

     Atom                 Charge (a.u.)
  ----------------------------------------
      1 C                    -0.072449
      2 C                    -0.102885
      3 N                    -0.155030
      4 C                    -0.157420
      5 C                    -0.095232
      6 C                     0.110210
      7 C                     0.032572
      8 C                    -0.094418
      9 C                     0.019386
     10 N                    -0.184411
     11 N                    -0.276573
     12 C                     0.028964
     13 C                     0.112565
     14 S                     0.414318
     15 N                    -0.282903
     16 C                    -0.066931
     17 S                     0.171296
     18 C                    -0.006058
     19 C                     0.068681
     20 S                     0.092349
     21 C                    -0.011098
     22 C                    -0.070617
     23 C                    -0.162425
     24 C                    -0.165554
     25 N                    -0.158457
     26 S                     0.108738
     27 C                    -0.092170
     28 C                    -0.192666
     29 H                     0.123926
     30 H                     0.128999
     31 H                     0.130584
     32 H                     0.129042
     33 H                     0.131066
     34 H                     0.131758
     35 H                     0.135282
     36 H                     0.133487
     37 H                     0.144073
  ----------------------------------------
  Sum of atomic charges =     0.000000

                    Cartesian Multipole Moments
 -----------------------------------------------------------------
    Charge (ESU x 10^10)
                 0.0000
    Dipole Moment (Debye)
         X      -2.6092      Y       1.5609      Z       2.2135
       Tot       3.7609
    Quadrupole Moments (Debye-Ang)
        XX    -164.5363     XY       8.9694     YY    -173.3287
        XZ       4.4182     YZ       0.9093     ZZ    -188.2595

 Total job time:  6731.83s(wall), 101932.25s(cpu)
        *  Thank you very much for using Q-Chem.  Have a nice day.  *
