 Q-Chem 4.4, Q-Chem, Inc., Pleasanton, CA (2016)
 Q-Chem 4.4.2 for Intel X86 Linux

User input:
--------------------------------------------------------------
$comment
OPTIMIZATION
$end

$rem
JOBTYPE OPT
EXCHANGE omegaB97X-D
BASIS cc-pVTZ
$end

$molecule
0 1
C          0.00000        0.00000        0.00000
C          1.38508        0.00000        0.00000
N         -0.72771       -1.11322        0.00000
C          2.04720       -1.21160       -0.00386
C         -0.08136       -2.27149       -0.00595
C          1.30925       -2.38901       -0.00649
C          1.96927       -3.70493        0.02329
C          3.04486       -3.95576        0.82999
C          1.55200       -4.80802       -0.77739
N          3.72631       -5.12438        0.91627
N          0.54624       -4.84522       -1.65350
C          2.26335       -6.04410       -0.69858
C          3.37925       -6.16090        0.19241
S          0.53898       -6.32692       -2.28381
N          1.78433       -6.98642       -1.50573
C          4.16725       -7.35995        0.35676
S          3.93086       -8.84971       -0.49207
C          5.23222       -7.49170        1.21798
C          5.24541       -9.62206        0.30618
S          5.99863       -6.41836        2.33861
C          5.85372       -8.76608        1.20048
C          5.61707      -10.99188        0.02046
C          7.13339       -7.68106        2.76702
C          6.95917       -8.84504        2.11640
N          6.84880      -11.37544       -0.15601
S          4.45158      -12.27930       -0.12017
C          6.91484      -12.71183       -0.41656
C          5.73221      -13.37347       -0.44027
H         -0.55134        0.93273        0.00000
H          1.92494        0.93597       -0.01293
H          3.12873       -1.25416       -0.02668
H         -0.69553       -3.16348       -0.00579
H          3.41622       -3.17720        1.48423
H          7.89362       -7.46677        3.50210
H          7.55900       -9.73031        2.24234
H          7.87452      -13.17487       -0.58838
H          5.54966      -14.41752       -0.62489
$end

$opt
CONSTRAINT
tors 4 6 7 8 42.24575
tors 10 13 16 17 -179.11427
tors 17 19 22 25 135.00000
ENDCONSTRAINT
$end
--------------------------------------------------------------

   16   -2595.9036413356      4.80E-09 Convergence criterion met
 Total energy in the final basis set = -2595.9036413356
   12   -2595.9039638266      4.92E-09 Convergence criterion met
 Total energy in the final basis set = -2595.9039638266
   11   -2595.9040445289      6.49E-09 Convergence criterion met
 Total energy in the final basis set = -2595.9040445289
   11   -2595.9040762484      6.26E-09 Convergence criterion met
 Total energy in the final basis set = -2595.9040762484
   10   -2595.9040897664      9.63E-09 Convergence criterion met
 Total energy in the final basis set = -2595.9040897664
    9   -2595.9040921362      6.07E-09 Convergence criterion met
 Total energy in the final basis set = -2595.9040921362

             Standard Nuclear Orientation (Angstroms)
    I     Atom           X                Y                Z
 ----------------------------------------------------------------
    1      C       7.6137486074     0.3776884626    -0.1089231699
    2      C       6.9474264355     1.3003444732     0.6801832694
    3      N       6.9922790220    -0.5598406403    -0.8181649728
    4      C       5.5670686692     1.2463686768     0.7356579259
    5      C       5.6685856257    -0.6014266150    -0.7587916672
    6      C       4.8935938941     0.2802064042    -0.0036083916
    7      C       3.4226944375     0.2075807318    -0.0026996036
    8      C       2.6424148969     1.3291484377    -0.0792250878
    9      C       2.7004033903    -1.0185600351     0.0721920631
   10      N       1.2868451455     1.3667546304    -0.0759891162
   11      N       3.1972603498    -2.2531362710     0.1652710250
   12      C       1.2727114300    -0.9940990106     0.0738947615
   13      C       0.5860472154     0.2617652197    -0.0046527291
   14      S       1.9352057799    -3.2516818383     0.2386701414
   15      N       0.7193427164    -2.2003410712     0.1633557977
   16      C      -0.8526878055     0.3952397015    -0.0082293819
   17      S      -1.9792218488    -0.9141150892     0.0991513899
   18      C      -1.5406537726     1.5845907484    -0.0837689100
   19      C      -3.3406551544     0.1296678859     0.0049977047
   20      S      -1.0631154402     3.2438985955    -0.1965584049
   21      C      -2.9522229715     1.4471535656    -0.0645112730
   22      C      -4.7006353971    -0.3752241870     0.0975889253
   23      C      -2.7476813092     3.7279392411    -0.2124179689
   24      C      -3.6261788881     2.7133739944    -0.1383878687
   25      N      -5.6304976792     0.1739393326     0.8218818411
   26      S      -5.2052406221    -1.8157959582    -0.7323414330
   27      C      -6.7950862552    -0.5318999294     0.7362372992
   28      C      -6.7627893225    -1.6416511064    -0.0428621862
   29      H       8.6956584671     0.3879177764    -0.1733578362
   30      H       7.5004926876     2.0355514989     1.2468730291
   31      H       5.0119885988     1.9339450477     1.3601945346
   32      H       5.1876663464    -1.3758051333    -1.3432624571
   33      H       3.1168122684     2.2994401032    -0.1629100323
   34      H      -2.9812778360     4.7789246491    -0.2738391466
   35      H      -4.6979435035     2.8266314736    -0.1160261132
   36      H      -7.6594605361    -0.1891799417     1.2840427323
   37      H      -7.5519382803    -2.3450544889    -0.2425701272
 ----------------------------------------------------------------

    9   -2595.9040926166      4.00E-09 Convergence criterion met
 Total energy in the final basis set = -2595.9040926166
 Final energy is   -2595.90409261657
 **  OPTIMIZATION CONVERGED  **

                    Orbital Energies (a.u.)
 --------------------------------------------------------------

 Alpha MOs
 -- Occupied --
-89.156 -89.095 -89.094 -89.075 -14.495 -14.488 -14.452 -14.447
-14.436 -10.374 -10.370 -10.363 -10.360 -10.344 -10.340 -10.339
-10.334 -10.329 -10.328 -10.326 -10.326 -10.326 -10.323 -10.318
-10.314 -10.313 -10.302 -10.299  -8.166  -8.110  -8.109  -8.090
 -6.116  -6.110  -6.109  -6.058  -6.058  -6.055  -6.054  -6.053
 -6.052  -6.039  -6.035  -6.032  -1.153  -1.085  -1.073  -1.054
 -1.024  -1.015  -0.957  -0.946  -0.913  -0.911  -0.907  -0.884
 -0.861  -0.845  -0.830  -0.808  -0.775  -0.752  -0.744  -0.728
 -0.723  -0.695  -0.690  -0.679  -0.649  -0.641  -0.623  -0.621
 -0.611  -0.596  -0.584  -0.577  -0.570  -0.568  -0.540  -0.535
 -0.527  -0.523  -0.519  -0.514  -0.512  -0.503  -0.496  -0.491
 -0.489  -0.481  -0.477  -0.463  -0.458  -0.448  -0.439  -0.431
 -0.430  -0.423  -0.403  -0.393  -0.380  -0.374  -0.370  -0.370
 -0.364  -0.358  -0.342  -0.338  -0.327  -0.319  -0.272

          Ground-State Mulliken Net Atomic Charges

     Atom                 Charge (a.u.)
  ----------------------------------------
      1 C                    -0.072019
      2 C                    -0.102837
      3 N                    -0.155404
      4 C                    -0.157492
      5 C                    -0.095109
      6 C                     0.109784
      7 C                     0.032111
      8 C                    -0.093619
      9 C                     0.019678
     10 N                    -0.183222
     11 N                    -0.276543
     12 C                     0.028923
     13 C                     0.113643
     14 S                     0.412800
     15 N                    -0.284510
     16 C                    -0.062673
     17 S                     0.150526
     18 C                    -0.005387
     19 C                     0.016029
     20 S                     0.090493
     21 C                     0.010209
     22 C                    -0.020567
     23 C                    -0.162022
     24 C                    -0.154728
     25 N                    -0.171676
     26 S                     0.111538
     27 C                    -0.086322
     28 C                    -0.195393
     29 H                     0.123950
     30 H                     0.128845
     31 H                     0.131424
     32 H                     0.128346
     33 H                     0.131254
     34 H                     0.131002
     35 H                     0.133016
     36 H                     0.132706
     37 H                     0.143243
  ----------------------------------------
  Sum of atomic charges =     0.000000

                    Cartesian Multipole Moments
 -----------------------------------------------------------------
    Charge (ESU x 10^10)
                 0.0000
    Dipole Moment (Debye)
         X      -2.1090      Y       0.2360      Z       0.5682
       Tot       2.1969
    Quadrupole Moments (Debye-Ang)
        XX    -168.0979     XY      16.6581     YY    -171.4061
        XZ      11.9181     YZ       1.3250     ZZ    -188.8077

 Total job time:  6051.20s(wall), 91559.59s(cpu)
        *  Thank you very much for using Q-Chem.  Have a nice day.  *
