 Q-Chem 4.4, Q-Chem, Inc., Pleasanton, CA (2016)
 Q-Chem 4.4.2 for Intel X86 Linux

User input:
--------------------------------------------------------------
$comment
OPTIMIZATION
$end

$rem
JOBTYPE OPT
EXCHANGE omegaB97X-D
BASIS cc-pVTZ
$end

$molecule
0 1
C          0.00000        0.00000        0.00000
C          1.38508        0.00000        0.00000
N         -0.72771       -1.11322        0.00000
C          2.04720       -1.21160       -0.00386
C         -0.08136       -2.27149       -0.00595
C          1.30925       -2.38901       -0.00649
C          1.96927       -3.70493        0.02329
C          3.04486       -3.95576        0.82999
C          1.55200       -4.80802       -0.77739
N          3.72631       -5.12438        0.91627
N          0.54624       -4.84522       -1.65350
C          2.26335       -6.04410       -0.69858
C          3.37925       -6.16090        0.19241
S          0.53898       -6.32692       -2.28381
N          1.78433       -6.98642       -1.50573
C          4.16725       -7.35995        0.35676
S          3.93086       -8.84971       -0.49207
C          5.23222       -7.49170        1.21798
C          5.24541       -9.62206        0.30618
S          5.99863       -6.41836        2.33861
C          5.85372       -8.76608        1.20048
C          5.61707      -10.99188        0.02046
C          7.13339       -7.68106        2.76702
C          6.95917       -8.84504        2.11640
N          6.83670      -11.43657        0.12134
S          4.46825      -12.19708       -0.49268
C          6.90769      -12.75645       -0.21191
C          5.74024      -13.34412       -0.57057
H         -0.55134        0.93273        0.00000
H          1.92494        0.93597       -0.01293
H          3.12873       -1.25416       -0.02668
H         -0.69553       -3.16348       -0.00579
H          3.41622       -3.17720        1.48423
H          7.89362       -7.46677        3.50210
H          7.55900       -9.73031        2.24234
H          7.85938      -13.26448       -0.17847
H          5.56433      -14.36251       -0.86954
$end

$opt
CONSTRAINT
tors 4 6 7 8 42.24575
tors 10 13 16 17 -179.11427
tors 17 19 22 25 150.00000
ENDCONSTRAINT
$end
--------------------------------------------------------------

   16   -2595.9055201075      4.75E-09 Convergence criterion met
 Total energy in the final basis set = -2595.9055201075
   12   -2595.9057071429      4.54E-09 Convergence criterion met
 Total energy in the final basis set = -2595.9057071429
   10   -2595.9057425734      9.86E-09 Convergence criterion met
 Total energy in the final basis set = -2595.9057425734
   10   -2595.9057536916      7.69E-09 Convergence criterion met
 Total energy in the final basis set = -2595.9057536916
   10   -2595.9057584454      4.67E-09 Convergence criterion met
 Total energy in the final basis set = -2595.9057584454

             Standard Nuclear Orientation (Angstroms)
    I     Atom           X                Y                Z
 ----------------------------------------------------------------
    1      C       7.6125047733     0.3728127595    -0.0956986117
    2      C       6.9461462664     1.2936049860     0.6955011510
    3      N       6.9907959180    -0.5601777523    -0.8107158829
    4      C       5.5655103403     1.2426082652     0.7469917414
    5      C       5.6668953409    -0.5989700141    -0.7551191996
    6      C       4.8918433710     0.2812859538     0.0016763919
    7      C       3.4208828828     0.2109874546    -0.0006971951
    8      C       2.6419862733     1.3339070450    -0.0731868498
    9      C       2.6970653248    -1.0146034412     0.0671747017
   10      N       1.2865957378     1.3732371752    -0.0709185979
   11      N       3.1925663285    -2.2501503092     0.1545965445
   12      C       1.2694044923    -0.9884218288     0.0671278066
   13      C       0.5842913861     0.2687141200    -0.0052759173
   14      S       1.9292696334    -3.2475791034     0.2210077549
   15      N       0.7146741945    -2.1944807586     0.1495451643
   16      C      -0.8540524828     0.4035766434    -0.0085997902
   17      S      -1.9797655483    -0.9067275746     0.0920582943
   18      C      -1.5426012880     1.5930378618    -0.0766571972
   19      C      -3.3429441067     0.1374771081     0.0133626590
   20      S      -1.0624927718     3.2516442057    -0.1843067099
   21      C      -2.9544799236     1.4568827658    -0.0555132439
   22      C      -4.7002069991    -0.3690977084     0.0754199729
   23      C      -2.7459991116     3.7376187991    -0.1996578448
   24      C      -3.6264355159     2.7241193371    -0.1277751516
   25      N      -5.6991436622     0.3024947684     0.5700160502
   26      S      -5.1277597265    -1.9540643414    -0.4973957438
   27      C      -6.8525638921    -0.4233969313     0.5118142122
   28      C      -6.7473611831    -1.6662477281    -0.0200469157
   29      H       8.6946080025     0.3805936941    -0.1569650836
   30      H       7.4993205977     2.0250816188     1.2668898678
   31      H       5.0103904234     1.9288309267     1.3729968019
   32      H       5.1857076832    -1.3698330253    -1.3440125517
   33      H       3.1176516805     2.3039634805    -0.1520215671
   34      H      -2.9781394632     4.7890089434    -0.2601364002
   35      H      -4.6979514255     2.8367260792    -0.1069511707
   36      H      -7.7660766606     0.0086429280     0.8906417379
   37      H      -7.5167319900    -2.4052594400    -0.1589365537
 ----------------------------------------------------------------

    9   -2595.9057595616      4.79E-09 Convergence criterion met
 Total energy in the final basis set = -2595.9057595616
 Final energy is   -2595.90575956159
 **  OPTIMIZATION CONVERGED  **

                    Orbital Energies (a.u.)
 --------------------------------------------------------------

 Alpha MOs
 -- Occupied --
-89.156 -89.095 -89.094 -89.075 -14.495 -14.488 -14.452 -14.446
-14.436 -10.374 -10.370 -10.363 -10.360 -10.345 -10.340 -10.340
-10.334 -10.329 -10.328 -10.326 -10.326 -10.326 -10.323 -10.318
-10.315 -10.314 -10.303 -10.298  -8.166  -8.109  -8.109  -8.089
 -6.116  -6.110  -6.110  -6.058  -6.058  -6.055  -6.054  -6.052
 -6.052  -6.039  -6.035  -6.032  -1.153  -1.084  -1.073  -1.054
 -1.024  -1.016  -0.957  -0.946  -0.913  -0.911  -0.907  -0.884
 -0.861  -0.845  -0.830  -0.808  -0.775  -0.752  -0.745  -0.728
 -0.723  -0.695  -0.690  -0.679  -0.649  -0.641  -0.623  -0.621
 -0.610  -0.596  -0.584  -0.577  -0.570  -0.568  -0.540  -0.536
 -0.527  -0.523  -0.518  -0.514  -0.512  -0.503  -0.496  -0.491
 -0.489  -0.481  -0.477  -0.463  -0.458  -0.449  -0.438  -0.432
 -0.430  -0.423  -0.403  -0.395  -0.381  -0.373  -0.371  -0.370
 -0.364  -0.358  -0.342  -0.337  -0.327  -0.319  -0.270

          Ground-State Mulliken Net Atomic Charges

     Atom                 Charge (a.u.)
  ----------------------------------------
      1 C                    -0.071927
      2 C                    -0.102861
      3 N                    -0.155380
      4 C                    -0.157328
      5 C                    -0.095118
      6 C                     0.109681
      7 C                     0.032058
      8 C                    -0.093418
      9 C                     0.019908
     10 N                    -0.183076
     11 N                    -0.276646
     12 C                     0.028037
     13 C                     0.114456
     14 S                     0.412782
     15 N                    -0.284487
     16 C                    -0.061237
     17 S                     0.140352
     18 C                    -0.005728
     19 C                     0.011981
     20 S                     0.090835
     21 C                     0.011933
     22 C                    -0.000822
     23 C                    -0.162652
     24 C                    -0.156800
     25 N                    -0.178261
     26 S                     0.106664
     27 C                    -0.081043
     28 C                    -0.198195
     29 H                     0.123981
     30 H                     0.128840
     31 H                     0.131392
     32 H                     0.128420
     33 H                     0.131279
     34 H                     0.131095
     35 H                     0.136087
     36 H                     0.131347
     37 H                     0.143851
  ----------------------------------------
  Sum of atomic charges =     0.000000

                    Cartesian Multipole Moments
 -----------------------------------------------------------------
    Charge (ESU x 10^10)
                 0.0000
    Dipole Moment (Debye)
         X      -2.0025      Y       0.1661      Z       0.7642
       Tot       2.1498
    Quadrupole Moments (Debye-Ang)
        XX    -168.8317     XY      16.8903     YY    -171.2966
        XZ      11.1313     YZ       1.3396     ZZ    -188.7921

 Total job time:  5234.81s(wall), 79204.31s(cpu)
        *  Thank you very much for using Q-Chem.  Have a nice day.  *
