 Q-Chem 4.4, Q-Chem, Inc., Pleasanton, CA (2016)
 Q-Chem 4.4.2 for Intel X86 Linux

User input:
--------------------------------------------------------------
$comment
OPTIMIZATION
$end

$rem
JOBTYPE OPT
EXCHANGE omegaB97X-D
BASIS cc-pVTZ
$end

$molecule
0 1
C          0.00000        0.00000        0.00000
C          1.38508        0.00000        0.00000
N         -0.72771       -1.11322        0.00000
C          2.04720       -1.21160       -0.00386
C         -0.08136       -2.27149       -0.00595
C          1.30925       -2.38901       -0.00649
C          1.96927       -3.70493        0.02329
C          3.04486       -3.95576        0.82999
C          1.55200       -4.80802       -0.77739
N          3.72631       -5.12438        0.91627
N          0.54624       -4.84522       -1.65350
C          2.26335       -6.04410       -0.69858
C          3.37925       -6.16090        0.19241
S          0.53898       -6.32692       -2.28381
N          1.78433       -6.98642       -1.50573
C          4.16725       -7.35995        0.35676
S          3.93086       -8.84971       -0.49207
C          5.23222       -7.49170        1.21798
C          5.24541       -9.62206        0.30618
S          5.99863       -6.41836        2.33861
C          5.85372       -8.76608        1.20048
C          5.61707      -10.99188        0.02046
C          7.13339       -7.68106        2.76702
C          6.95917       -8.84504        2.11640
N          5.19706      -11.64201       -1.02660
S          6.66912      -11.92207        1.05175
C          5.69214      -12.91190       -1.04786
C          6.50305      -13.25267       -0.01673
H         -0.55134        0.93273        0.00000
H          1.92494        0.93597       -0.01293
H          3.12873       -1.25416       -0.02668
H         -0.69553       -3.16348       -0.00579
H          3.41622       -3.17720        1.48423
H          7.89362       -7.46677        3.50210
H          7.55900       -9.73031        2.24234
H          5.42725      -13.57406       -1.85799
H          6.99784      -14.18997        0.16795
$end

$opt
CONSTRAINT
tors 4 6 7 8 42.24575
tors 10 13 16 17 -179.11427
tors 17 19 22 25 15.00000
ENDCONSTRAINT
$end
--------------------------------------------------------------

   16   -2595.9052639303      4.93E-09 Convergence criterion met
 Total energy in the final basis set = -2595.9052639303
   13   -2595.9062582269      4.50E-09 Convergence criterion met
 Total energy in the final basis set = -2595.9062582269
   10   -2595.9063528441      9.26E-09 Convergence criterion met
 Total energy in the final basis set = -2595.9063528441
   10   -2595.9063652707      5.51E-09 Convergence criterion met
 Total energy in the final basis set = -2595.9063652707
    9   -2595.9063685731      7.67E-09 Convergence criterion met
 Total energy in the final basis set = -2595.9063685731
    9   -2595.9063707390      8.22E-09 Convergence criterion met
 Total energy in the final basis set = -2595.9063707390

             Standard Nuclear Orientation (Angstroms)
    I     Atom           X                Y                Z
 ----------------------------------------------------------------
    1      C       7.6180886494     0.5458659328    -0.0865742702
    2      C       6.9213757006     1.4099407232     0.7415403751
    3      N       7.0275079716    -0.3753091655    -0.8420896765
    4      C       5.5432273382     1.3118710619     0.7882548577
    5      C       5.7055217693    -0.4604219668    -0.7898607323
    6      C       4.9017251511     0.3604287592     0.0029895325
    7      C       3.4337745426     0.2416191926    -0.0028405569
    8      C       2.6182284655     1.3403186867    -0.0287201324
    9      C       2.7510689363    -1.0087893479     0.0173408302
   10      N       1.2624060566     1.3335667963    -0.0198656593
   11      N       3.2878669871    -2.2296287438     0.0513159736
   12      C       1.3233826728    -1.0306981141     0.0226986136
   13      C       0.5966218779     0.2047777300     0.0053206809
   14      S       2.0587411029    -3.2707888828     0.0791095550
   15      N       0.8096773001    -2.2572633967     0.0553787272
   16      C      -0.8464441143     0.2928191696     0.0131313766
   17      S      -1.9297221496    -1.0529346628     0.0668533109
   18      C      -1.5653585216     1.4656342504    -0.0130380558
   19      C      -3.3212569566    -0.0433580781     0.0523442981
   20      S      -1.1202896698     3.1380172639    -0.0589484436
   21      C      -2.9731024506     1.2915220334     0.0050924657
   22      C      -4.6276189712    -0.6655424248     0.0684563691
   23      C      -2.8087330782     3.5864629245    -0.0521867193
   24      C      -3.6673652952     2.5511026066    -0.0164418304
   25      N      -4.8195375688    -1.9157490615     0.3743673777
   26      S      -6.0873747784     0.1909447151    -0.3313606070
   27      C      -6.1399207415    -2.2440633531     0.3050858143
   28      C      -6.9826502207    -1.2438485819    -0.0523829832
   29      H       8.6993391598     0.5922727100    -0.1458578159
   30      H       7.4505514450     2.1347777771     1.3433088228
   31      H       4.9655612801     1.9543540744     1.4397679224
   32      H       5.2510720072    -1.2188673230    -1.4146907491
   33      H       3.0618329284     2.3276723811    -0.0718962969
   34      H      -3.0687234740     4.6328448635    -0.0723558593
   35      H      -4.7391170845     2.6690131725     0.0023525120
   36      H      -6.4436005326    -3.2534957995     0.5365557899
   37      H      -8.0523970177    -1.2732164188    -0.1633508501
 ----------------------------------------------------------------

    8   -2595.9063712603      9.63E-09 Convergence criterion met
 Total energy in the final basis set = -2595.9063712603
 Final energy is   -2595.90637126031
 **  OPTIMIZATION CONVERGED  **

                    Orbital Energies (a.u.)
 --------------------------------------------------------------

 Alpha MOs
 -- Occupied --
-89.154 -89.094 -89.091 -89.078 -14.493 -14.487 -14.452 -14.445
-14.435 -10.374 -10.369 -10.362 -10.359 -10.345 -10.340 -10.338
-10.334 -10.329 -10.328 -10.328 -10.326 -10.326 -10.325 -10.318
-10.317 -10.314 -10.305 -10.302  -8.164  -8.110  -8.105  -8.092
 -6.115  -6.109  -6.108  -6.059  -6.055  -6.054  -6.053  -6.050
 -6.048  -6.042  -6.038  -6.034  -1.152  -1.084  -1.072  -1.054
 -1.024  -1.015  -0.958  -0.945  -0.912  -0.910  -0.907  -0.884
 -0.861  -0.846  -0.830  -0.809  -0.775  -0.752  -0.743  -0.728
 -0.722  -0.700  -0.694  -0.676  -0.646  -0.639  -0.624  -0.621
 -0.615  -0.596  -0.583  -0.576  -0.570  -0.568  -0.542  -0.537
 -0.529  -0.527  -0.519  -0.514  -0.513  -0.502  -0.496  -0.489
 -0.485  -0.480  -0.478  -0.463  -0.458  -0.448  -0.440  -0.433
 -0.431  -0.422  -0.402  -0.396  -0.381  -0.374  -0.370  -0.368
 -0.364  -0.358  -0.342  -0.338  -0.326  -0.320  -0.269

          Ground-State Mulliken Net Atomic Charges

     Atom                 Charge (a.u.)
  ----------------------------------------
      1 C                    -0.072136
      2 C                    -0.102945
      3 N                    -0.155167
      4 C                    -0.156835
      5 C                    -0.095208
      6 C                     0.109576
      7 C                     0.033038
      8 C                    -0.095146
      9 C                     0.018991
     10 N                    -0.185276
     11 N                    -0.276861
     12 C                     0.028557
     13 C                     0.114950
     14 S                     0.414800
     15 N                    -0.280367
     16 C                    -0.059672
     17 S                     0.167955
     18 C                    -0.009109
     19 C                     0.023973
     20 S                     0.095063
     21 C                     0.004795
     22 C                    -0.011201
     23 C                    -0.164204
     24 C                    -0.167456
     25 N                    -0.174114
     26 S                     0.093310
     27 C                    -0.082796
     28 C                    -0.205781
     29 H                     0.123821
     30 H                     0.128826
     31 H                     0.130779
     32 H                     0.128852
     33 H                     0.130873
     34 H                     0.133031
     35 H                     0.133003
     36 H                     0.133678
     37 H                     0.146403
  ----------------------------------------
  Sum of atomic charges =     0.000000

                    Cartesian Multipole Moments
 -----------------------------------------------------------------
    Charge (ESU x 10^10)
                 0.0000
    Dipole Moment (Debye)
         X      -2.6239      Y       1.7898      Z       0.9442
       Tot       3.3135
    Quadrupole Moments (Debye-Ang)
        XX    -163.4311     XY       8.5030     YY    -172.6481
        XZ      11.0000     YZ       2.1120     ZZ    -188.6906

 Total job time:  5955.69s(wall), 90262.03s(cpu)
        *  Thank you very much for using Q-Chem.  Have a nice day.  *
