 Q-Chem 4.4, Q-Chem, Inc., Pleasanton, CA (2016)
 Q-Chem 4.4.2 for Intel X86 Linux

User input:
--------------------------------------------------------------
$comment
OPTIMIZATION
$end

$rem
JOBTYPE OPT
EXCHANGE omegaB97X-D
BASIS cc-pVTZ
$end

$molecule
0 1
C          0.00000        0.00000        0.00000
C          1.38508        0.00000        0.00000
N         -0.72771       -1.11322        0.00000
C          2.04720       -1.21160       -0.00386
C         -0.08136       -2.27149       -0.00595
C          1.30925       -2.38901       -0.00649
C          1.96927       -3.70493        0.02329
C          3.04486       -3.95576        0.82999
C          1.55200       -4.80802       -0.77739
N          3.72631       -5.12438        0.91627
N          0.54624       -4.84522       -1.65350
C          2.26335       -6.04410       -0.69858
C          3.37925       -6.16090        0.19241
S          0.53898       -6.32692       -2.28381
N          1.78433       -6.98642       -1.50573
C          4.16725       -7.35995        0.35676
S          3.93086       -8.84971       -0.49207
C          5.23222       -7.49170        1.21798
C          5.24541       -9.62206        0.30618
S          5.99863       -6.41836        2.33861
C          5.85372       -8.76608        1.20048
C          5.61707      -10.99188        0.02046
C          7.13339       -7.68106        2.76702
C          6.95917       -8.84504        2.11640
N          4.75187      -11.95923       -0.08483
S          7.26858      -11.49572       -0.21252
C          5.37009      -13.14477       -0.35031
C          6.72065      -13.10207       -0.45570
H         -0.55134        0.93273        0.00000
H          1.92494        0.93597       -0.01293
H          3.12873       -1.25416       -0.02668
H         -0.69553       -3.16348       -0.00579
H          3.41622       -3.17720        1.48423
H          7.89362       -7.46677        3.50210
H          7.55900       -9.73031        2.24234
H          4.77922      -14.04105       -0.46201
H          7.40499      -13.90747       -0.65684
$end

$opt
CONSTRAINT
tors 4 6 7 8 42.24575
tors 10 13 16 17 -179.11427
tors 17 19 22 25 -45.00000
ENDCONSTRAINT
$end
--------------------------------------------------------------

   16   -2595.9032194906      4.61E-09 Convergence criterion met
 Total energy in the final basis set = -2595.9032194906
   11   -2595.9037649635      9.84E-09 Convergence criterion met
 Total energy in the final basis set = -2595.9037649635
   11   -2595.9038738933      6.52E-09 Convergence criterion met
 Total energy in the final basis set = -2595.9038738933
   10   -2595.9039029006      8.66E-09 Convergence criterion met
 Total energy in the final basis set = -2595.9039029006
   11   -2595.9039232706      4.79E-09 Convergence criterion met
 Total energy in the final basis set = -2595.9039232706
   10   -2595.9039270731      3.75E-09 Convergence criterion met
 Total energy in the final basis set = -2595.9039270731

             Standard Nuclear Orientation (Angstroms)
    I     Atom           X                Y                Z
 ----------------------------------------------------------------
    1      C       7.6257952467     0.5393925258     0.0293040377
    2      C       6.9078212755     1.4107601798     0.8312465669
    3      N       7.0551069337    -0.3893505809    -0.7322447709
    4      C       5.5289329778     1.3124483916     0.8435995137
    5      C       5.7322165861    -0.4746236409    -0.7131512728
    6      C       4.9082813189     0.3532642194     0.0510876584
    7      C       3.4409901416     0.2341882354     0.0068186082
    8      C       2.6264297657     1.3321067688    -0.0521086552
    9      C       2.7581012391    -1.0163024821     0.0225065833
   10      N       1.2706095264     1.3249301551    -0.0830015899
   11      N       3.2936868859    -2.2364057843     0.0874583296
   12      C       1.3309125504    -1.0386397654    -0.0101719031
   13      C       0.6050597812     0.1961879463    -0.0649876486
   14      S       2.0641218533    -3.2774439958     0.0975623849
   15      N       0.8161337812    -2.2646021120     0.0274857224
   16      C      -0.8376383529     0.2834483884    -0.1002330899
   17      S      -1.9243271062    -1.0606867338    -0.0636561063
   18      C      -1.5568387277     1.4541837399    -0.1718061524
   19      C      -3.3129530111    -0.0555165250    -0.1571702991
   20      S      -1.1175564581     3.1269414724    -0.2468132859
   21      C      -2.9643994916     1.2767073483    -0.1966988435
   22      C      -4.6373678503    -0.6513082811    -0.0947587300
   23      C      -2.8089892564     3.5682440898    -0.3161998411
   24      C      -3.6638381444     2.5307340918    -0.2847662790
   25      N      -4.9964315497    -1.7133143829    -0.7516258655
   26      S      -5.9047081360     0.0487476482     0.8678965419
   27      C      -6.3029734224    -2.0215647813    -0.5069422059
   28      C      -6.9645406814    -1.1848601407     0.3303448515
   29      H       8.7081966695     0.5858527505    -0.0025575886
   30      H       7.4212383866     2.1417864197     1.4391643479
   31      H       4.9349323906     1.9600509843     1.4750551163
   32      H       5.2941949766    -1.2392724305    -1.3422160882
   33      H       3.0708214266     2.3192098543    -0.0924523817
   34      H      -3.0695847044     4.6123169345    -0.3854746222
   35      H      -4.7366564400     2.6327942268    -0.3313403825
   36      H      -6.7380955153    -2.8868356502    -0.9828087813
   37      H      -7.9904477007    -1.2309058434     0.6517257150
 ----------------------------------------------------------------

    8   -2595.9039278047      9.33E-09 Convergence criterion met
 Total energy in the final basis set = -2595.9039278047
 Final energy is   -2595.90392780469
 **  OPTIMIZATION CONVERGED  **

                    Orbital Energies (a.u.)
 --------------------------------------------------------------

 Alpha MOs
 -- Occupied --
-89.155 -89.094 -89.092 -89.077 -14.494 -14.487 -14.452 -14.446
-14.435 -10.374 -10.369 -10.362 -10.359 -10.345 -10.340 -10.338
-10.334 -10.329 -10.328 -10.326 -10.326 -10.326 -10.325 -10.318
-10.316 -10.314 -10.304 -10.302  -8.165  -8.110  -8.106  -8.091
 -6.115  -6.109  -6.109  -6.059  -6.056  -6.055  -6.053  -6.052
 -6.049  -6.041  -6.037  -6.034  -1.152  -1.084  -1.072  -1.054
 -1.024  -1.015  -0.958  -0.945  -0.912  -0.910  -0.907  -0.884
 -0.861  -0.846  -0.831  -0.809  -0.775  -0.752  -0.744  -0.728
 -0.722  -0.698  -0.693  -0.676  -0.647  -0.640  -0.623  -0.621
 -0.616  -0.597  -0.584  -0.577  -0.570  -0.567  -0.541  -0.536
 -0.528  -0.527  -0.518  -0.515  -0.512  -0.502  -0.496  -0.490
 -0.486  -0.480  -0.478  -0.463  -0.459  -0.448  -0.440  -0.432
 -0.430  -0.423  -0.402  -0.393  -0.380  -0.373  -0.370  -0.369
 -0.364  -0.357  -0.342  -0.339  -0.327  -0.320  -0.272

          Ground-State Mulliken Net Atomic Charges

     Atom                 Charge (a.u.)
  ----------------------------------------
      1 C                    -0.072391
      2 C                    -0.102896
      3 N                    -0.155063
      4 C                    -0.157364
      5 C                    -0.095192
      6 C                     0.110067
      7 C                     0.032877
      8 C                    -0.094667
      9 C                     0.018970
     10 N                    -0.184883
     11 N                    -0.276545
     12 C                     0.029306
     13 C                     0.112224
     14 S                     0.414506
     15 N                    -0.282196
     16 C                    -0.064683
     17 S                     0.170632
     18 C                    -0.005376
     19 C                     0.061669
     20 S                     0.093422
     21 C                    -0.010088
     22 C                    -0.050564
     23 C                    -0.163953
     24 C                    -0.167212
     25 N                    -0.166480
     26 S                     0.102863
     27 C                    -0.089437
     28 C                    -0.196048
     29 H                     0.123905
     30 H                     0.128958
     31 H                     0.130583
     32 H                     0.129023
     33 H                     0.131012
     34 H                     0.132035
     35 H                     0.135458
     36 H                     0.133039
     37 H                     0.144486
  ----------------------------------------
  Sum of atomic charges =     0.000000

                    Cartesian Multipole Moments
 -----------------------------------------------------------------
    Charge (ESU x 10^10)
                 0.0000
    Dipole Moment (Debye)
         X      -2.6360      Y       1.6907      Z       1.9686
       Tot       3.6989
    Quadrupole Moments (Debye-Ang)
        XX    -164.1139     XY       8.6615     YY    -173.1671
        XZ       5.5652     YZ       0.8637     ZZ    -188.3147

 Total job time:  5998.77s(wall), 90874.43s(cpu)
        *  Thank you very much for using Q-Chem.  Have a nice day.  *
