 Q-Chem 4.4, Q-Chem, Inc., Pleasanton, CA (2016)
 Q-Chem 4.4.2 for Intel X86 Linux

User input:
--------------------------------------------------------------
$comment
OPTIMIZATION
$end

$rem
JOBTYPE OPT
EXCHANGE omegaB97X-D
BASIS cc-pVTZ
$end

$molecule
0 1
C          0.00000        0.00000        0.00000
C          1.38508        0.00000        0.00000
N         -0.72771       -1.11322        0.00000
C          2.04720       -1.21160       -0.00386
C         -0.08136       -2.27149       -0.00595
C          1.30925       -2.38901       -0.00649
C          1.96927       -3.70493        0.02329
C          3.04486       -3.95576        0.82999
C          1.55200       -4.80802       -0.77739
N          3.72631       -5.12438        0.91627
N          0.54624       -4.84522       -1.65350
C          2.26335       -6.04410       -0.69858
C          3.37925       -6.16090        0.19241
S          0.53898       -6.32692       -2.28381
N          1.78433       -6.98642       -1.50573
C          4.16725       -7.35995        0.35676
S          3.93086       -8.84971       -0.49207
C          5.23222       -7.49170        1.21798
C          5.24541       -9.62206        0.30618
S          5.99863       -6.41836        2.33861
C          5.85372       -8.76608        1.20048
C          5.61707      -10.99188        0.02046
C          7.13339       -7.68106        2.76702
C          6.95917       -8.84504        2.11640
N          6.15987      -11.78282        0.90092
S          5.37865      -11.73188       -1.53876
C          6.41391      -13.01129        0.36753
C          6.06560      -13.18060       -0.93130
H         -0.55134        0.93273        0.00000
H          1.92494        0.93597       -0.01293
H          3.12873       -1.25416       -0.02668
H         -0.69553       -3.16348       -0.00579
H          3.41622       -3.17720        1.48423
H          7.89362       -7.46677        3.50210
H          7.55900       -9.73031        2.24234
H          6.86773      -13.77521        0.98022
H          6.17402      -14.05563       -1.54775
$end

$opt
CONSTRAINT
tors 4 6 7 8 42.24575
tors 10 13 16 17 -179.11427
tors 17 19 22 25 -150.00000
ENDCONSTRAINT
$end
--------------------------------------------------------------

   16   -2595.9054429216      4.83E-09 Convergence criterion met
 Total energy in the final basis set = -2595.9054429216
   12   -2595.9056789442      4.43E-09 Convergence criterion met
 Total energy in the final basis set = -2595.9056789442
   11   -2595.9057339505      4.98E-09 Convergence criterion met
 Total energy in the final basis set = -2595.9057339505
   11   -2595.9057560565      5.18E-09 Convergence criterion met
 Total energy in the final basis set = -2595.9057560565
   10   -2595.9057635302      5.32E-09 Convergence criterion met
 Total energy in the final basis set = -2595.9057635302
    9   -2595.9057656764      8.13E-09 Convergence criterion met
 Total energy in the final basis set = -2595.9057656764

             Standard Nuclear Orientation (Angstroms)
    I     Atom           X                Y                Z
 ----------------------------------------------------------------
    1      C       7.6132451303     0.3796363644    -0.0198116488
    2      C       6.9359309164     1.2420253041     0.8259878353
    3      N       7.0014351998    -0.4986326513    -0.8087681479
    4      C       5.5548354002     1.1887109921     0.8550233921
    5      C       5.6768597371    -0.5408071226    -0.7733325520
    6      C       4.8913926062     0.2827514657     0.0348777697
    7      C       3.4205674288     0.2123702715     0.0102970135
    8      C       2.6412882241     1.3374370872     0.0091786537
    9      C       2.6971444839    -1.0150981117    -0.0163798316
   10      N       1.2858371220     1.3762693213     0.0031332689
   11      N       3.1925172422    -2.2537768652    -0.0156488435
   12      C       1.2695817639    -0.9891837547    -0.0277400526
   13      C       0.5839334239     0.2696501194    -0.0150130393
   14      S       1.9295730679    -3.2536841017    -0.0349259714
   15      N       0.7148534669    -2.1980328179    -0.0399771142
   16      C      -0.8544955180     0.4033562805    -0.0213998752
   17      S      -1.9786173278    -0.9121901751    -0.0227442813
   18      C      -1.5445290477     1.5938814294    -0.0335123509
   19      C      -3.3429247134     0.1332179872    -0.0123277995
   20      S      -1.0671689407     3.2568686854    -0.0445733331
   21      C      -2.9560064727     1.4545870975    -0.0406032287
   22      C      -4.7002949538    -0.3760813879    -0.0364012319
   23      C      -2.7514671684     3.7399631337    -0.0657245519
   24      C      -3.6302141335     2.7224561757    -0.0617710983
   25      N      -5.6996206218     0.2614429982    -0.5736860254
   26      S      -5.1279402395    -1.9186593940     0.6418081412
   27      C      -6.8534108376    -0.4576387351    -0.4647532579
   28      C      -6.7482714719    -1.6623589140     0.1485553191
   29      H       8.6960688887     0.3909610674    -0.0656506694
   30      H       7.4823544544     1.9302767757     1.4546899668
   31      H       4.9909717150     1.8309485126     1.5187841474
   32      H       5.2045888617    -1.2645598206    -1.4255678378
   33      H       3.1172442752     2.3104567759     0.0007518911
   34      H      -2.9856460897     4.7924576419    -0.0860150953
   35      H      -4.7020692491     2.8300372154    -0.0919718346
   36      H      -7.7675382250    -0.0499303432    -0.8683066332
   37      H      -7.5171379511    -2.3913657338     0.3346964389
 ----------------------------------------------------------------

    8   -2595.9057661194      9.00E-09 Convergence criterion met
 Total energy in the final basis set = -2595.9057661194
 Final energy is   -2595.90576611944
 **  OPTIMIZATION CONVERGED  **

                    Orbital Energies (a.u.)
 --------------------------------------------------------------

 Alpha MOs
 -- Occupied --
-89.156 -89.095 -89.094 -89.075 -14.495 -14.488 -14.452 -14.446
-14.436 -10.374 -10.370 -10.363 -10.360 -10.345 -10.340 -10.340
-10.334 -10.329 -10.328 -10.326 -10.326 -10.326 -10.323 -10.318
-10.315 -10.314 -10.303 -10.297  -8.166  -8.109  -8.109  -8.089
 -6.116  -6.110  -6.110  -6.058  -6.058  -6.055  -6.054  -6.052
 -6.052  -6.039  -6.035  -6.032  -1.153  -1.084  -1.073  -1.054
 -1.024  -1.016  -0.957  -0.946  -0.913  -0.911  -0.907  -0.884
 -0.861  -0.845  -0.830  -0.808  -0.775  -0.752  -0.745  -0.728
 -0.723  -0.695  -0.690  -0.679  -0.649  -0.641  -0.623  -0.621
 -0.610  -0.596  -0.584  -0.577  -0.570  -0.568  -0.540  -0.536
 -0.526  -0.523  -0.518  -0.515  -0.512  -0.503  -0.496  -0.491
 -0.489  -0.481  -0.478  -0.463  -0.458  -0.449  -0.438  -0.433
 -0.429  -0.423  -0.403  -0.394  -0.382  -0.373  -0.371  -0.370
 -0.364  -0.358  -0.342  -0.337  -0.327  -0.319  -0.270

          Ground-State Mulliken Net Atomic Charges

     Atom                 Charge (a.u.)
  ----------------------------------------
      1 C                    -0.071932
      2 C                    -0.102788
      3 N                    -0.155298
      4 C                    -0.156775
      5 C                    -0.095026
      6 C                     0.109310
      7 C                     0.030802
      8 C                    -0.093124
      9 C                     0.020549
     10 N                    -0.183045
     11 N                    -0.276548
     12 C                     0.028196
     13 C                     0.114409
     14 S                     0.412823
     15 N                    -0.284666
     16 C                    -0.061106
     17 S                     0.140416
     18 C                    -0.005959
     19 C                     0.011071
     20 S                     0.090793
     21 C                     0.012244
     22 C                    -0.000006
     23 C                    -0.162951
     24 C                    -0.157243
     25 N                    -0.178367
     26 S                     0.106819
     27 C                    -0.080605
     28 C                    -0.198139
     29 H                     0.123932
     30 H                     0.128655
     31 H                     0.131191
     32 H                     0.128705
     33 H                     0.131143
     34 H                     0.131182
     35 H                     0.136574
     36 H                     0.131219
     37 H                     0.143545
  ----------------------------------------
  Sum of atomic charges =     0.000000

                    Cartesian Multipole Moments
 -----------------------------------------------------------------
    Charge (ESU x 10^10)
                 0.0000
    Dipole Moment (Debye)
         X      -2.0188      Y       0.1059      Z       1.7342
       Tot       2.6635
    Quadrupole Moments (Debye-Ang)
        XX    -169.0288     XY      16.0227     YY    -171.5821
        XZ       7.7145     YZ       1.5454     ZZ    -188.3771

 Total job time:  6001.36s(wall), 90805.05s(cpu)
        *  Thank you very much for using Q-Chem.  Have a nice day.  *
