 Q-Chem 4.4, Q-Chem, Inc., Pleasanton, CA (2016)
 Q-Chem 4.4.2 for Intel X86 Linux

User input:
--------------------------------------------------------------
$comment
OPTIMIZATION
$end

$rem
JOBTYPE OPT
EXCHANGE omegaB97X-D
BASIS cc-pVTZ
$end

$molecule
0 1
C          0.00000        0.00000        0.00000
C          1.38508        0.00000        0.00000
N         -0.72771       -1.11322        0.00000
C          2.04720       -1.21160       -0.00386
C         -0.08136       -2.27149       -0.00595
C          1.30925       -2.38901       -0.00649
C          1.96927       -3.70493        0.02329
C          3.04486       -3.95576        0.82999
C          1.55200       -4.80802       -0.77739
N          3.72631       -5.12438        0.91627
N          0.54624       -4.84522       -1.65350
C          2.26335       -6.04410       -0.69858
C          3.37925       -6.16090        0.19241
S          0.53898       -6.32692       -2.28381
N          1.78433       -6.98642       -1.50573
C          4.16725       -7.35995        0.35676
S          3.93086       -8.84971       -0.49207
C          5.23222       -7.49170        1.21798
C          5.24541       -9.62206        0.30618
S          5.99863       -6.41836        2.33861
C          5.85372       -8.76608        1.20048
C          5.61707      -10.99188        0.02046
C          7.13339       -7.68106        2.76702
C          6.95917       -8.84504        2.11640
N          6.75397      -11.51343        0.38221
S          4.57977      -12.09376       -0.84296
C          6.84839      -12.81279       -0.01896
C          5.78139      -13.30752       -0.69252
H         -0.55134        0.93273        0.00000
H          1.92494        0.93597       -0.01293
H          3.12873       -1.25416       -0.02668
H         -0.69553       -3.16348       -0.00579
H          3.41622       -3.17720        1.48423
H          7.89362       -7.46677        3.50210
H          7.55900       -9.73031        2.24234
H          7.73980      -13.37749        0.20781
H          5.64123      -14.29387       -1.09860
$end

$opt
CONSTRAINT
tors 4 6 7 8 42.24575
tors 10 13 16 17 -179.11427
tors 17 19 22 25 165.00000
ENDCONSTRAINT
$end
--------------------------------------------------------------

   16   -2595.9063517168      4.76E-09 Convergence criterion met
 Total energy in the final basis set = -2595.9063517168
   11   -2595.9064648326      9.86E-09 Convergence criterion met
 Total energy in the final basis set = -2595.9064648326
   10   -2595.9064842944      7.07E-09 Convergence criterion met
 Total energy in the final basis set = -2595.9064842944
    9   -2595.9064884907      8.59E-09 Convergence criterion met
 Total energy in the final basis set = -2595.9064884907
    9   -2595.9064905451      8.01E-09 Convergence criterion met
 Total energy in the final basis set = -2595.9064905451

             Standard Nuclear Orientation (Angstroms)
    I     Atom           X                Y                Z
 ----------------------------------------------------------------
    1      C       7.6113880438     0.3749386107    -0.0988948538
    2      C       6.9485244206     1.2851339960     0.7073621283
    3      N       6.9865111518    -0.5476167698    -0.8245924057
    4      C       5.5680622361     1.2342924289     0.7632225418
    5      C       5.6628224532    -0.5864501096    -0.7645135861
    6      C       4.8910952653     0.2835535732     0.0074444023
    7      C       3.4201419135     0.2137830812     0.0093640091
    8      C       2.6411829386     1.3377602171    -0.0450725537
    9      C       2.6962968363    -1.0124828429     0.0626955363
   10      N       1.2859502914     1.3770488174    -0.0387720188
   11      N       3.1919187181    -2.2491610105     0.1318386197
   12      C       1.2686473505    -0.9863519700     0.0663551055
   13      C       0.5835590373     0.2716861235     0.0120994641
   14      S       1.9288494202    -3.2475144270     0.1875467630
   15      N       0.7140851432    -2.1934720356     0.1333814092
   16      C      -0.8546248698     0.4066984575     0.0093583287
   17      S      -1.9791321541    -0.9053915086     0.0922860822
   18      C      -1.5441594137     1.5957932361    -0.0501749902
   19      C      -3.3446365240     0.1378289549     0.0264098999
   20      S      -1.0623001121     3.2545899494    -0.1436260289
   21      C      -2.9562414244     1.4592786289    -0.0363720273
   22      C      -4.7009636948    -0.3696198493     0.0533825941
   23      C      -2.7449066843     3.7410179219    -0.1652552666
   24      C      -3.6267051062     2.7275547884    -0.1048760898
   25      N      -5.7419067936     0.3766386232     0.2877920285
   26      S      -5.0835680723    -2.0419994779    -0.2351668679
   27      C      -6.8901154095    -0.3573875941     0.2495513440
   28      C      -6.7429645635    -1.6798579758    -0.0098728991
   29      H       8.6932671359     0.3829228340    -0.1639666931
   30      H       7.5044442173     2.0082402491     1.2866628702
   31      H       5.0155220075     1.9126828127     1.3999731031
   32      H       5.1787147836    -1.3484295712    -1.3625084369
   33      H       3.1168792966     2.3086919075    -0.1119463126
   34      H      -2.9765524194     4.7927400980    -0.2221777401
   35      H      -4.6982617592     2.8377446041    -0.0956528559
   36      H      -7.8353536996     0.1338536897     0.4228216641
   37      H      -7.5019051667    -2.4381257853    -0.0887413640
 ----------------------------------------------------------------

    9   -2595.9064912693      4.80E-09 Convergence criterion met
 Total energy in the final basis set = -2595.9064912693
 Final energy is   -2595.90649126933
 **  OPTIMIZATION CONVERGED  **

                    Orbital Energies (a.u.)
 --------------------------------------------------------------

 Alpha MOs
 -- Occupied --
-89.156 -89.094 -89.093 -89.075 -14.495 -14.488 -14.452 -14.445
-14.436 -10.375 -10.370 -10.363 -10.360 -10.345 -10.341 -10.340
-10.334 -10.329 -10.328 -10.326 -10.326 -10.326 -10.322 -10.318
-10.315 -10.314 -10.303 -10.296  -8.166  -8.109  -8.109  -8.089
 -6.116  -6.111  -6.110  -6.058  -6.058  -6.054  -6.054  -6.052
 -6.052  -6.039  -6.035  -6.032  -1.153  -1.084  -1.073  -1.055
 -1.024  -1.016  -0.957  -0.946  -0.912  -0.911  -0.907  -0.884
 -0.862  -0.845  -0.830  -0.808  -0.776  -0.753  -0.745  -0.728
 -0.724  -0.695  -0.689  -0.679  -0.648  -0.641  -0.623  -0.621
 -0.609  -0.595  -0.584  -0.577  -0.570  -0.568  -0.541  -0.536
 -0.526  -0.523  -0.518  -0.514  -0.512  -0.503  -0.496  -0.491
 -0.489  -0.481  -0.477  -0.463  -0.458  -0.449  -0.438  -0.432
 -0.430  -0.423  -0.403  -0.397  -0.382  -0.373  -0.371  -0.370
 -0.364  -0.358  -0.342  -0.337  -0.327  -0.319  -0.268

          Ground-State Mulliken Net Atomic Charges

     Atom                 Charge (a.u.)
  ----------------------------------------
      1 C                    -0.071841
      2 C                    -0.102809
      3 N                    -0.155344
      4 C                    -0.157143
      5 C                    -0.095119
      6 C                     0.109555
      7 C                     0.031859
      8 C                    -0.092990
      9 C                     0.020165
     10 N                    -0.182910
     11 N                    -0.276720
     12 C                     0.026718
     13 C                     0.116025
     14 S                     0.412919
     15 N                    -0.284386
     16 C                    -0.059393
     17 S                     0.133342
     18 C                    -0.007031
     19 C                    -0.007077
     20 S                     0.091289
     21 C                     0.017826
     22 C                     0.022496
     23 C                    -0.162796
     24 C                    -0.159597
     25 N                    -0.182004
     26 S                     0.103161
     27 C                    -0.077382
     28 C                    -0.201825
     29 H                     0.123991
     30 H                     0.128802
     31 H                     0.131338
     32 H                     0.128564
     33 H                     0.131242
     34 H                     0.131268
     35 H                     0.140155
     36 H                     0.130811
     37 H                     0.144841
  ----------------------------------------
  Sum of atomic charges =     0.000000

                    Cartesian Multipole Moments
 -----------------------------------------------------------------
    Charge (ESU x 10^10)
                 0.0000
    Dipole Moment (Debye)
         X      -1.9151      Y       0.1266      Z       0.9605
       Tot       2.1462
    Quadrupole Moments (Debye-Ang)
        XX    -169.1823     XY      16.8405     YY    -171.2465
        XZ      10.5972     YZ       1.3639     ZZ    -188.8038

 Total job time:  5118.83s(wall), 77452.51s(cpu)
        *  Thank you very much for using Q-Chem.  Have a nice day.  *
