 Q-Chem 4.4, Q-Chem, Inc., Pleasanton, CA (2016)
 Q-Chem 4.4.2 for Intel X86 Linux

User input:
--------------------------------------------------------------
$comment
OPTIMIZATION
$end

$rem
JOBTYPE OPT
EXCHANGE omegaB97X-D
BASIS cc-pVTZ
$end

$molecule
0 1
C          0.00000        0.00000        0.00000
C          1.38508        0.00000        0.00000
N         -0.72771       -1.11322        0.00000
C          2.04720       -1.21160       -0.00386
C         -0.08136       -2.27149       -0.00595
C          1.30925       -2.38901       -0.00649
C          1.96927       -3.70493        0.02329
C          3.04486       -3.95576        0.82999
C          1.55200       -4.80802       -0.77739
N          3.72631       -5.12438        0.91627
N          0.54624       -4.84522       -1.65350
C          2.26335       -6.04410       -0.69858
C          3.37925       -6.16090        0.19241
S          0.53898       -6.32692       -2.28381
N          1.78433       -6.98642       -1.50573
C          4.16725       -7.35995        0.35676
S          3.93086       -8.84971       -0.49207
C          5.23222       -7.49170        1.21798
C          5.24541       -9.62206        0.30618
S          5.99863       -6.41836        2.33861
C          5.85372       -8.76608        1.20048
C          5.61707      -10.99188        0.02046
C          7.13339       -7.68106        2.76702
C          6.95917       -8.84504        2.11640
N          4.84670      -11.82124       -0.62306
S          7.14038      -11.68126        0.51026
C          5.43654      -13.04381       -0.74791
C          6.67147      -13.16803       -0.20345
H         -0.55134        0.93273        0.00000
H          1.92494        0.93597       -0.01293
H          3.12873       -1.25416       -0.02668
H         -0.69553       -3.16348       -0.00579
H          3.41622       -3.17720        1.48423
H          7.89362       -7.46677        3.50210
H          7.55900       -9.73031        2.24234
H          4.91394      -13.83843       -1.25821
H          7.31343      -14.03112       -0.18312
$end

$opt
CONSTRAINT
tors 4 6 7 8 42.24575
tors 10 13 16 17 -179.11427
tors 17 19 22 25 -15.00000
ENDCONSTRAINT
$end
--------------------------------------------------------------

   16   -2595.9052639375      4.91E-09 Convergence criterion met
 Total energy in the final basis set = -2595.9052639375
   13   -2595.9062527028      4.60E-09 Convergence criterion met
 Total energy in the final basis set = -2595.9062527028
   10   -2595.9063525345      8.63E-09 Convergence criterion met
 Total energy in the final basis set = -2595.9063525345
   10   -2595.9063646321      4.48E-09 Convergence criterion met
 Total energy in the final basis set = -2595.9063646321
    9   -2595.9063670654      5.32E-09 Convergence criterion met
 Total energy in the final basis set = -2595.9063670654
    9   -2595.9063683684      5.35E-09 Convergence criterion met
 Total energy in the final basis set = -2595.9063683684

             Standard Nuclear Orientation (Angstroms)
    I     Atom           X                Y                Z
 ----------------------------------------------------------------
    1      C       7.6178514512     0.5539548900    -0.0209972503
    2      C       6.9073171881     1.4228134699     0.7902233471
    3      N       7.0403009990    -0.3742113045    -0.7780541881
    4      C       5.5288060702     1.3223931258     0.8172819377
    5      C       5.7178333353    -0.4615399756    -0.7448053239
    6      C       4.9009322410     0.3637587363     0.0297707673
    7      C       3.4334404181     0.2426331833     0.0017575852
    8      C       2.6168860344     1.3398223099    -0.0458266009
    9      C       2.7522818656    -1.0086065119     0.0221378217
   10      N       1.2611676544     1.3308924529    -0.0599065017
   11      N       3.2903145417    -2.2281699837     0.0766917267
   12      C       1.3246959773    -1.0327836689     0.0057866791
   13      C       0.5966479664     0.2013195683    -0.0357937501
   14      S       2.0623218333    -3.2709065652     0.0967396094
   15      N       0.8123048545    -2.2597311318     0.0441897885
   16      C      -0.8464223757     0.2878416325    -0.0517360964
   17      S      -1.9300250837    -1.0579044444    -0.0039666797
   18      C      -1.5650973210     1.4597656086    -0.1070383552
   19      C      -3.3214268829    -0.0493682980    -0.0579732590
   20      S      -1.1194992396     3.1310290394    -0.1792139327
   21      C      -2.9728439436     1.2852138698    -0.1107953444
   22      C      -4.6282618842    -0.6691565822    -0.0145286466
   23      C      -2.8076943066     3.5781684821    -0.2215103520
   24      C      -3.6666443194     2.5432377439    -0.1818836643
   25      N      -4.8245161934    -1.9392019807    -0.2191817960
   26      S      -6.0830522762     0.2187504013     0.3314862225
   27      C      -6.1444123381    -2.2587411253    -0.1099432487
   28      C      -6.9823562616    -1.2321658365     0.1769378046
   29      H       8.6997687011     0.6021385170    -0.0646070455
   30      H       7.4261148528     2.1534783431     1.3939926144
   31      H       4.9405733112     1.9682805018     1.4558510814
   32      H       5.2741559688    -1.2257262648    -1.3704235504
   33      H       3.0596848887     2.3275095341    -0.0896670543
   34      H      -3.0670992484     4.6231801723    -0.2807692467
   35      H      -4.7383106984     2.6595868188    -0.2116319234
   36      H      -6.4516967624    -3.2826487807    -0.2581986324
   37      H      -8.0509034268    -1.2508166027     0.3008670534
 ----------------------------------------------------------------

    8   -2595.9063687280      6.56E-09 Convergence criterion met
 Total energy in the final basis set = -2595.9063687280
 Final energy is   -2595.90636872802
 **  OPTIMIZATION CONVERGED  **

                    Orbital Energies (a.u.)
 --------------------------------------------------------------

 Alpha MOs
 -- Occupied --
-89.154 -89.094 -89.091 -89.078 -14.493 -14.487 -14.452 -14.445
-14.435 -10.374 -10.369 -10.362 -10.359 -10.345 -10.340 -10.338
-10.334 -10.329 -10.328 -10.328 -10.326 -10.326 -10.325 -10.318
-10.317 -10.314 -10.305 -10.302  -8.164  -8.110  -8.105  -8.092
 -6.115  -6.109  -6.108  -6.058  -6.055  -6.054  -6.053  -6.050
 -6.048  -6.042  -6.038  -6.034  -1.152  -1.084  -1.072  -1.054
 -1.024  -1.015  -0.958  -0.945  -0.912  -0.910  -0.907  -0.884
 -0.861  -0.846  -0.831  -0.809  -0.775  -0.752  -0.743  -0.728
 -0.722  -0.700  -0.694  -0.676  -0.646  -0.639  -0.624  -0.621
 -0.615  -0.596  -0.583  -0.577  -0.570  -0.567  -0.542  -0.537
 -0.529  -0.527  -0.519  -0.514  -0.512  -0.502  -0.496  -0.490
 -0.484  -0.480  -0.478  -0.463  -0.458  -0.448  -0.440  -0.433
 -0.432  -0.423  -0.402  -0.396  -0.381  -0.374  -0.370  -0.368
 -0.364  -0.358  -0.342  -0.338  -0.327  -0.320  -0.269

          Ground-State Mulliken Net Atomic Charges

     Atom                 Charge (a.u.)
  ----------------------------------------
      1 C                    -0.072280
      2 C                    -0.102929
      3 N                    -0.155104
      4 C                    -0.157156
      5 C                    -0.095155
      6 C                     0.109857
      7 C                     0.033274
      8 C                    -0.095163
      9 C                     0.018652
     10 N                    -0.185363
     11 N                    -0.276775
     12 C                     0.028407
     13 C                     0.115063
     14 S                     0.414818
     15 N                    -0.280295
     16 C                    -0.059874
     17 S                     0.168021
     18 C                    -0.008876
     19 C                     0.024056
     20 S                     0.095140
     21 C                     0.004459
     22 C                    -0.011160
     23 C                    -0.164049
     24 C                    -0.167377
     25 N                    -0.174127
     26 S                     0.092685
     27 C                    -0.082643
     28 C                    -0.205791
     29 H                     0.123870
     30 H                     0.128915
     31 H                     0.130637
     32 H                     0.128979
     33 H                     0.130900
     34 H                     0.132955
     35 H                     0.132964
     36 H                     0.134031
     37 H                     0.146432
  ----------------------------------------
  Sum of atomic charges =     0.000000

                    Cartesian Multipole Moments
 -----------------------------------------------------------------
    Charge (ESU x 10^10)
                 0.0000
    Dipole Moment (Debye)
         X      -2.6347      Y       1.8225      Z       1.4575
       Tot       3.5195
    Quadrupole Moments (Debye-Ang)
        XX    -163.8106     XY       8.4067     YY    -172.6657
        XZ       8.1232     YZ       1.3233     ZZ    -188.4717

 Total job time:  5912.80s(wall), 89581.01s(cpu)
        *  Thank you very much for using Q-Chem.  Have a nice day.  *
