 Q-Chem 4.4, Q-Chem, Inc., Pleasanton, CA (2016)
 Q-Chem 4.4.2 for Intel X86 Linux

User input:
--------------------------------------------------------------
$comment
OPTIMIZATION
$end

$rem
JOBTYPE OPT
EXCHANGE omegaB97X-D
BASIS cc-pVTZ
$end

$molecule
0 1
C          0.00000        0.00000        0.00000
C          1.38508        0.00000        0.00000
N         -0.72771       -1.11322        0.00000
C          2.04720       -1.21160       -0.00386
C         -0.08136       -2.27149       -0.00595
C          1.30925       -2.38901       -0.00649
C          1.96927       -3.70493        0.02329
C          3.04486       -3.95576        0.82999
C          1.55200       -4.80802       -0.77739
N          3.72631       -5.12438        0.91627
N          0.54624       -4.84522       -1.65350
C          2.26335       -6.04410       -0.69858
C          3.37925       -6.16090        0.19241
S          0.53898       -6.32692       -2.28381
N          1.78433       -6.98642       -1.50573
C          4.16725       -7.35995        0.35676
S          3.93086       -8.84971       -0.49207
C          5.23222       -7.49170        1.21798
C          5.24541       -9.62206        0.30618
S          5.99863       -6.41836        2.33861
C          5.85372       -8.76608        1.20048
C          5.61707      -10.99188        0.02046
C          7.13339       -7.68106        2.76702
C          6.95917       -8.84504        2.11640
N          4.93798      -12.01901        0.44385
S          7.01937      -11.41516       -0.92294
C          5.51060      -13.18773        0.03842
C          6.63740      -13.07248       -0.70588
H         -0.55134        0.93273        0.00000
H          1.92494        0.93597       -0.01293
H          3.12873       -1.25416       -0.02668
H         -0.69553       -3.16348       -0.00579
H          3.41622       -3.17720        1.48423
H          7.89362       -7.46677        3.50210
H          7.55900       -9.73031        2.24234
H          5.05919      -14.12763        0.31725
H          7.24799      -13.85215       -1.12628
$end

$opt
CONSTRAINT
tors 4 6 7 8 42.24575
tors 10 13 16 17 -179.11427
tors 17 19 22 25 -75.00000
ENDCONSTRAINT
$end
--------------------------------------------------------------

   16   -2595.8993563386      4.54E-09 Convergence criterion met
 Total energy in the final basis set = -2595.8993563386
   12   -2595.8999881620      5.57E-09 Convergence criterion met
 Total energy in the final basis set = -2595.8999881620
   11   -2595.9000942936      8.70E-09 Convergence criterion met
 Total energy in the final basis set = -2595.9000942936
   11   -2595.9001255673      4.95E-09 Convergence criterion met
 Total energy in the final basis set = -2595.9001255673
   11   -2595.9001534744      7.26E-09 Convergence criterion met
 Total energy in the final basis set = -2595.9001534744
   10   -2595.9001615724      8.22E-09 Convergence criterion met
 Total energy in the final basis set = -2595.9001615724

             Standard Nuclear Orientation (Angstroms)
    I     Atom           X                Y                Z
 ----------------------------------------------------------------
    1      C       7.6333881082     0.4956021467     0.0737250093
    2      C       6.9133603495     1.3576799751     0.8838199102
    3      N       7.0640473876    -0.4149818172    -0.7104511737
    4      C       5.5337466997     1.2692447381     0.8803599211
    5      C       5.7404474178    -0.4909665647    -0.7063554272
    6      C       4.9146478969     0.3289981461     0.0643399172
    7      C       3.4470718043     0.2201099207     0.0046638707
    8      C       2.6395660111     1.3236785187    -0.0409191152
    9      C       2.7566083673    -1.0263327839    -0.0088784479
   10      N       1.2836653308     1.3254397437    -0.0818072094
   11      N       3.2842940432    -2.2507314987     0.0363143741
   12      C       1.3296639727    -1.0391718123    -0.0530997240
   13      C       0.6116023285     0.2008475000    -0.0892546150
   14      S       2.0485833386    -3.2842390420     0.0162447674
   15      N       0.8072262302    -2.2624882719    -0.0438016983
   16      C      -0.8307338395     0.2970794533    -0.1315055283
   17      S      -1.9260045997    -1.0422902541    -0.1270047889
   18      C      -1.5451224784     1.4711459953    -0.1808290108
   19      C      -3.3084097085    -0.0303089125    -0.2065942716
   20      S      -1.1085836761     3.1463224623    -0.2095107940
   21      C      -2.9532943880     1.2965078275    -0.2153856782
   22      C      -4.6601058440    -0.5906406175    -0.1676457863
   23      C      -2.8028376085     3.5885248403    -0.2654018701
   24      C      -3.6561640629     2.5501090251    -0.2641277813
   25      N      -5.2423449375    -1.2063276671    -1.1497981652
   26      S      -5.6615058871    -0.3909634331     1.2379415829
   27      C      -6.5183887877    -1.5619141585    -0.8165355557
   28      C      -6.9286093223    -1.2044073778     0.4258482919
   29      H       8.7163728000     0.5344344365     0.0541220944
   30      H       7.4258599503     2.0736938737     1.5100958369
   31      H       4.9378724342     1.9099477503     1.5170575472
   32      H       5.3035625526    -1.2408192188    -1.3537771359
   33      H       3.0899816815     2.3086435590    -0.0603685424
   34      H      -3.0628041202     4.6345003101    -0.3011956904
   35      H      -4.7301097110     2.6453070025    -0.3020516509
   36      H      -7.1227116937    -2.0913037626    -1.5368754259
   37      H      -7.8846248986    -1.3750934545     0.8896621404
 ----------------------------------------------------------------

    9   -2595.9001634207      4.54E-09 Convergence criterion met
 Total energy in the final basis set = -2595.9001634207
 Final energy is   -2595.90016342075
 **  OPTIMIZATION CONVERGED  **

                    Orbital Energies (a.u.)
 --------------------------------------------------------------

 Alpha MOs
 -- Occupied --
-89.155 -89.094 -89.093 -89.077 -14.494 -14.488 -14.452 -14.448
-14.435 -10.373 -10.369 -10.362 -10.359 -10.344 -10.340 -10.338
-10.334 -10.330 -10.327 -10.326 -10.326 -10.326 -10.325 -10.318
-10.315 -10.314 -10.303 -10.302  -8.165  -8.110  -8.107  -8.091
 -6.115  -6.110  -6.109  -6.059  -6.056  -6.055  -6.053  -6.052
 -6.050  -6.040  -6.037  -6.033  -1.152  -1.085  -1.072  -1.054
 -1.024  -1.015  -0.957  -0.946  -0.912  -0.910  -0.907  -0.884
 -0.861  -0.846  -0.830  -0.808  -0.775  -0.752  -0.744  -0.728
 -0.722  -0.696  -0.692  -0.676  -0.649  -0.641  -0.623  -0.621
 -0.615  -0.597  -0.584  -0.577  -0.570  -0.568  -0.540  -0.535
 -0.527  -0.525  -0.519  -0.515  -0.512  -0.502  -0.496  -0.491
 -0.488  -0.480  -0.478  -0.463  -0.458  -0.448  -0.440  -0.432
 -0.429  -0.423  -0.402  -0.390  -0.378  -0.374  -0.370  -0.368
 -0.364  -0.356  -0.342  -0.338  -0.326  -0.321  -0.276

          Ground-State Mulliken Net Atomic Charges

     Atom                 Charge (a.u.)
  ----------------------------------------
      1 C                    -0.072420
      2 C                    -0.102914
      3 N                    -0.155039
      4 C                    -0.157257
      5 C                    -0.095167
      6 C                     0.110172
      7 C                     0.032052
      8 C                    -0.094047
      9 C                     0.019859
     10 N                    -0.183874
     11 N                    -0.276656
     12 C                     0.028708
     13 C                     0.113152
     14 S                     0.414049
     15 N                    -0.283420
     16 C                    -0.068861
     17 S                     0.171564
     18 C                    -0.006156
     19 C                     0.070086
     20 S                     0.091519
     21 C                    -0.010865
     22 C                    -0.088302
     23 C                    -0.160251
     24 C                    -0.163308
     25 N                    -0.150516
     26 S                     0.115873
     27 C                    -0.093939
     28 C                    -0.190573
     29 H                     0.123940
     30 H                     0.128980
     31 H                     0.130613
     32 H                     0.129034
     33 H                     0.131096
     34 H                     0.131675
     35 H                     0.133371
     36 H                     0.133992
     37 H                     0.143828
  ----------------------------------------
  Sum of atomic charges =     0.000000

                    Cartesian Multipole Moments
 -----------------------------------------------------------------
    Charge (ESU x 10^10)
                 0.0000
    Dipole Moment (Debye)
         X      -2.5518      Y       1.3319      Z       2.3957
       Tot       3.7450
    Quadrupole Moments (Debye-Ang)
        XX    -165.0590     XY       9.8065     YY    -173.2318
        XZ       3.7393     YZ       1.0186     ZZ    -188.2349

 Total job time:  6162.55s(wall), 93254.35s(cpu)
        *  Thank you very much for using Q-Chem.  Have a nice day.  *
