 Q-Chem 4.4, Q-Chem, Inc., Pleasanton, CA (2016)
 Q-Chem 4.4.2 for Intel X86 Linux

User input:
--------------------------------------------------------------
$comment
OPTIMIZATION
$end

$rem
JOBTYPE OPT
EXCHANGE omegaB97X-D
BASIS cc-pVTZ
$end

$molecule
0 1
C          0.00000        0.00000        0.00000
C          1.38508        0.00000        0.00000
N         -0.72771       -1.11322        0.00000
C          2.04720       -1.21160       -0.00386
C         -0.08136       -2.27149       -0.00595
C          1.30925       -2.38901       -0.00649
C          1.96927       -3.70493        0.02329
C          3.04486       -3.95576        0.82999
C          1.55200       -4.80802       -0.77739
N          3.72631       -5.12438        0.91627
N          0.54624       -4.84522       -1.65350
C          2.26335       -6.04410       -0.69858
C          3.37925       -6.16090        0.19241
S          0.53898       -6.32692       -2.28381
N          1.78433       -6.98642       -1.50573
C          4.16725       -7.35995        0.35676
S          3.93086       -8.84971       -0.49207
C          5.23222       -7.49170        1.21798
C          5.24541       -9.62206        0.30618
S          5.99863       -6.41836        2.33861
C          5.85372       -8.76608        1.20048
C          5.61707      -10.99188        0.02046
C          7.13339       -7.68106        2.76702
C          6.95917       -8.84504        2.11640
N          6.60626      -11.60078        0.60883
S          4.77855      -11.97638       -1.14712
C          6.74099      -12.87700        0.14916
C          5.85287      -13.26616       -0.79780
H         -0.55134        0.93273        0.00000
H          1.92494        0.93597       -0.01293
H          3.12873       -1.25416       -0.02668
H         -0.69553       -3.16348       -0.00579
H          3.41622       -3.17720        1.48423
H          7.89362       -7.46677        3.50210
H          7.55900       -9.73031        2.24234
H          7.52393      -13.50621        0.54414
H          5.77510      -14.21628       -1.29648
$end

$opt
CONSTRAINT
tors 4 6 7 8 42.24575
tors 10 13 16 17 -179.11427
tors 17 19 22 25 180.00000
ENDCONSTRAINT
$end
--------------------------------------------------------------

   16   -2595.9066840894      4.79E-09 Convergence criterion met
 Total energy in the final basis set = -2595.9066840894
   11   -2595.9067715553      9.24E-09 Convergence criterion met
 Total energy in the final basis set = -2595.9067715553
   10   -2595.9067878164      7.20E-09 Convergence criterion met
 Total energy in the final basis set = -2595.9067878164
    9   -2595.9067897083      7.09E-09 Convergence criterion met
 Total energy in the final basis set = -2595.9067897083

             Standard Nuclear Orientation (Angstroms)
    I     Atom           X                Y                Z
 ----------------------------------------------------------------
    1      C       7.6122441292     0.3813074975    -0.0442838065
    2      C       6.9358424002     1.2672347066     0.7775798591
    3      N       6.9996415839    -0.5195970192    -0.8065761107
    4      C       5.5548047085     1.2136135991     0.8107229702
    5      C       5.6751595713    -0.5617836047    -0.7674948778
    6      C       4.8906395316     0.2834765755     0.0187519576
    7      C       3.4197827246     0.2129119848    -0.0022426000
    8      C       2.6411244657     1.3379476731    -0.0364597184
    9      C       2.6956846013    -1.0143427677     0.0138817642
   10      N       1.2859379842     1.3771131767    -0.0412361763
   11      N       3.1906068706    -2.2525623578     0.0556008943
   12      C       1.2680498200    -0.9881723504     0.0076083659
   13      C       0.5833025459     0.2709248630    -0.0199760936
   14      S       1.9272440150    -3.2518682143     0.0766314042
   15      N       0.7129314001    -2.1964771768     0.0400599733
   16      C      -0.8547906511     0.4063728617    -0.0246416048
   17      S      -1.9791201470    -0.9072381505     0.0220771811
   18      C      -1.5443003460     1.5961442738    -0.0619420411
   19      C      -3.3454868017     0.1369743155    -0.0080797337
   20      S      -1.0606634616     3.2560698804    -0.1174346855
   21      C      -2.9565172975     1.4598387306    -0.0542601046
   22      C      -4.7014822268    -0.3703819436     0.0174437884
   23      C      -2.7424826734     3.7439194856    -0.1329718983
   24      C      -3.6254709928     2.7301432072    -0.0967886970
   25      N      -5.7531227985     0.3975298254    -0.0044817236
   26      S      -5.0735935776    -2.0695167779     0.0831935467
   27      C      -6.9000849806    -0.3377264885     0.0313647189
   28      C      -6.7432071592    -1.6832156757     0.0811554478
   29      H       8.6949887887     0.3921534003    -0.0924453545
   30      H       7.4823703317     1.9736931017     1.3856117373
   31      H       4.9916194294     1.8738412859     1.4571676358
   32      H       5.2023279644    -1.3040784000    -1.3981344604
   33      H       3.1175663176     2.3099991649    -0.0756620535
   34      H      -2.9734879707     4.7966831712    -0.1701361212
   35      H      -4.6968586600     2.8400663834    -0.0992638235
   36      H      -7.8516346726     0.1712013344     0.0202230213
   37      H      -7.4990897413    -2.4475807975     0.1195512047
 ----------------------------------------------------------------

    9   -2595.9067902882      3.70E-09 Convergence criterion met
 Total energy in the final basis set = -2595.9067902882
 Final energy is   -2595.90679028816
 **  OPTIMIZATION CONVERGED  **

                    Orbital Energies (a.u.)
 --------------------------------------------------------------

 Alpha MOs
 -- Occupied --
-89.156 -89.094 -89.093 -89.075 -14.495 -14.489 -14.452 -14.445
-14.436 -10.375 -10.370 -10.363 -10.360 -10.345 -10.341 -10.340
-10.334 -10.329 -10.328 -10.327 -10.327 -10.326 -10.322 -10.318
-10.315 -10.314 -10.303 -10.296  -8.166  -8.109  -8.108  -8.089
 -6.116  -6.111  -6.110  -6.058  -6.057  -6.054  -6.054  -6.052
 -6.051  -6.039  -6.035  -6.032  -1.153  -1.084  -1.073  -1.055
 -1.024  -1.016  -0.957  -0.946  -0.912  -0.911  -0.907  -0.884
 -0.862  -0.845  -0.829  -0.808  -0.776  -0.753  -0.745  -0.728
 -0.724  -0.695  -0.689  -0.679  -0.648  -0.641  -0.623  -0.621
 -0.609  -0.595  -0.584  -0.577  -0.570  -0.568  -0.541  -0.537
 -0.526  -0.523  -0.518  -0.514  -0.512  -0.503  -0.496  -0.491
 -0.489  -0.481  -0.477  -0.463  -0.458  -0.449  -0.437  -0.433
 -0.430  -0.423  -0.403  -0.397  -0.383  -0.373  -0.371  -0.370
 -0.364  -0.358  -0.342  -0.337  -0.327  -0.319  -0.268

          Ground-State Mulliken Net Atomic Charges

     Atom                 Charge (a.u.)
  ----------------------------------------
      1 C                    -0.071823
      2 C                    -0.102805
      3 N                    -0.155286
      4 C                    -0.156982
      5 C                    -0.094834
      6 C                     0.109265
      7 C                     0.031106
      8 C                    -0.093043
      9 C                     0.020130
     10 N                    -0.182784
     11 N                    -0.276031
     12 C                     0.025945
     13 C                     0.117363
     14 S                     0.413033
     15 N                    -0.284370
     16 C                    -0.058684
     17 S                     0.130816
     18 C                    -0.007725
     19 C                    -0.021899
     20 S                     0.091560
     21 C                     0.021222
     22 C                     0.037477
     23 C                    -0.162671
     24 C                    -0.160454
     25 N                    -0.183283
     26 S                     0.100689
     27 C                    -0.074911
     28 C                    -0.203301
     29 H                     0.123983
     30 H                     0.128804
     31 H                     0.131347
     32 H                     0.128482
     33 H                     0.131285
     34 H                     0.131417
     35 H                     0.142212
     36 H                     0.129154
     37 H                     0.145598
  ----------------------------------------
  Sum of atomic charges =     0.000000

                    Cartesian Multipole Moments
 -----------------------------------------------------------------
    Charge (ESU x 10^10)
                 0.0000
    Dipole Moment (Debye)
         X      -1.8970      Y       0.0931      Z       1.2820
       Tot       2.2914
    Quadrupole Moments (Debye-Ang)
        XX    -169.6198     XY      16.5194     YY    -171.2946
        XZ       9.3186     YZ       1.4793     ZZ    -188.5809

 Total job time:  4378.66s(wall), 66263.64s(cpu)
        *  Thank you very much for using Q-Chem.  Have a nice day.  *
