 Q-Chem 4.4, Q-Chem, Inc., Pleasanton, CA (2016)
 Q-Chem 4.4.2 for Intel X86 Linux

User input:
--------------------------------------------------------------
$comment
OPTIMIZATION
$end

$rem
JOBTYPE OPT
EXCHANGE omegaB97X-D
BASIS cc-pVTZ
$end

$molecule
0 1
C          0.00000        0.00000        0.00000
C          1.38508        0.00000        0.00000
N         -0.72771       -1.11322        0.00000
C          2.04720       -1.21160       -0.00386
C         -0.08136       -2.27149       -0.00595
C          1.30925       -2.38901       -0.00649
C          1.96927       -3.70493        0.02329
C          3.04486       -3.95576        0.82999
C          1.55200       -4.80802       -0.77739
N          3.72631       -5.12438        0.91627
N          0.54624       -4.84522       -1.65350
C          2.26335       -6.04410       -0.69858
C          3.37925       -6.16090        0.19241
S          0.53898       -6.32692       -2.28381
N          1.78433       -6.98642       -1.50573
C          4.16725       -7.35995        0.35676
S          3.93086       -8.84971       -0.49207
C          5.23222       -7.49170        1.21798
C          5.24541       -9.62206        0.30618
S          5.99863       -6.41836        2.33861
C          5.85372       -8.76608        1.20048
C          5.61707      -10.99188        0.02046
C          7.13339       -7.68106        2.76702
C          6.95917       -8.84504        2.11640
N          6.40362      -11.69266        0.78576
S          5.05103      -11.85295       -1.38444
C          6.59279      -12.94470        0.28099
C          5.94981      -13.22287       -0.87924
H         -0.55134        0.93273        0.00000
H          1.92494        0.93597       -0.01293
H          3.12873       -1.25416       -0.02668
H         -0.69553       -3.16348       -0.00579
H          3.41622       -3.17720        1.48423
H          7.89362       -7.46677        3.50210
H          7.55900       -9.73031        2.24234
H          7.22649      -13.64187        0.80759
H          5.95682      -14.13502       -1.44967
$end

$opt
CONSTRAINT
tors 4 6 7 8 42.24575
tors 10 13 16 17 -179.11427
tors 17 19 22 25 -165.00000
ENDCONSTRAINT
$end
--------------------------------------------------------------

   16   -2595.9063780034      4.81E-09 Convergence criterion met
 Total energy in the final basis set = -2595.9063780034
   12   -2595.9065102667      4.10E-09 Convergence criterion met
 Total energy in the final basis set = -2595.9065102667
   10   -2595.9065330411      8.23E-09 Convergence criterion met
 Total energy in the final basis set = -2595.9065330411
    9   -2595.9065376403      8.84E-09 Convergence criterion met
 Total energy in the final basis set = -2595.9065376403
    9   -2595.9065390349      4.22E-09 Convergence criterion met
 Total energy in the final basis set = -2595.9065390349

             Standard Nuclear Orientation (Angstroms)
    I     Atom           X                Y                Z
 ----------------------------------------------------------------
    1      C       7.6129995185     0.3788794565    -0.0140406918
    2      C       6.9325705874     1.2478183381     0.8224962893
    3      N       7.0040730669    -0.5046335885    -0.7993801465
    4      C       5.5513137656     1.1956690329     0.8457802275
    5      C       5.6793397951    -0.5457646939    -0.7694219034
    6      C       4.8909656922     0.2839810645     0.0295448335
    7      C       3.4202366340     0.2143753895    -0.0008230293
    8      C       2.6414475955     1.3397674163    -0.0137089869
    9      C       2.6964095543    -1.0129669393    -0.0178543703
   10      N       1.2861740877     1.3789864644    -0.0235357018
   11      N       3.1915491795    -2.2516974422    -0.0049110097
   12      C       1.2688585714    -0.9867004499    -0.0308332999
   13      C       0.5837391238     0.2725004700    -0.0307816010
   14      S       1.9283364637    -3.2513886444    -0.0158398906
   15      N       0.7139331883    -2.1955013862    -0.0319304886
   16      C      -0.8544972633     0.4070129550    -0.0379796215
   17      S      -1.9781436413    -0.9083425088    -0.0262594079
   18      C      -1.5448467043     1.5969805452    -0.0577485670
   19      C      -3.3442576516     0.1359597858    -0.0313684664
   20      S      -1.0643316472     3.2587236809    -0.0787578634
   21      C      -2.9567890535     1.4588375686    -0.0615766191
   22      C      -4.7002165747    -0.3730125542    -0.0184005581
   23      C      -2.7473111879     3.7441107748    -0.0962395584
   24      C      -3.6282994397     2.7281822279    -0.0851353126
   25      N      -5.7424355972     0.3537173075    -0.3026468056
   26      S      -5.0811677368    -2.0201035579     0.3936597709
   27      C      -6.8901355144    -0.3758519015    -0.2073629426
   28      C      -6.7413993707    -1.6757001675     0.1479449701
   29      H       8.6960212430     0.3891013362    -0.0550903185
   30      H       7.4765370704     1.9403068475     1.4486688650
   31      H       4.9849894112     1.8428848692     1.5025734320
   32      H       5.2094304575    -1.2739523210    -1.4184539345
   33      H       3.1178237898     2.3124890175    -0.0293655625
   34      H      -2.9800123725     4.7969253796    -0.1182736638
   35      H      -4.6999040922     2.8365291219    -0.1047432522
   36      H      -7.8359545594     0.1004655480    -0.4155400760
   37      H      -7.4993524683    -2.4270826025     0.2826597650
 ----------------------------------------------------------------

    8   -2595.9065394937      8.09E-09 Convergence criterion met
 Total energy in the final basis set = -2595.9065394937
 Final energy is   -2595.90653949366
 **  OPTIMIZATION CONVERGED  **

                    Orbital Energies (a.u.)
 --------------------------------------------------------------

 Alpha MOs
 -- Occupied --
-89.156 -89.094 -89.093 -89.075 -14.495 -14.488 -14.452 -14.445
-14.436 -10.375 -10.370 -10.363 -10.360 -10.345 -10.341 -10.340
-10.334 -10.329 -10.328 -10.326 -10.326 -10.326 -10.322 -10.318
-10.315 -10.314 -10.303 -10.296  -8.166  -8.109  -8.109  -8.089
 -6.116  -6.111  -6.110  -6.058  -6.058  -6.054  -6.054  -6.052
 -6.052  -6.039  -6.035  -6.032  -1.153  -1.084  -1.073  -1.055
 -1.024  -1.016  -0.957  -0.946  -0.912  -0.911  -0.907  -0.884
 -0.862  -0.845  -0.830  -0.808  -0.776  -0.753  -0.745  -0.728
 -0.724  -0.695  -0.689  -0.679  -0.648  -0.641  -0.623  -0.621
 -0.609  -0.595  -0.584  -0.577  -0.570  -0.568  -0.540  -0.537
 -0.526  -0.523  -0.518  -0.515  -0.512  -0.503  -0.496  -0.491
 -0.489  -0.481  -0.478  -0.463  -0.458  -0.449  -0.438  -0.433
 -0.430  -0.423  -0.403  -0.396  -0.383  -0.373  -0.371  -0.370
 -0.364  -0.358  -0.342  -0.337  -0.327  -0.319  -0.268

          Ground-State Mulliken Net Atomic Charges

     Atom                 Charge (a.u.)
  ----------------------------------------
      1 C                    -0.071865
      2 C                    -0.102846
      3 N                    -0.155282
      4 C                    -0.156737
      5 C                    -0.094947
      6 C                     0.109282
      7 C                     0.030834
      8 C                    -0.093093
      9 C                     0.020710
     10 N                    -0.182883
     11 N                    -0.276521
     12 C                     0.026856
     13 C                     0.116140
     14 S                     0.412919
     15 N                    -0.284504
     16 C                    -0.059338
     17 S                     0.133434
     18 C                    -0.007230
     19 C                    -0.006269
     20 S                     0.091289
     21 C                     0.017182
     22 C                     0.021928
     23 C                    -0.162906
     24 C                    -0.159277
     25 N                    -0.181932
     26 S                     0.102855
     27 C                    -0.077606
     28 C                    -0.201016
     29 H                     0.123971
     30 H                     0.128741
     31 H                     0.131240
     32 H                     0.128687
     33 H                     0.131218
     34 H                     0.131361
     35 H                     0.140315
     36 H                     0.130999
     37 H                     0.144292
  ----------------------------------------
  Sum of atomic charges =     0.000000

                    Cartesian Multipole Moments
 -----------------------------------------------------------------
    Charge (ESU x 10^10)
                 0.0000
    Dipole Moment (Debye)
         X      -1.9367      Y       0.0832      Z       1.5574
       Tot       2.4866
    Quadrupole Moments (Debye-Ang)
        XX    -169.5778     XY      16.2027     YY    -171.4500
        XZ       8.2670     YZ       1.5359     ZZ    -188.4184

 Total job time:  5079.82s(wall), 76885.69s(cpu)
        *  Thank you very much for using Q-Chem.  Have a nice day.  *
