 Q-Chem 4.4, Q-Chem, Inc., Pleasanton, CA (2016)
 Q-Chem 4.4.2 for Intel X86 Linux

User input:
--------------------------------------------------------------
$comment
OPTIMIZATION
$end

$rem
JOBTYPE OPT
EXCHANGE omegaB97X-D
BASIS cc-pVTZ
$end

$molecule
0 1
C          0.00000        0.00000        0.00000
C          1.38508        0.00000        0.00000
N         -0.72771       -1.11322        0.00000
C          2.04720       -1.21160       -0.00386
C         -0.08136       -2.27149       -0.00595
C          1.30925       -2.38901       -0.00649
C          1.96927       -3.70493        0.02329
C          3.04486       -3.95576        0.82999
C          1.55200       -4.80802       -0.77739
N          3.72631       -5.12438        0.91627
N          0.54624       -4.84522       -1.65350
C          2.26335       -6.04410       -0.69858
C          3.37925       -6.16090        0.19241
S          0.53898       -6.32692       -2.28381
N          1.78433       -6.98642       -1.50573
C          4.16725       -7.35995        0.35676
S          3.93086       -8.84971       -0.49207
C          5.23222       -7.49170        1.21798
C          5.24541       -9.62206        0.30618
S          5.99863       -6.41836        2.33861
C          5.85372       -8.76608        1.20048
C          5.61707      -10.99188        0.02046
C          7.13339       -7.68106        2.76702
C          6.95917       -8.84504        2.11640
N          6.78945      -11.33420       -0.43094
S          4.53089      -12.33482        0.24920
C          6.86935      -12.68196       -0.61895
C          5.75787      -13.39358       -0.31050
H         -0.55134        0.93273        0.00000
H          1.92494        0.93597       -0.01293
H          3.12873       -1.25416       -0.02668
H         -0.69553       -3.16348       -0.00579
H          3.41622       -3.17720        1.48423
H          7.89362       -7.46677        3.50210
H          7.55900       -9.73031        2.24234
H          7.78420      -13.11478       -0.99399
H          5.59821      -14.45515       -0.38132
$end

$opt
CONSTRAINT
tors 4 6 7 8 42.24575
tors 10 13 16 17 -179.11427
tors 17 19 22 25 120.00000
ENDCONSTRAINT
$end
--------------------------------------------------------------

   16   -2595.9013210936      4.80E-09 Convergence criterion met
 Total energy in the final basis set = -2595.9013210936
   12   -2595.9017518094      5.12E-09 Convergence criterion met
 Total energy in the final basis set = -2595.9017518094
   11   -2595.9018610144      8.23E-09 Convergence criterion met
 Total energy in the final basis set = -2595.9018610144
   11   -2595.9019094453      8.00E-09 Convergence criterion met
 Total energy in the final basis set = -2595.9019094453
   11   -2595.9019421207      9.11E-09 Convergence criterion met
 Total energy in the final basis set = -2595.9019421207
   10   -2595.9019484652      6.10E-09 Convergence criterion met
 Total energy in the final basis set = -2595.9019484652
    9   -2595.9019497359      6.82E-09 Convergence criterion met
 Total energy in the final basis set = -2595.9019497359

             Standard Nuclear Orientation (Angstroms)
    I     Atom           X                Y                Z
 ----------------------------------------------------------------
    1      C       7.6167853564     0.3853878952    -0.0910339254
    2      C       6.9425591120     1.3049793429     0.6949440227
    3      N       7.0027064321    -0.5516677500    -0.8072846422
    4      C       5.5619221891     1.2482656441     0.7395225560
    5      C       5.6786631985    -0.5959875998    -0.7582222960
    6      C       4.8961678065     0.2823490711    -0.0070229054
    7      C       3.4254620024     0.2062371734    -0.0168484547
    8      C       2.6428221088     1.3258491906    -0.0961269969
    9      C       2.7059164664    -1.0219125028     0.0510133111
   10      N       1.2869912320     1.3599578042    -0.0986810133
   11      N       3.2055445320    -2.2554882895     0.1426577674
   12      C       1.2782372224    -1.0010284983     0.0463126452
   13      C       0.5887527736     0.2533334377    -0.0306285161
   14      S       1.9457040916    -3.2574557965     0.2072706958
   15      N       0.7275850074    -2.2089811697     0.1297079154
   16      C      -0.8507147516     0.3838500753    -0.0312624477
   17      S      -1.9756382480    -0.9271534162     0.0726549032
   18      C      -1.5401909042     1.5725826376    -0.0970652966
   19      C      -3.3378404322     0.1154023583    -0.0047419667
   20      S      -1.0670937781     3.2341516602    -0.1993565577
   21      C      -2.9515744875     1.4320507122    -0.0699405849
   22      C      -4.6989640322    -0.3933849268     0.1251021768
   23      C      -2.7528578233     3.7149905965    -0.1992637702
   24      C      -3.6284570753     2.6980880691    -0.1273784005
   25      N      -5.5264600074    -0.0231105668     1.0556844376
   26      S      -5.3254796211    -1.6157906135    -0.9368101265
   27      C      -6.7105480736    -0.6935793539     0.9499566395
   28      C      -6.7925996323    -1.6011454826    -0.0549355077
   29      H       8.6991549914     0.3978174488    -0.1468396038
   30      H       7.4899009234     2.0398372794     1.2676181146
   31      H       5.0006741398     1.9331634492     1.3614905925
   32      H       5.2036553975    -1.3701216216    -1.3478480772
   33      H       3.1151902771     2.2974359435    -0.1761106743
   34      H      -2.9892189400     4.7659268291    -0.2502139050
   35      H      -4.7002783374     2.8122187101    -0.0988736754
   36      H      -7.4969485788    -0.4847697752     1.6588516919
   37      H      -7.6165781133    -2.2431270756    -0.3130802037
 ----------------------------------------------------------------

    9   -2595.9019500328      4.56E-09 Convergence criterion met
 Total energy in the final basis set = -2595.9019500328
 Final energy is   -2595.90195003282
 **  OPTIMIZATION CONVERGED  **

                    Orbital Energies (a.u.)
 --------------------------------------------------------------

 Alpha MOs
 -- Occupied --
-89.155 -89.094 -89.094 -89.075 -14.495 -14.488 -14.452 -14.447
-14.435 -10.374 -10.369 -10.363 -10.360 -10.344 -10.340 -10.339
-10.334 -10.330 -10.328 -10.326 -10.326 -10.325 -10.324 -10.318
-10.314 -10.313 -10.302 -10.300  -8.165  -8.110  -8.109  -8.090
 -6.116  -6.110  -6.109  -6.059  -6.058  -6.055  -6.054  -6.053
 -6.051  -6.039  -6.035  -6.032  -1.153  -1.085  -1.072  -1.054
 -1.024  -1.015  -0.957  -0.946  -0.912  -0.910  -0.907  -0.884
 -0.861  -0.845  -0.830  -0.808  -0.775  -0.752  -0.744  -0.728
 -0.722  -0.695  -0.690  -0.678  -0.649  -0.641  -0.623  -0.621
 -0.613  -0.597  -0.584  -0.577  -0.570  -0.568  -0.540  -0.535
 -0.527  -0.523  -0.520  -0.514  -0.512  -0.503  -0.496  -0.491
 -0.489  -0.481  -0.477  -0.463  -0.458  -0.448  -0.439  -0.431
 -0.429  -0.423  -0.403  -0.391  -0.378  -0.374  -0.370  -0.370
 -0.364  -0.357  -0.342  -0.338  -0.327  -0.320  -0.274

          Ground-State Mulliken Net Atomic Charges

     Atom                 Charge (a.u.)
  ----------------------------------------
      1 C                    -0.072028
      2 C                    -0.102917
      3 N                    -0.155441
      4 C                    -0.157398
      5 C                    -0.095252
      6 C                     0.109880
      7 C                     0.032131
      8 C                    -0.093894
      9 C                     0.020065
     10 N                    -0.183299
     11 N                    -0.276820
     12 C                     0.029173
     13 C                     0.113710
     14 S                     0.412935
     15 N                    -0.284363
     16 C                    -0.063505
     17 S                     0.160643
     18 C                    -0.005641
     19 C                     0.010532
     20 S                     0.090383
     21 C                     0.012363
     22 C                    -0.040580
     23 C                    -0.160993
     24 C                    -0.154943
     25 N                    -0.161247
     26 S                     0.117594
     27 C                    -0.089053
     28 C                    -0.193962
     29 H                     0.123916
     30 H                     0.128848
     31 H                     0.131413
     32 H                     0.128475
     33 H                     0.131205
     34 H                     0.131096
     35 H                     0.131154
     36 H                     0.132675
     37 H                     0.143142
  ----------------------------------------
  Sum of atomic charges =     0.000000

                    Cartesian Multipole Moments
 -----------------------------------------------------------------
    Charge (ESU x 10^10)
                 0.0000
    Dipole Moment (Debye)
         X      -2.2440      Y       0.3612      Z       0.4125
       Tot       2.3100
    Quadrupole Moments (Debye-Ang)
        XX    -167.2412     XY      16.0210     YY    -171.5769
        XZ      12.5617     YZ       1.5060     ZZ    -188.7282

 Total job time:  6870.11s(wall), 103944.35s(cpu)
        *  Thank you very much for using Q-Chem.  Have a nice day.  *
