 Q-Chem 4.4, Q-Chem, Inc., Pleasanton, CA (2016)
 Q-Chem 4.4.2 for Intel X86 Linux

User input:
--------------------------------------------------------------
$comment
OPTIMIZATION
$end

$rem
JOBTYPE OPT
EXCHANGE omegaB97X-D
BASIS cc-pVTZ
$end

$molecule
0 1
C          0.00000        0.00000        0.00000
C          1.38508        0.00000        0.00000
N         -0.72771       -1.11322        0.00000
C          2.04720       -1.21160       -0.00386
C         -0.08136       -2.27149       -0.00595
C          1.30925       -2.38901       -0.00649
C          1.96927       -3.70493        0.02329
C          3.04486       -3.95576        0.82999
C          1.55200       -4.80802       -0.77739
N          3.72631       -5.12438        0.91627
N          0.54624       -4.84522       -1.65350
C          2.26335       -6.04410       -0.69858
C          3.37925       -6.16090        0.19241
S          0.53898       -6.32692       -2.28381
N          1.78433       -6.98642       -1.50573
C          4.16725       -7.35995        0.35676
S          3.93086       -8.84971       -0.49207
C          5.23222       -7.49170        1.21798
C          5.24541       -9.62206        0.30618
S          5.99863       -6.41836        2.33861
C          5.85372       -8.76608        1.20048
C          5.61707      -10.99188        0.02046
C          7.13339       -7.68106        2.76702
C          6.95917       -8.84504        2.11640
N          6.66270      -11.31566       -0.68470
S          4.70078      -12.35986        0.59024
C          6.77433      -12.66887       -0.80529
C          5.81546      -13.40307       -0.19009
H         -0.55134        0.93273        0.00000
H          1.92494        0.93597       -0.01293
H          3.12873       -1.25416       -0.02668
H         -0.69553       -3.16348       -0.00579
H          3.41622       -3.17720        1.48423
H          7.89362       -7.46677        3.50210
H          7.55900       -9.73031        2.24234
H          7.59455      -13.08830       -1.36765
H          5.70667      -14.47284       -0.15545
$end

$opt
CONSTRAINT
tors 4 6 7 8 42.24575
tors 10 13 16 17 -179.11427
tors 17 19 22 25 105.00000
ENDCONSTRAINT
$end
--------------------------------------------------------------

   16   -2595.8993936689      4.75E-09 Convergence criterion met
 Total energy in the final basis set = -2595.8993936689
   11   -2595.8999074749      9.25E-09 Convergence criterion met
 Total energy in the final basis set = -2595.8999074749
   11   -2595.8999733078      5.94E-09 Convergence criterion met
 Total energy in the final basis set = -2595.8999733078
   10   -2595.8999904618      8.00E-09 Convergence criterion met
 Total energy in the final basis set = -2595.8999904618
   11   -2595.9000047026      5.34E-09 Convergence criterion met
 Total energy in the final basis set = -2595.9000047026
   10   -2595.9000098115      5.00E-09 Convergence criterion met
 Total energy in the final basis set = -2595.9000098115
    9   -2595.9000111483      7.78E-09 Convergence criterion met
 Total energy in the final basis set = -2595.9000111483

             Standard Nuclear Orientation (Angstroms)
    I     Atom           X                Y                Z
 ----------------------------------------------------------------
    1      C       7.6224575709     0.4077955772    -0.1369829924
    2      C       6.9532806689     1.3216293310     0.6599298165
    3      N       7.0044334990    -0.5308787412    -0.8476925191
    4      C       5.5736583157     1.2572099649     0.7218515407
    5      C       5.6813736356    -0.5825983242    -0.7819576327
    6      C       4.9036775206     0.2896748678    -0.0187941164
    7      C       3.4333327539     0.2061613404    -0.0104658160
    8      C       2.6444489711     1.3220905712    -0.0772097290
    9      C       2.7206225374    -1.0256666995     0.0623554543
   10      N       1.2884120782     1.3493371347    -0.0642618284
   11      N       3.2273116963    -2.2569739833     0.1448678727
   12      C       1.2928842972    -1.0118959790     0.0733128839
   13      C       0.5964481020     0.2391790719     0.0072424757
   14      S       1.9732700562    -3.2653557907     0.2200452408
   15      N       0.7490887406    -2.2228655358     0.1588218711
   16      C      -0.8440409129     0.3627977604     0.0180779894
   17      S      -1.9633186268    -0.9525458957     0.1283393495
   18      C      -1.5385508462     1.5481318329    -0.0464476013
   19      C      -3.3290836069     0.0839428632     0.0636433498
   20      S      -1.0740924669     3.2119881670    -0.1561070681
   21      C      -2.9496574607     1.4005548870    -0.0138735197
   22      C      -4.6929260798    -0.4374554987     0.1757393712
   23      C      -2.7621094363     3.6845210136    -0.1548256630
   24      C      -3.6325606950     2.6638059736    -0.0765545519
   25      N      -5.4365080513    -0.3249032103     1.2335439082
   26      S      -5.4398375509    -1.3063990327    -1.1277453506
   27      C      -6.6510222239    -0.9194731078     1.0418168345
   28      C      -6.8401954907    -1.5073033009    -0.1660517727
   29      H       8.7039302079     0.4265194722    -0.2067359011
   30      H       7.5036938846     2.0581237504     1.2275315139
   31      H       5.0165114091     1.9376840247     1.3523016295
   32      H       5.2032034613    -1.3578936621    -1.3674911450
   33      H       3.1110626067     2.2962474728    -0.1597358875
   34      H      -3.0038617623     4.7339461338    -0.2114119140
   35      H      -4.7049894044     2.7757940024    -0.0519330356
   36      H      -7.3776346839    -0.8982909110     1.8393781945
   37      H      -7.7089535989    -2.0289109710    -0.5281818674
 ----------------------------------------------------------------

    9   -2595.9000114755      3.92E-09 Convergence criterion met
 Total energy in the final basis set = -2595.9000114755
 Final energy is   -2595.90001147549
 **  OPTIMIZATION CONVERGED  **

                    Orbital Energies (a.u.)
 --------------------------------------------------------------

 Alpha MOs
 -- Occupied --
-89.155 -89.094 -89.094 -89.076 -14.494 -14.488 -14.452 -14.448
-14.435 -10.373 -10.369 -10.362 -10.359 -10.343 -10.340 -10.338
-10.334 -10.330 -10.327 -10.326 -10.326 -10.325 -10.324 -10.318
-10.314 -10.314 -10.302 -10.301  -8.165  -8.110  -8.108  -8.090
 -6.115  -6.110  -6.109  -6.059  -6.057  -6.055  -6.053  -6.053
 -6.051  -6.040  -6.036  -6.032  -1.152  -1.085  -1.072  -1.054
 -1.024  -1.015  -0.957  -0.946  -0.912  -0.910  -0.906  -0.883
 -0.861  -0.846  -0.830  -0.808  -0.775  -0.752  -0.744  -0.728
 -0.722  -0.695  -0.690  -0.678  -0.650  -0.641  -0.623  -0.621
 -0.614  -0.597  -0.584  -0.577  -0.570  -0.567  -0.540  -0.534
 -0.527  -0.523  -0.521  -0.513  -0.512  -0.503  -0.496  -0.491
 -0.489  -0.480  -0.477  -0.463  -0.458  -0.448  -0.440  -0.431
 -0.429  -0.423  -0.402  -0.390  -0.376  -0.375  -0.370  -0.369
 -0.364  -0.357  -0.342  -0.337  -0.327  -0.320  -0.276

          Ground-State Mulliken Net Atomic Charges

     Atom                 Charge (a.u.)
  ----------------------------------------
      1 C                    -0.072063
      2 C                    -0.102875
      3 N                    -0.155407
      4 C                    -0.157328
      5 C                    -0.095181
      6 C                     0.109822
      7 C                     0.032380
      8 C                    -0.093970
      9 C                     0.020100
     10 N                    -0.183396
     11 N                    -0.276767
     12 C                     0.028830
     13 C                     0.113679
     14 S                     0.413247
     15 N                    -0.284067
     16 C                    -0.065668
     17 S                     0.168077
     18 C                    -0.005756
     19 C                     0.020480
     20 S                     0.090628
     21 C                     0.011252
     22 C                    -0.066850
     23 C                    -0.159634
     24 C                    -0.156804
     25 N                    -0.151837
     26 S                     0.122331
     27 C                    -0.094601
     28 C                    -0.191435
     29 H                     0.123883
     30 H                     0.128832
     31 H                     0.131390
     32 H                     0.128344
     33 H                     0.131169
     34 H                     0.131294
     35 H                     0.130406
     36 H                     0.134413
     37 H                     0.143085
  ----------------------------------------
  Sum of atomic charges =     0.000000

                    Cartesian Multipole Moments
 -----------------------------------------------------------------
    Charge (ESU x 10^10)
                 0.0000
    Dipole Moment (Debye)
         X      -2.3463      Y       0.6110      Z       0.1653
       Tot       2.4302
    Quadrupole Moments (Debye-Ang)
        XX    -165.8640     XY      14.6831     YY    -171.9599
        XZ      14.0403     YZ       1.6651     ZZ    -188.9203

 Total job time:  6738.25s(wall), 101902.24s(cpu)
        *  Thank you very much for using Q-Chem.  Have a nice day.  *
