 Q-Chem 4.4, Q-Chem, Inc., Pleasanton, CA (2016)
 Q-Chem 4.4.2 for Intel X86 Linux

User input:
--------------------------------------------------------------
$comment
OPTIMIZATION
$end

$rem
JOBTYPE OPT
EXCHANGE omegaB97X-D
BASIS cc-pVTZ
$end

$molecule
0 1
C          0.00000        0.00000        0.00000
C          1.38508        0.00000        0.00000
N         -0.72771       -1.11322        0.00000
C          2.04720       -1.21160       -0.00386
C         -0.08136       -2.27149       -0.00595
C          1.30925       -2.38901       -0.00649
C          1.96927       -3.70493        0.02329
C          3.04486       -3.95576        0.82999
C          1.55200       -4.80802       -0.77739
N          3.72631       -5.12438        0.91627
N          0.54624       -4.84522       -1.65350
C          2.26335       -6.04410       -0.69858
C          3.37925       -6.16090        0.19241
S          0.53898       -6.32692       -2.28381
N          1.78433       -6.98642       -1.50573
C          4.16725       -7.35995        0.35676
S          3.93086       -8.84971       -0.49207
C          5.23222       -7.49170        1.21798
C          5.24541       -9.62206        0.30618
S          5.99863       -6.41836        2.33861
C          5.85372       -8.76608        1.20048
C          5.61707      -10.99188        0.02046
C          7.13339       -7.68106        2.76702
C          6.95917       -8.84504        2.11640
N          5.35515      -11.98456        0.82135
S          6.45953      -11.46116       -1.43062
C          5.82042      -13.16117        0.31412
C          6.44403      -13.08717       -0.88696
H         -0.55134        0.93273        0.00000
H          1.92494        0.93597       -0.01293
H          3.12873       -1.25416       -0.02668
H         -0.69553       -3.16348       -0.00579
H          3.41622       -3.17720        1.48423
H          7.89362       -7.46677        3.50210
H          7.55900       -9.73031        2.24234
H          5.67884      -14.07496        0.87078
H          6.88448      -13.87999       -1.46565
$end

$opt
CONSTRAINT
tors 4 6 7 8 42.24575
tors 10 13 16 17 -179.11427
tors 17 19 22 25 -105.00000
ENDCONSTRAINT
$end
--------------------------------------------------------------

   16   -2595.8993193572      4.88E-09 Convergence criterion met
 Total energy in the final basis set = -2595.8993193572
   12   -2595.8998589075      5.83E-09 Convergence criterion met
 Total energy in the final basis set = -2595.8998589075
   11   -2595.8999380191      6.20E-09 Convergence criterion met
 Total energy in the final basis set = -2595.8999380191
   10   -2595.8999608169      8.66E-09 Convergence criterion met
 Total energy in the final basis set = -2595.8999608169
   11   -2595.8999823131      6.62E-09 Convergence criterion met
 Total energy in the final basis set = -2595.8999823131
   11   -2595.8999912383      4.89E-09 Convergence criterion met
 Total energy in the final basis set = -2595.8999912383
    9   -2595.8999939071      9.59E-09 Convergence criterion met
 Total energy in the final basis set = -2595.8999939071

             Standard Nuclear Orientation (Angstroms)
    I     Atom           X                Y                Z
 ----------------------------------------------------------------
    1      C       7.6221135466     0.4159615613     0.0058910504
    2      C       6.9339392501     1.2789170808     0.8422999020
    3      N       7.0211918699    -0.4746127334    -0.7776064106
    4      C       5.5533007545     1.2128392851     0.8674111492
    5      C       5.6969257554    -0.5289287126    -0.7461094675
    6      C       4.9012175235     0.2938923323     0.0527259535
    7      C       3.4310950819     0.2102743110     0.0226271023
    8      C       2.6420423736     1.3280444828     0.0082068308
    9      C       2.7187641225    -1.0238247365     0.0030392228
   10      N       1.2859094708     1.3542906197    -0.0066861268
   11      N       3.2253122303    -2.2578533700     0.0181662950
   12      C       1.2911951782    -1.0108487069    -0.0166668217
   13      C       0.5942763050     0.2417035699    -0.0203735999
   14      S       1.9713737990    -3.2691336725     0.0011032090
   15      N       0.7473315204    -2.2247657519    -0.0205785355
   16      C      -0.8463100701     0.3631538880    -0.0424161168
   17      S      -1.9638483717    -0.9582209398    -0.0414594892
   18      C      -1.5424191417     1.5489414986    -0.0720773524
   19      C      -3.3310106114     0.0782037244    -0.0618869813
   20      S      -1.0805320790     3.2170457021    -0.0961624846
   21      C      -2.9533002593     1.3971978999    -0.0933431762
   22      C      -4.6939123532    -0.4529213293    -0.1314437394
   23      C      -2.7691046557     3.6852992486    -0.1425278945
   24      C      -3.6379684551     2.6602186695    -0.1377309967
   25      N      -5.4370731508    -0.4281869963    -1.1952922971
   26      S      -5.4398050779    -1.2139892507     1.2379982298
   27      C      -6.6497038045    -1.0089853749    -0.9567754947
   28      C      -6.8382972759    -1.4976669550     0.2947401465
   29      H       8.7049282976     0.4373597785    -0.0366947790
   30      H       7.4717043869     1.9776706846     1.4668653581
   31      H       4.9813051228     1.8552453488     1.5239888057
   32      H       5.2337043223    -1.2624633895    -1.3939146288
   33      H       3.1091954358     2.3052599424    -0.0055946322
   34      H      -3.0125167900     4.7353275674    -0.1764481793
   35      H      -4.7104247157     2.7682330147    -0.1756341754
   36      H      -7.3752398587    -1.0594846946    -1.7540102488
   37      H      -7.7059084997    -1.9906481013     0.6973910802
 ----------------------------------------------------------------

    9   -2595.8999945180      3.61E-09 Convergence criterion met
 Total energy in the final basis set = -2595.8999945180
 Final energy is   -2595.89999451805
 **  OPTIMIZATION CONVERGED  **

                    Orbital Energies (a.u.)
 --------------------------------------------------------------

 Alpha MOs
 -- Occupied --
-89.155 -89.094 -89.094 -89.076 -14.494 -14.488 -14.452 -14.448
-14.435 -10.373 -10.369 -10.362 -10.359 -10.343 -10.340 -10.338
-10.334 -10.330 -10.327 -10.326 -10.326 -10.325 -10.324 -10.318
-10.314 -10.314 -10.302 -10.301  -8.165  -8.110  -8.108  -8.090
 -6.115  -6.110  -6.109  -6.059  -6.057  -6.055  -6.053  -6.053
 -6.051  -6.040  -6.036  -6.032  -1.152  -1.085  -1.072  -1.054
 -1.024  -1.015  -0.957  -0.946  -0.912  -0.910  -0.906  -0.883
 -0.861  -0.846  -0.830  -0.808  -0.775  -0.752  -0.744  -0.728
 -0.722  -0.695  -0.690  -0.678  -0.650  -0.641  -0.623  -0.621
 -0.614  -0.597  -0.584  -0.577  -0.570  -0.568  -0.540  -0.535
 -0.527  -0.523  -0.521  -0.514  -0.511  -0.503  -0.496  -0.491
 -0.488  -0.480  -0.477  -0.463  -0.458  -0.448  -0.440  -0.432
 -0.428  -0.423  -0.402  -0.390  -0.377  -0.375  -0.370  -0.369
 -0.364  -0.357  -0.342  -0.337  -0.327  -0.320  -0.276

          Ground-State Mulliken Net Atomic Charges

     Atom                 Charge (a.u.)
  ----------------------------------------
      1 C                    -0.072114
      2 C                    -0.102890
      3 N                    -0.155263
      4 C                    -0.156956
      5 C                    -0.095014
      6 C                     0.109512
      7 C                     0.031493
      8 C                    -0.093473
      9 C                     0.020342
     10 N                    -0.183419
     11 N                    -0.276580
     12 C                     0.029072
     13 C                     0.113428
     14 S                     0.413231
     15 N                    -0.284193
     16 C                    -0.065529
     17 S                     0.168124
     18 C                    -0.005886
     19 C                     0.019910
     20 S                     0.090522
     21 C                     0.011292
     22 C                    -0.066210
     23 C                    -0.159729
     24 C                    -0.156796
     25 N                    -0.151747
     26 S                     0.121884
     27 C                    -0.094607
     28 C                    -0.190916
     29 H                     0.123873
     30 H                     0.128702
     31 H                     0.130893
     32 H                     0.128836
     33 H                     0.131023
     34 H                     0.131374
     35 H                     0.130459
     36 H                     0.134513
     37 H                     0.142842
  ----------------------------------------
  Sum of atomic charges =     0.000000

                    Cartesian Multipole Moments
 -----------------------------------------------------------------
    Charge (ESU x 10^10)
                 0.0000
    Dipole Moment (Debye)
         X      -2.3704      Y       0.6097      Z       2.2961
       Tot       3.3560
    Quadrupole Moments (Debye-Ang)
        XX    -166.2928     XY      13.6696     YY    -172.2479
        XZ       4.8395     YZ       1.1936     ZZ    -188.2871

 Total job time:  6852.89s(wall), 103662.94s(cpu)
        *  Thank you very much for using Q-Chem.  Have a nice day.  *
