 Q-Chem 4.4, Q-Chem, Inc., Pleasanton, CA (2016)
 Q-Chem 4.4.2 for Intel X86 Linux

User input:
--------------------------------------------------------------
$comment
OPTIMIZATION
$end

$rem
JOBTYPE OPT
EXCHANGE omegaB97X-D
BASIS cc-pVTZ
$end

$molecule
0 1
C          0.00000        0.00000        0.00000
C          1.38508        0.00000        0.00000
N         -0.72771       -1.11322        0.00000
C          2.04720       -1.21160       -0.00386
C         -0.08136       -2.27149       -0.00595
C          1.30925       -2.38901       -0.00649
C          1.96927       -3.70493        0.02329
C          3.04486       -3.95576        0.82999
C          1.55200       -4.80802       -0.77739
N          3.72631       -5.12438        0.91627
N          0.54624       -4.84522       -1.65350
C          2.26335       -6.04410       -0.69858
C          3.37925       -6.16090        0.19241
S          0.53898       -6.32692       -2.28381
N          1.78433       -6.98642       -1.50573
C          4.16725       -7.35995        0.35676
S          3.93086       -8.84971       -0.49207
C          5.23222       -7.49170        1.21798
C          5.24541       -9.62206        0.30618
S          5.99863       -6.41836        2.33861
C          5.85372       -8.76608        1.20048
C          5.61707      -10.99188        0.02046
C          7.13339       -7.68106        2.76702
C          6.95917       -8.84504        2.11640
N          5.61714      -11.93391        0.91935
S          6.10774      -11.52907       -1.56266
C          6.01410      -13.12334        0.38468
C          6.32143      -13.11036       -0.93529
H         -0.55134        0.93273        0.00000
H          1.92494        0.93597       -0.01293
H          3.12873       -1.25416       -0.02668
H         -0.69553       -3.16348       -0.00579
H          3.41622       -3.17720        1.48423
H          7.89362       -7.46677        3.50210
H          7.55900       -9.73031        2.24234
H          6.06661      -13.99940        1.01293
H          6.65421      -13.92362       -1.55602
$end

$opt
CONSTRAINT
tors 4 6 7 8 42.24575
tors 10 13 16 17 -179.11427
tors 17 19 22 25 -120.00000
ENDCONSTRAINT
$end
--------------------------------------------------------------

   16   -2595.9012006667      4.94E-09 Convergence criterion met
 Total energy in the final basis set = -2595.9012006667
   11   -2595.9016782318      9.44E-09 Convergence criterion met
 Total energy in the final basis set = -2595.9016782318
   11   -2595.9018197271      9.42E-09 Convergence criterion met
 Total energy in the final basis set = -2595.9018197271
   11   -2595.9018846866      9.55E-09 Convergence criterion met
 Total energy in the final basis set = -2595.9018846866
   11   -2595.9019221473      9.77E-09 Convergence criterion met
 Total energy in the final basis set = -2595.9019221473
   10   -2595.9019296249      5.91E-09 Convergence criterion met
 Total energy in the final basis set = -2595.9019296249
    9   -2595.9019309901      5.09E-09 Convergence criterion met
 Total energy in the final basis set = -2595.9019309901

             Standard Nuclear Orientation (Angstroms)
    I     Atom           X                Y                Z
 ----------------------------------------------------------------
    1      C       7.6157369997     0.3976112751    -0.0273271771
    2      C       6.9386914618     1.2581190058     0.8206084279
    3      N       7.0041620987    -0.4861292938    -0.8102783971
    4      C       5.5581185712     1.1969951094     0.8582009343
    5      C       5.6800587302    -0.5357246594    -0.7666846364
    6      C       4.8948619286     0.2853911290     0.0442056584
    7      C       3.4242210374     0.2080233190     0.0269990055
    8      C       2.6401482875     1.3294929373     0.0261339205
    9      C       2.7060366035    -1.0226850761     0.0055609046
   10      N       1.2842647702     1.3621937120     0.0229883980
   11      N       3.2067949214    -2.2591807254     0.0082301776
   12      C       1.2783827069    -1.0029735662    -0.0025274098
   13      C       0.5872912525     0.2527703502     0.0075734622
   14      S       1.9480551663    -3.2645405912    -0.0057177398
   15      N       0.7287680451    -2.2142332165    -0.0105675349
   16      C      -0.8523401017     0.3812241558    -0.0037631454
   17      S      -1.9757691602    -0.9352363316    -0.0027971653
   18      C      -1.5431439143     1.5707807773    -0.0252814899
   19      C      -3.3390509650     0.1086770326    -0.0022148883
   20      S      -1.0722681884     3.2360218663    -0.0488749759
   21      C      -2.9542853695     1.4268340753    -0.0398141765
   22      C      -4.7008080770    -0.4077227655    -0.0878719704
   23      C      -2.7586431855     3.7131653880    -0.0894385473
   24      C      -3.6328567311     2.6925389116    -0.0820194063
   25      N      -5.5317170460    -0.1105745058    -1.0412883852
   26      S      -5.3254973806    -1.5396984264     1.0711177647
   27      C      -6.7175095273    -0.7666562776    -0.8765985542
   28      C      -6.7966698104    -1.5902573852     0.1983728508
   29      H       8.6981701860     0.4153407174    -0.0801079916
   30      H       7.4849055468     1.9510335856     1.4443450934
   31      H       4.9946496101     1.8379362307     1.5235422692
   32      H       5.2079419650    -1.2636387410    -1.4144011058
   33      H       3.1117288061     2.3046048563     0.0144478647
   34      H      -2.9964759443     4.7644627204    -0.1233767981
   35      H      -4.7047727564     2.8027171940    -0.1210191289
   36      H      -7.5072737386    -0.6102664740    -1.5951898725
   37      H      -7.6221530610    -2.2057970842     0.5105947461
 ----------------------------------------------------------------

    8   -2595.9019313014      5.80E-09 Convergence criterion met
 Total energy in the final basis set = -2595.9019313014
 Final energy is   -2595.90193130137
 **  OPTIMIZATION CONVERGED  **

                    Orbital Energies (a.u.)
 --------------------------------------------------------------

 Alpha MOs
 -- Occupied --
-89.155 -89.094 -89.094 -89.075 -14.495 -14.488 -14.452 -14.447
-14.435 -10.374 -10.369 -10.363 -10.360 -10.344 -10.340 -10.339
-10.334 -10.330 -10.328 -10.326 -10.326 -10.325 -10.324 -10.318
-10.314 -10.313 -10.302 -10.300  -8.165  -8.110  -8.109  -8.090
 -6.116  -6.110  -6.109  -6.059  -6.058  -6.055  -6.054  -6.053
 -6.051  -6.039  -6.035  -6.032  -1.152  -1.085  -1.072  -1.054
 -1.024  -1.015  -0.957  -0.946  -0.913  -0.910  -0.907  -0.884
 -0.861  -0.845  -0.830  -0.808  -0.775  -0.752  -0.744  -0.728
 -0.722  -0.695  -0.690  -0.678  -0.649  -0.641  -0.623  -0.621
 -0.613  -0.597  -0.584  -0.577  -0.570  -0.568  -0.540  -0.535
 -0.527  -0.523  -0.520  -0.514  -0.511  -0.503  -0.496  -0.491
 -0.489  -0.480  -0.477  -0.463  -0.458  -0.448  -0.439  -0.432
 -0.428  -0.423  -0.403  -0.391  -0.379  -0.374  -0.370  -0.370
 -0.364  -0.357  -0.342  -0.338  -0.327  -0.320  -0.274

          Ground-State Mulliken Net Atomic Charges

     Atom                 Charge (a.u.)
  ----------------------------------------
      1 C                    -0.072065
      2 C                    -0.102746
      3 N                    -0.155290
      4 C                    -0.156987
      5 C                    -0.095027
      6 C                     0.109381
      7 C                     0.031198
      8 C                    -0.093381
      9 C                     0.020359
     10 N                    -0.183345
     11 N                    -0.276500
     12 C                     0.029266
     13 C                     0.113537
     14 S                     0.412984
     15 N                    -0.284484
     16 C                    -0.063424
     17 S                     0.160737
     18 C                    -0.005756
     19 C                     0.010338
     20 S                     0.090344
     21 C                     0.012228
     22 C                    -0.039921
     23 C                    -0.161042
     24 C                    -0.154866
     25 N                    -0.161365
     26 S                     0.116943
     27 C                    -0.088939
     28 C                    -0.194186
     29 H                     0.123867
     30 H                     0.128608
     31 H                     0.131068
     32 H                     0.128732
     33 H                     0.131031
     34 H                     0.131147
     35 H                     0.131207
     36 H                     0.133114
     37 H                     0.143236
  ----------------------------------------
  Sum of atomic charges =     0.000000

                    Cartesian Multipole Moments
 -----------------------------------------------------------------
    Charge (ESU x 10^10)
                 0.0000
    Dipole Moment (Debye)
         X      -2.2453      Y       0.3442      Z       2.0874
       Tot       3.0849
    Quadrupole Moments (Debye-Ang)
        XX    -167.2199     XY      14.9801     YY    -171.9029
        XZ       6.1419     YZ       1.3328     ZZ    -188.3261

 Total job time:  6792.65s(wall), 102802.20s(cpu)
        *  Thank you very much for using Q-Chem.  Have a nice day.  *
