 Q-Chem 4.4, Q-Chem, Inc., Pleasanton, CA (2016)
 Q-Chem 4.4.2 for Intel X86 Linux

User input:
--------------------------------------------------------------
$comment
OPTIMIZATION
$end

$rem
JOBTYPE OPT
EXCHANGE omegaB97X-D
BASIS cc-pVTZ
$end

$molecule
0 1
C          0.00000        0.00000        0.00000
C          1.38508        0.00000        0.00000
N         -0.72771       -1.11322        0.00000
C          2.04720       -1.21160       -0.00386
C         -0.08136       -2.27149       -0.00595
C          1.30925       -2.38901       -0.00649
C          1.96927       -3.70493        0.02329
C          3.04486       -3.95576        0.82999
C          1.55200       -4.80802       -0.77739
N          3.72631       -5.12438        0.91627
N          0.54624       -4.84522       -1.65350
C          2.26335       -6.04410       -0.69858
C          3.37925       -6.16090        0.19241
S          0.53898       -6.32692       -2.28381
N          1.78433       -6.98642       -1.50573
C          4.16725       -7.35995        0.35676
S          3.93086       -8.84971       -0.49207
C          5.23222       -7.49170        1.21798
C          5.24541       -9.62206        0.30618
S          5.99863       -6.41836        2.33861
C          5.85372       -8.76608        1.20048
C          5.61707      -10.99188        0.02046
C          7.13339       -7.68106        2.76702
C          6.95917       -8.84504        2.11640
N          5.89161      -11.86510        0.94649
S          5.73907      -11.62141       -1.59954
C          6.21653      -13.07222        0.40290
C          6.19236      -13.14222       -0.95041
H         -0.55134        0.93273        0.00000
H          1.92494        0.93597       -0.01293
H          3.12873       -1.25416       -0.02668
H         -0.69553       -3.16348       -0.00579
H          3.41622       -3.17720        1.48423
H          7.89362       -7.46677        3.50210
H          7.55900       -9.73031        2.24234
H          6.47212      -13.89716        1.05025
H          6.41188      -13.98353       -1.58402
$end

$opt
CONSTRAINT
tors 4 6 7 8 42.24575
tors 10 13 16 17 -179.11427
tors 17 19 22 25 -135.00000
ENDCONSTRAINT
$end
--------------------------------------------------------------

   16   -2595.9034972828      4.90E-09 Convergence criterion met
 Total energy in the final basis set = -2595.9034972828
   12   -2595.9038796381      5.04E-09 Convergence criterion met
 Total energy in the final basis set = -2595.9038796381
   11   -2595.9040137041      8.58E-09 Convergence criterion met
 Total energy in the final basis set = -2595.9040137041
   11   -2595.9040636555      8.50E-09 Convergence criterion met
 Total energy in the final basis set = -2595.9040636555
   10   -2595.9040817237      9.96E-09 Convergence criterion met
 Total energy in the final basis set = -2595.9040817237
    9   -2595.9040850525      8.20E-09 Convergence criterion met
 Total energy in the final basis set = -2595.9040850525

             Standard Nuclear Orientation (Angstroms)
    I     Atom           X                Y                Z
 ----------------------------------------------------------------
    1      C       7.6135957140     0.3863795316    -0.0253636709
    2      C       6.9372485633     1.2460008146     0.8240138821
    3      N       7.0010780271    -0.4927182280    -0.8128239244
    4      C       5.5564195130     1.1890361575     0.8582021190
    5      C       5.6767408235    -0.5383651542    -0.7724564340
    6      C       4.8921800955     0.2824414667     0.0394028588
    7      C       3.4213997913     0.2091485973     0.0194732120
    8      C       2.6403622280     1.3328619612     0.0218199275
    9      C       2.6998325790    -1.0194694228    -0.0079029205
   10      N       1.2847275977     1.3694562921     0.0185217897
   11      N       3.1970710891    -2.2573779020    -0.0100517926
   12      C       1.2722016842    -0.9957579242    -0.0172453187
   13      C       0.5846013500     0.2618909462    -0.0013022725
   14      S       1.9355374855    -3.2591239376    -0.0295494883
   15      N       0.7191731746    -2.2053711382    -0.0310901192
   16      C      -0.8542686130     0.3939583015    -0.0080189986
   17      S      -1.9792593202    -0.9211366706    -0.0114727262
   18      C      -1.5435938266     1.5848620898    -0.0195785001
   19      C      -3.3418788705     0.1251398444     0.0036902714
   20      S      -1.0683175197     3.2486468781    -0.0338242823
   21      C      -2.9548466890     1.4445632830    -0.0283025361
   22      C      -4.7017380998    -0.3846668538    -0.0572380216
   23      C      -2.7535163055     3.7301469766    -0.0620199012
   24      C      -3.6305757237     2.7116179540    -0.0571174715
   25      N      -5.6273748477     0.1134984699    -0.8225519869
   26      S      -5.2115847337    -1.7647492788     0.8671844259
   27      C      -6.7929406692    -0.5839950590    -0.6945177870
   28      C      -6.7656698328    -1.6376345343     0.1592085624
   29      H       8.6961970774     0.4007972921    -0.0755028652
   30      H       7.4842113923     1.9350096470     1.4514153203
   31      H       4.9934110793     1.8292648721     1.5246275718
   32      H       5.2038878399    -1.2626914539    -1.4236296616
   33      H       3.1146811453     2.3066836775     0.0139656508
   34      H      -2.9887099072     4.7822729878    -0.0878246459
   35      H      -4.7024013350     2.8208763964    -0.0925726609
   36      H      -7.6534669828    -0.2806136536    -1.2709161220
   37      H      -7.5562508317    -2.3260178535     0.4010345338
 ----------------------------------------------------------------

    9   -2595.9040857370      4.10E-09 Convergence criterion met
 Total energy in the final basis set = -2595.9040857370
 Final energy is   -2595.90408573702
 **  OPTIMIZATION CONVERGED  **

                    Orbital Energies (a.u.)
 --------------------------------------------------------------

 Alpha MOs
 -- Occupied --
-89.156 -89.095 -89.094 -89.075 -14.495 -14.488 -14.452 -14.447
-14.436 -10.374 -10.370 -10.363 -10.360 -10.344 -10.340 -10.339
-10.334 -10.329 -10.328 -10.326 -10.326 -10.326 -10.323 -10.318
-10.314 -10.313 -10.302 -10.299  -8.166  -8.110  -8.109  -8.089
 -6.116  -6.110  -6.109  -6.058  -6.058  -6.055  -6.054  -6.053
 -6.052  -6.039  -6.035  -6.032  -1.153  -1.085  -1.073  -1.054
 -1.024  -1.015  -0.957  -0.946  -0.913  -0.911  -0.907  -0.884
 -0.861  -0.845  -0.830  -0.808  -0.775  -0.752  -0.744  -0.728
 -0.723  -0.695  -0.690  -0.679  -0.649  -0.641  -0.623  -0.621
 -0.611  -0.596  -0.584  -0.577  -0.570  -0.568  -0.540  -0.536
 -0.527  -0.523  -0.519  -0.515  -0.511  -0.503  -0.496  -0.491
 -0.489  -0.481  -0.477  -0.463  -0.458  -0.448  -0.439  -0.433
 -0.429  -0.423  -0.403  -0.392  -0.381  -0.373  -0.370  -0.370
 -0.364  -0.357  -0.342  -0.338  -0.327  -0.319  -0.272

          Ground-State Mulliken Net Atomic Charges

     Atom                 Charge (a.u.)
  ----------------------------------------
      1 C                    -0.072014
      2 C                    -0.102743
      3 N                    -0.155302
      4 C                    -0.156908
      5 C                    -0.095054
      6 C                     0.109349
      7 C                     0.030955
      8 C                    -0.093315
      9 C                     0.020406
     10 N                    -0.183222
     11 N                    -0.276523
     12 C                     0.029064
     13 C                     0.113650
     14 S                     0.412823
     15 N                    -0.284646
     16 C                    -0.062496
     17 S                     0.150471
     18 C                    -0.005439
     19 C                     0.014538
     20 S                     0.090448
     21 C                     0.010356
     22 C                    -0.018677
     23 C                    -0.162270
     24 C                    -0.155185
     25 N                    -0.171900
     26 S                     0.111252
     27 C                    -0.085851
     28 C                    -0.195506
     29 H                     0.123894
     30 H                     0.128615
     31 H                     0.131148
     32 H                     0.128710
     33 H                     0.131079
     34 H                     0.131084
     35 H                     0.133290
     36 H                     0.132748
     37 H                     0.143171
  ----------------------------------------
  Sum of atomic charges =     0.000000

                    Cartesian Multipole Moments
 -----------------------------------------------------------------
    Charge (ESU x 10^10)
                 0.0000
    Dipole Moment (Debye)
         X      -2.1257      Y       0.1843      Z       1.9056
       Tot       2.8607
    Quadrupole Moments (Debye-Ang)
        XX    -168.2581     XY      15.6841     YY    -171.7127
        XZ       7.0356     YZ       1.4874     ZZ    -188.3417

 Total job time:  6069.35s(wall), 91808.62s(cpu)
        *  Thank you very much for using Q-Chem.  Have a nice day.  *
