 Q-Chem 4.4, Q-Chem, Inc., Pleasanton, CA (2016)
 Q-Chem 4.4.2 for Intel X86 Linux

User input:
--------------------------------------------------------------
$comment
OPTIMIZATION
$end

$rem
JOBTYPE OPT
EXCHANGE omegaB97X-D
BASIS cc-pVTZ
$end

$molecule
0 1
C          0.00000        0.00000        0.00000
C          1.38508        0.00000        0.00000
N         -0.72771       -1.11322        0.00000
C          2.04720       -1.21160       -0.00386
C         -0.08136       -2.27149       -0.00595
C          1.30925       -2.38901       -0.00649
C          1.96927       -3.70493        0.02329
C          3.04486       -3.95576        0.82999
C          1.55200       -4.80802       -0.77739
N          3.72631       -5.12438        0.91627
N          0.54624       -4.84522       -1.65350
C          2.26335       -6.04410       -0.69858
C          3.37925       -6.16090        0.19241
S          0.53898       -6.32692       -2.28381
N          1.78433       -6.98642       -1.50573
C          4.16725       -7.35995        0.35676
S          3.93086       -8.84971       -0.49207
C          5.23222       -7.49170        1.21798
C          5.24541       -9.62206        0.30618
S          5.99863       -6.41836        2.33861
C          5.85372       -8.76608        1.20048
C          5.61707      -10.99188        0.02046
C          7.13339       -7.68106        2.76702
C          6.95917       -8.84504        2.11640
N          5.12350      -12.01358        0.65916
S          6.77047      -11.42231       -1.21242
C          5.64868      -13.18314        0.19601
C          6.55180      -13.07425       -0.80871
H         -0.55134        0.93273        0.00000
H          1.92494        0.93597       -0.01293
H          3.12873       -1.25416       -0.02668
H         -0.69553       -3.16348       -0.00579
H          3.41622       -3.17720        1.48423
H          7.89362       -7.46677        3.50210
H          7.55900       -9.73031        2.24234
H          5.33522      -14.11870        0.63349
H          7.08701      -13.85561       -1.31907
$end

$opt
CONSTRAINT
tors 4 6 7 8 42.24575
tors 10 13 16 17 -179.11427
tors 17 19 22 25 -90.00000
ENDCONSTRAINT
$end
--------------------------------------------------------------

   16   -2595.8986154685      4.72E-09 Convergence criterion met
 Total energy in the final basis set = -2595.8986154685
   12   -2595.8991959682      5.55E-09 Convergence criterion met
 Total energy in the final basis set = -2595.8991959682
   11   -2595.8992527050      5.58E-09 Convergence criterion met
 Total energy in the final basis set = -2595.8992527050
    9   -2595.8992585045      9.16E-09 Convergence criterion met
 Total energy in the final basis set = -2595.8992585045
    9   -2595.8992599548      6.29E-09 Convergence criterion met
 Total energy in the final basis set = -2595.8992599548

             Standard Nuclear Orientation (Angstroms)
    I     Atom           X                Y                Z
 ----------------------------------------------------------------
    1      C       7.6297994320     0.4528226978     0.0498251403
    2      C       6.9238835192     1.3158197460     0.8712855806
    3      N       7.0462832260    -0.4477096805    -0.7355079353
    4      C       5.5435747062     1.2391973756     0.8785952551
    5      C       5.7221676119    -0.5122689587    -0.7210716720
    6      C       4.9097221201     0.3096722115     0.0616303275
    7      C       3.4408082971     0.2141870947     0.0123817659
    8      C       2.6428465699     1.3251246236    -0.0203253673
    9      C       2.7391078296    -1.0259337180    -0.0053313127
   10      N       1.2867483111     1.3394991119    -0.0520312061
   11      N       3.2559918268    -2.2553330725     0.0276400296
   12      C       1.3118586783    -1.0254369931    -0.0417730311
   13      C       0.6046526359     0.2211018831    -0.0646693129
   14      S       2.0109113296    -3.2774197254     0.0062890024
   15      N       0.7784529178    -2.2440312366    -0.0395217828
   16      C      -0.8369890387     0.3302549249    -0.0997303921
   17      S      -1.9439294541    -1.0000217008    -0.1000700074
   18      C      -1.5421898851     1.5101875555    -0.1360704891
   19      C      -3.3182727783     0.0243642162    -0.1472959635
   20      S      -1.0942680701     3.1823819744    -0.1581311390
   21      C      -2.9520251428     1.3465867923    -0.1635480137
   22      C      -4.6794845736    -0.5213247567    -0.1663521562
   23      C      -2.7862733662     3.6368583053    -0.2062295010
   24      C      -3.6467316066     2.6045977151    -0.2053097575
   25      N      -5.3448498082    -0.8159745540    -1.2401282740
   26      S      -5.5509967557    -0.8007034663     1.3083987716
   27      C      -6.5909571109    -1.2811860316    -0.9299453170
   28      C      -6.8885694257    -1.3457194854     0.3919796117
   29      H       8.7128768211     0.4825437962     0.0214446231
   30      H       7.4477587259     2.0231256582     1.4980389877
   31      H       4.9581546117     1.8814428704     1.5233854306
   32      H       5.2733988729    -1.2541095870    -1.3696209122
   33      H       3.1018976981     2.3061499288    -0.0358568901
   34      H      -3.0383447121     4.6849425781    -0.2372869805
   35      H      -4.7201324769     2.7060533744    -0.2395061762
   36      H      -7.2607621501    -1.5651718986    -1.7268547048
   37      H      -7.7995823672    -1.6822193455     0.8555536699
 ----------------------------------------------------------------

    8   -2595.8992602704      6.87E-09 Convergence criterion met
 Total energy in the final basis set = -2595.8992602704
 Final energy is   -2595.89926027042
 **  OPTIMIZATION CONVERGED  **

                    Orbital Energies (a.u.)
 --------------------------------------------------------------

 Alpha MOs
 -- Occupied --
-89.155 -89.094 -89.093 -89.076 -14.494 -14.488 -14.452 -14.448
-14.435 -10.373 -10.369 -10.362 -10.359 -10.343 -10.340 -10.338
-10.334 -10.330 -10.327 -10.326 -10.326 -10.325 -10.325 -10.318
-10.314 -10.314 -10.302 -10.302  -8.165  -8.110  -8.107  -8.090
 -6.115  -6.110  -6.109  -6.059  -6.057  -6.055  -6.053  -6.053
 -6.050  -6.040  -6.036  -6.032  -1.152  -1.085  -1.072  -1.054
 -1.024  -1.015  -0.957  -0.946  -0.912  -0.910  -0.907  -0.884
 -0.861  -0.846  -0.830  -0.808  -0.775  -0.752  -0.744  -0.728
 -0.722  -0.695  -0.691  -0.677  -0.649  -0.641  -0.623  -0.621
 -0.615  -0.598  -0.584  -0.577  -0.570  -0.567  -0.540  -0.534
 -0.527  -0.524  -0.520  -0.514  -0.512  -0.502  -0.496  -0.491
 -0.488  -0.480  -0.478  -0.463  -0.458  -0.448  -0.440  -0.432
 -0.428  -0.423  -0.402  -0.389  -0.377  -0.374  -0.370  -0.368
 -0.364  -0.356  -0.342  -0.337  -0.327  -0.320  -0.277

          Ground-State Mulliken Net Atomic Charges

     Atom                 Charge (a.u.)
  ----------------------------------------
      1 C                    -0.072289
      2 C                    -0.102924
      3 N                    -0.155152
      4 C                    -0.157091
      5 C                    -0.095063
      6 C                     0.109869
      7 C                     0.031750
      8 C                    -0.093619
      9 C                     0.020081
     10 N                    -0.183505
     11 N                    -0.276607
     12 C                     0.028740
     13 C                     0.113240
     14 S                     0.413605
     15 N                    -0.283832
     16 C                    -0.068097
     17 S                     0.170992
     18 C                    -0.006112
     19 C                     0.048928
     20 S                     0.090845
     21 C                     0.000290
     22 C                    -0.087162
     23 C                    -0.159093
     24 C                    -0.159596
     25 N                    -0.147875
     26 S                     0.122314
     27 C                    -0.095464
     28 C                    -0.190075
     29 H                     0.123909
     30 H                     0.128864
     31 H                     0.130707
     32 H                     0.128957
     33 H                     0.131045
     34 H                     0.131571
     35 H                     0.130934
     36 H                     0.133917
     37 H                     0.142999
  ----------------------------------------
  Sum of atomic charges =     0.000000

                    Cartesian Multipole Moments
 -----------------------------------------------------------------
    Charge (ESU x 10^10)
                 0.0000
    Dipole Moment (Debye)
         X      -2.4803      Y       0.9704      Z       2.4311
       Tot       3.6061
    Quadrupole Moments (Debye-Ang)
        XX    -165.5856     XY      11.7377     YY    -172.7523
        XZ       3.8285     YZ       1.0812     ZZ    -188.2540

 Total job time:  5051.65s(wall), 76447.55s(cpu)
        *  Thank you very much for using Q-Chem.  Have a nice day.  *
