 Q-Chem 4.4, Q-Chem, Inc., Pleasanton, CA (2016)
 Q-Chem 4.4.2 for Intel X86 Linux

User input:
--------------------------------------------------------------
$comment
OPTIMIZATION
$end

$rem
JOBTYPE OPT
EXCHANGE omegaB97X-D
BASIS cc-pVTZ
$end

$molecule
0 1
C          0.00000        0.00000        0.00000
C          1.38508        0.00000        0.00000
N         -0.72771       -1.11322        0.00000
C          2.04720       -1.21160       -0.00386
C         -0.08136       -2.27149       -0.00595
C          1.30925       -2.38901       -0.00649
C          1.96927       -3.70493        0.02329
C          3.04486       -3.95576        0.82999
C          1.55200       -4.80802       -0.77739
N          3.72631       -5.12438        0.91627
N          0.54624       -4.84522       -1.65350
C          2.26335       -6.04410       -0.69858
C          3.37925       -6.16090        0.19241
S          0.53898       -6.32692       -2.28381
N          1.78433       -6.98642       -1.50573
C          4.16725       -7.35995        0.35676
S          3.93086       -8.84971       -0.49207
C          5.23222       -7.49170        1.21798
C          5.24541       -9.62206        0.30618
S          5.99863       -6.41836        2.33861
C          5.85372       -8.76608        1.20048
C          5.61707      -10.99188        0.02046
C          7.13339       -7.68106        2.76702
C          6.95917       -8.84504        2.11640
N          6.24552      -11.35011       -1.06219
S          5.26062      -12.31386        1.09793
C          6.46451      -12.69543       -1.08099
C          6.00883      -13.38837       -0.00901
H         -0.55134        0.93273        0.00000
H          1.92494        0.93597       -0.01293
H          3.12873       -1.25416       -0.02668
H         -0.69553       -3.16348       -0.00579
H          3.41622       -3.17720        1.48423
H          7.89362       -7.46677        3.50210
H          7.55900       -9.73031        2.24234
H          6.97491      -13.14096       -1.92117
H          6.07017      -14.44500        0.18393
$end

$opt
CONSTRAINT
tors 4 6 7 8 42.24575
tors 10 13 16 17 -179.11427
tors 17 19 22 25 75.00000
ENDCONSTRAINT
$end
--------------------------------------------------------------

   16   -2595.8993301451      4.50E-09 Convergence criterion met
 Total energy in the final basis set = -2595.8993301451
   11   -2595.8999643922      9.15E-09 Convergence criterion met
 Total energy in the final basis set = -2595.8999643922
   11   -2595.9000731816      8.29E-09 Convergence criterion met
 Total energy in the final basis set = -2595.9000731816
   11   -2595.9001101186      6.14E-09 Convergence criterion met
 Total energy in the final basis set = -2595.9001101186
   11   -2595.9001437359      8.30E-09 Convergence criterion met
 Total energy in the final basis set = -2595.9001437359
   10   -2595.9001549510      9.80E-09 Convergence criterion met
 Total energy in the final basis set = -2595.9001549510

             Standard Nuclear Orientation (Angstroms)
    I     Atom           X                Y                Z
 ----------------------------------------------------------------
    1      C       7.6312799375     0.4798862447    -0.1950558187
    2      C       6.9616989191     1.3733418719     0.6242274909
    3      N       7.0155978776    -0.4585509075    -0.9081419238
    4      C       5.5843718539     1.2877938756     0.7071901073
    5      C       5.6947004984    -0.5308062166    -0.8219177326
    6      C       4.9166127747     0.3200830431    -0.0351527053
    7      C       3.4480032387     0.2140708430    -0.0028566001
    8      C       2.6415502945     1.3186867213    -0.0408758764
    9      C       2.7551503889    -1.0293212740     0.0646439647
   10      N       1.2856661184     1.3248053271    -0.0026927959
   11      N       3.2814738618    -2.2538799591     0.1192197558
   12      C       1.3277914703    -1.0378218721     0.0987971814
   13      C       0.6116858921     0.2033580991     0.0645160846
   14      S       2.0443384289    -3.2825857227     0.1975984199
   15      N       0.8036766266    -2.2582890913     0.1722115491
   16      C      -0.8305027643     0.3045118623     0.0981336750
   17      S      -1.9279496153    -1.0286809073     0.2076675891
   18      C      -1.5429433625     1.4800689712     0.0560503647
   19      C      -3.3084814425    -0.0110354225     0.2072142271
   20      S      -1.1031676735     3.1513478382    -0.0472268595
   21      C      -2.9513914817     1.3114188354     0.1064225925
   22      C      -4.6610566712    -0.5704148170     0.2239653083
   23      C      -2.7966598827     3.5996312533    -0.0294891076
   24      C      -3.6519970822     2.5661963955     0.0531424709
   25      N      -5.2387530384    -1.0982536587     1.2584578962
   26      S      -5.6675893260    -0.4956593602    -1.1901609572
   27      C      -6.5161656241    -1.4815412565     0.9624205062
   28      C      -6.9312820356    -1.2351304262    -0.3050848308
   29      H       8.7110828450     0.5156701909    -0.2817986027
   30      H       7.5103668708     2.1108189752     1.1922426216
   31      H       5.0274023328     1.9525090264     1.3544127007
   32      H       5.2186453071    -1.3053900821    -1.4100121124
   33      H       3.0920203844     2.3007830702    -0.1189794733
   34      H      -3.0545721275     4.6454456096    -0.0812590540
   35      H      -4.7258067269     2.6661245066     0.0813043971
   36      H      -7.1173902914    -1.9437900661     1.7300611664
   37      H      -7.8885443115    -1.4482518775    -0.7482758631
 ----------------------------------------------------------------

    9   -2595.9001575867      8.96E-09 Convergence criterion met
 Total energy in the final basis set = -2595.9001575867
 Final energy is   -2595.90015758668
 **  OPTIMIZATION CONVERGED  **

                    Orbital Energies (a.u.)
 --------------------------------------------------------------

 Alpha MOs
 -- Occupied --
-89.155 -89.094 -89.093 -89.077 -14.494 -14.488 -14.452 -14.448
-14.435 -10.373 -10.369 -10.362 -10.359 -10.344 -10.340 -10.338
-10.334 -10.330 -10.327 -10.326 -10.326 -10.326 -10.325 -10.318
-10.315 -10.314 -10.303 -10.302  -8.165  -8.110  -8.107  -8.091
 -6.115  -6.110  -6.109  -6.058  -6.056  -6.055  -6.053  -6.052
 -6.050  -6.040  -6.037  -6.033  -1.152  -1.085  -1.072  -1.054
 -1.024  -1.015  -0.957  -0.946  -0.912  -0.910  -0.907  -0.884
 -0.861  -0.846  -0.830  -0.808  -0.775  -0.752  -0.744  -0.728
 -0.722  -0.696  -0.692  -0.676  -0.649  -0.641  -0.623  -0.621
 -0.615  -0.597  -0.584  -0.577  -0.570  -0.568  -0.540  -0.534
 -0.527  -0.525  -0.520  -0.514  -0.512  -0.503  -0.496  -0.490
 -0.488  -0.480  -0.478  -0.463  -0.458  -0.448  -0.440  -0.432
 -0.428  -0.423  -0.402  -0.390  -0.379  -0.374  -0.370  -0.369
 -0.364  -0.356  -0.342  -0.338  -0.326  -0.321  -0.276

          Ground-State Mulliken Net Atomic Charges

     Atom                 Charge (a.u.)
  ----------------------------------------
      1 C                    -0.072051
      2 C                    -0.102831
      3 N                    -0.155291
      4 C                    -0.156975
      5 C                    -0.095276
      6 C                     0.109770
      7 C                     0.032362
      8 C                    -0.094336
      9 C                     0.020392
     10 N                    -0.183783
     11 N                    -0.276960
     12 C                     0.028632
     13 C                     0.113196
     14 S                     0.414077
     15 N                    -0.283390
     16 C                    -0.068606
     17 S                     0.171531
     18 C                    -0.006293
     19 C                     0.069205
     20 S                     0.091659
     21 C                    -0.010689
     22 C                    -0.087541
     23 C                    -0.160149
     24 C                    -0.162876
     25 N                    -0.151003
     26 S                     0.116253
     27 C                    -0.094408
     28 C                    -0.190927
     29 H                     0.123814
     30 H                     0.128801
     31 H                     0.131199
     32 H                     0.128402
     33 H                     0.131150
     34 H                     0.131622
     35 H                     0.133026
     36 H                     0.134439
     37 H                     0.143854
  ----------------------------------------
  Sum of atomic charges =     0.000000

                    Cartesian Multipole Moments
 -----------------------------------------------------------------
    Charge (ESU x 10^10)
                 0.0000
    Dipole Moment (Debye)
         X      -2.4849      Y       1.2797      Z       0.0204
       Tot       2.7952
    Quadrupole Moments (Debye-Ang)
        XX    -163.8838     XY      10.8471     YY    -172.9519
        XZ      15.2783     YZ       2.1428     ZZ    -189.1891

 Total job time:  6167.05s(wall), 93336.84s(cpu)
        *  Thank you very much for using Q-Chem.  Have a nice day.  *
