 Q-Chem 4.4, Q-Chem, Inc., Pleasanton, CA (2016)
 Q-Chem 4.4.2 for Intel X86 Linux

User input:
--------------------------------------------------------------
$comment
OPTIMIZATION
$end

$rem
JOBTYPE OPT
EXCHANGE omegaB97X-D
BASIS cc-pVTZ
$end

$molecule
0 1
C          0.00000        0.00000        0.00000
C          1.38508        0.00000        0.00000
N         -0.72771       -1.11322        0.00000
C          2.04720       -1.21160       -0.00386
C         -0.08136       -2.27149       -0.00595
C          1.30925       -2.38901       -0.00649
C          1.96927       -3.70493        0.02329
C          3.04486       -3.95576        0.82999
C          1.55200       -4.80802       -0.77739
N          3.72631       -5.12438        0.91627
N          0.54624       -4.84522       -1.65350
C          2.26335       -6.04410       -0.69858
C          3.37925       -6.16090        0.19241
S          0.53898       -6.32692       -2.28381
N          1.78433       -6.98642       -1.50573
C          4.16725       -7.35995        0.35676
S          3.93086       -8.84971       -0.49207
C          5.23222       -7.49170        1.21798
C          5.24541       -9.62206        0.30618
S          5.99863       -6.41836        2.33861
C          5.85372       -8.76608        1.20048
C          5.61707      -10.99188        0.02046
C          7.13339       -7.68106        2.76702
C          6.95917       -8.84504        2.11640
N          4.76397      -11.89809       -0.36218
S          7.25190      -11.57794        0.15999
C          5.37724      -13.10015       -0.55495
C          6.71263      -13.13143       -0.32539
H         -0.55134        0.93273        0.00000
H          1.92494        0.93597       -0.01293
H          3.12873       -1.25416       -0.02668
H         -0.69553       -3.16348       -0.00579
H          3.41622       -3.17720        1.48423
H          7.89362       -7.46677        3.50210
H          7.55900       -9.73031        2.24234
H          4.79436      -13.95145       -0.87192
H          7.39032      -13.96248       -0.41219
$end

$opt
CONSTRAINT
tors 4 6 7 8 42.24575
tors 10 13 16 17 -179.11427
tors 17 19 22 25 -30.00000
ENDCONSTRAINT
$end
--------------------------------------------------------------

   16   -2595.9046689257      4.80E-09 Convergence criterion met
 Total energy in the final basis set = -2595.9046689257
   12   -2595.9053482165      5.58E-09 Convergence criterion met
 Total energy in the final basis set = -2595.9053482165
   11   -2595.9054217145      4.58E-09 Convergence criterion met
 Total energy in the final basis set = -2595.9054217145
   10   -2595.9054357520      5.27E-09 Convergence criterion met
 Total energy in the final basis set = -2595.9054357520
   10   -2595.9054434519      5.26E-09 Convergence criterion met
 Total energy in the final basis set = -2595.9054434519
   10   -2595.9054466980      3.91E-09 Convergence criterion met
 Total energy in the final basis set = -2595.9054466980

             Standard Nuclear Orientation (Angstroms)
    I     Atom           X                Y                Z
 ----------------------------------------------------------------
    1      C       7.6209258231     0.5490643219     0.0078553146
    2      C       6.9053151849     1.4219176557     0.8102877247
    3      N       7.0481091472    -0.3825636810    -0.7485485745
    4      C       5.5266231435     1.3219720708     0.8287653783
    5      C       5.7254103029    -0.4692649641    -0.7237333230
    6      C       4.9036799825     0.3599505886     0.0414671995
    7      C       3.4363553290     0.2392355012     0.0039119401
    8      C       2.6206604696     1.3364560080    -0.0544054258
    9      C       2.7545135339    -1.0117014263     0.0250644003
   10      N       1.2649212004     1.3281297148    -0.0786952188
   11      N       3.2913652524    -2.2312459027     0.0903832904
   12      C       1.3271486087    -1.0352738585    -0.0021530650
   13      C       0.6000426018     0.1988982639    -0.0554658771
   14      S       2.0626733310    -3.2732579699     0.1068998842
   15      N       0.8136584782    -2.2616414736     0.0394414343
   16      C      -0.8428052238     0.2855221351    -0.0820762865
   17      S      -1.9279343303    -1.0592055683    -0.0374997910
   18      C      -1.5617366235     1.4569251409    -0.1470807231
   19      C      -3.3180064617    -0.0522078782    -0.1096651559
   20      S      -1.1186155174     3.1284283465    -0.2271479102
   21      C      -2.9694400022     1.2813183995    -0.1593188374
   22      C      -4.6319276544    -0.6620138886    -0.0550314412
   23      C      -2.8081956568     3.5730419838    -0.2852721128
   24      C      -3.6654958666     2.5372753877    -0.2451414201
   25      N      -4.8953047281    -1.8546623102    -0.5018849665
   26      S      -6.0058689974     0.1541095778     0.6302152359
   27      C      -6.2087794296    -2.1697519031    -0.3158689248
   28      C      -6.9720833802    -1.2143623236     0.2697896007
   29      H       8.7031264326     0.5966975591    -0.0287485030
   30      H       7.4203403530     2.1553862164     1.4138930100
   31      H       4.9345088837     1.9706800953     1.4608589345
   32      H       5.2856764913    -1.2363182833    -1.3486357422
   33      H       3.0641459866     2.3237862547    -0.0991980467
   34      H      -3.0678233524     4.6172871965    -0.3556405751
   35      H      -4.7376368405     2.6465190445    -0.2867037132
   36      H      -6.5712453985    -3.1316558384    -0.6445380785
   37      H      -8.0224999079    -1.2427520368     0.5011450944
 ----------------------------------------------------------------

    8   -2595.9054472287      8.12E-09 Convergence criterion met
 Total energy in the final basis set = -2595.9054472287
 Final energy is   -2595.90544722874
 **  OPTIMIZATION CONVERGED  **

                    Orbital Energies (a.u.)
 --------------------------------------------------------------

 Alpha MOs
 -- Occupied --
-89.155 -89.094 -89.091 -89.077 -14.493 -14.487 -14.452 -14.445
-14.435 -10.374 -10.369 -10.362 -10.359 -10.345 -10.340 -10.338
-10.334 -10.329 -10.328 -10.327 -10.326 -10.326 -10.325 -10.318
-10.317 -10.314 -10.305 -10.302  -8.165  -8.110  -8.106  -8.092
 -6.115  -6.109  -6.108  -6.059  -6.055  -6.055  -6.053  -6.051
 -6.048  -6.041  -6.038  -6.034  -1.152  -1.084  -1.072  -1.054
 -1.024  -1.015  -0.958  -0.945  -0.912  -0.910  -0.907  -0.884
 -0.861  -0.846  -0.831  -0.809  -0.775  -0.752  -0.744  -0.728
 -0.722  -0.699  -0.693  -0.676  -0.646  -0.640  -0.623  -0.621
 -0.615  -0.596  -0.584  -0.577  -0.570  -0.567  -0.542  -0.536
 -0.528  -0.527  -0.519  -0.515  -0.512  -0.502  -0.496  -0.490
 -0.485  -0.480  -0.478  -0.463  -0.458  -0.448  -0.440  -0.432
 -0.431  -0.422  -0.402  -0.394  -0.381  -0.374  -0.370  -0.369
 -0.364  -0.358  -0.342  -0.338  -0.327  -0.320  -0.270

          Ground-State Mulliken Net Atomic Charges

     Atom                 Charge (a.u.)
  ----------------------------------------
      1 C                    -0.072354
      2 C                    -0.102909
      3 N                    -0.155086
      4 C                    -0.157317
      5 C                    -0.095193
      6 C                     0.109973
      7 C                     0.033165
      8 C                    -0.094948
      9 C                     0.018675
     10 N                    -0.185210
     11 N                    -0.276617
     12 C                     0.028939
     13 C                     0.113358
     14 S                     0.414670
     15 N                    -0.281247
     16 C                    -0.062721
     17 S                     0.169571
     18 C                    -0.005947
     19 C                     0.047281
     20 S                     0.094380
     21 C                    -0.005920
     22 C                    -0.031152
     23 C                    -0.164497
     24 C                    -0.167516
     25 N                    -0.171772
     26 S                     0.099038
     27 C                    -0.086592
     28 C                    -0.200548
     29 H                     0.123889
     30 H                     0.128941
     31 H                     0.130605
     32 H                     0.128987
     33 H                     0.130952
     34 H                     0.132430
     35 H                     0.133885
     36 H                     0.133566
     37 H                     0.145243
  ----------------------------------------
  Sum of atomic charges =     0.000000

                    Cartesian Multipole Moments
 -----------------------------------------------------------------
    Charge (ESU x 10^10)
                 0.0000
    Dipole Moment (Debye)
         X      -2.6476      Y       1.7747      Z       1.7175
       Tot       3.6207
    Quadrupole Moments (Debye-Ang)
        XX    -163.9374     XY       8.5293     YY    -172.9168
        XZ       6.7212     YZ       1.0275     ZZ    -188.3645

 Total job time:  5973.16s(wall), 90454.19s(cpu)
        *  Thank you very much for using Q-Chem.  Have a nice day.  *
