 Q-Chem 4.4, Q-Chem, Inc., Pleasanton, CA (2016)
 Q-Chem 4.4.2 for Intel X86 Linux

User input:
--------------------------------------------------------------
$comment
OPTIMIZATION
$end

$rem
JOBTYPE OPT
EXCHANGE omegaB97X-D
BASIS cc-pVTZ
$end

$molecule
0 1
C          0.00000        0.00000        0.00000
C          1.38508        0.00000        0.00000
N         -0.72771       -1.11322        0.00000
C          2.04720       -1.21160       -0.00386
C         -0.08136       -2.27149       -0.00595
C          1.30925       -2.38901       -0.00649
C          1.96927       -3.70493        0.02329
C          3.04486       -3.95576        0.82999
C          1.55200       -4.80802       -0.77739
N          3.72631       -5.12438        0.91627
N          0.54624       -4.84522       -1.65350
C          2.26335       -6.04410       -0.69858
C          3.37925       -6.16090        0.19241
S          0.53898       -6.32692       -2.28381
N          1.78433       -6.98642       -1.50573
C          4.16725       -7.35995        0.35676
S          3.93086       -8.84971       -0.49207
C          5.23222       -7.49170        1.21798
C          5.24541       -9.62206        0.30618
S          5.99863       -6.41836        2.33861
C          5.85372       -8.76608        1.20048
C          5.61707      -10.99188        0.02046
C          7.13339       -7.68106        2.76702
C          6.95917       -8.84504        2.11640
N          5.70906      -11.46956       -1.18734
S          5.98108      -12.15361        1.26685
C          6.06840      -12.78438       -1.16977
C          6.26051      -13.33332        0.05444
H         -0.55134        0.93273        0.00000
H          1.92494        0.93597       -0.01293
H          3.12873       -1.25416       -0.02668
H         -0.69553       -3.16348       -0.00579
H          3.41622       -3.17720        1.48423
H          7.89362       -7.46677        3.50210
H          7.55900       -9.73031        2.24234
H          6.18162      -13.31877       -2.10065
H          6.54277      -14.34146        0.30229
$end

$opt
CONSTRAINT
tors 4 6 7 8 42.24575
tors 10 13 16 17 -179.11427
tors 17 19 22 25 45.00000
ENDCONSTRAINT
$end
--------------------------------------------------------------

   16   -2595.9031469271      4.64E-09 Convergence criterion met
 Total energy in the final basis set = -2595.9031469271
   12   -2595.9037278668      4.54E-09 Convergence criterion met
 Total energy in the final basis set = -2595.9037278668
   11   -2595.9038477715      7.74E-09 Convergence criterion met
 Total energy in the final basis set = -2595.9038477715
   11   -2595.9038861714      5.74E-09 Convergence criterion met
 Total energy in the final basis set = -2595.9038861714
   11   -2595.9039110215      5.60E-09 Convergence criterion met
 Total energy in the final basis set = -2595.9039110215
   10   -2595.9039156559      3.28E-09 Convergence criterion met
 Total energy in the final basis set = -2595.9039156559

             Standard Nuclear Orientation (Angstroms)
    I     Atom           X                Y                Z
 ----------------------------------------------------------------
    1      C       7.6261751931     0.5285303425    -0.1517360363
    2      C       6.9427684509     1.3967543658     0.6831159760
    3      N       7.0235233617    -0.3954488060    -0.8941388091
    4      C       5.5654287253     1.2999352224     0.7510977616
    5      C       5.7023880103    -0.4790415535    -0.8217263542
    6      C       4.9112495785     0.3459313985    -0.0205398415
    7      C       3.4431925925     0.2290204670    -0.0039720658
    8      C       2.6292654381     1.3288861098    -0.0223754979
    9      C       2.7586504500    -1.0202365531     0.0294728471
   10      N       1.2734105996     1.3247979727     0.0061375622
   11      N       3.2932767197    -2.2420785086     0.0594294889
   12      C       1.3311757409    -1.0393998560     0.0532731016
   13      C       0.6065348651     0.1972977208     0.0429974238
   14      S       2.0627303461    -3.2807683573     0.1051918477
   15      N       0.8151956205    -2.2647448313     0.0946684838
   16      C      -0.8361554660     0.2876042038     0.0697270037
   17      S      -1.9230817566    -1.0552029779     0.1412240379
   18      C      -1.5551209027     1.4606418478     0.0539740236
   19      C      -3.3112129937    -0.0454656331     0.1592660202
   20      S      -1.1165609087     3.1345579078     0.0021963336
   21      C      -2.9624755271     1.2855688417     0.0934130270
   22      C      -4.6368665950    -0.6416251288     0.1509170246
   23      C      -2.8084707513     3.5792933245     0.0327321924
   24      C      -3.6628091801     2.5420513188     0.0818959222
   25      N      -4.9955500356    -1.6463866114     0.8926157352
   26      S      -5.9077787067    -0.0152647563    -0.8563241303
   27      C      -6.3047226568    -1.9675586082     0.6813259652
   28      C      -6.9687879912    -1.1978360282    -0.2162877277
   29      H       8.7064385710     0.5738540579    -0.2276071301
   30      H       7.4814459286     2.1236026839     1.2739233150
   31      H       4.9979896604     1.9456495369     1.4083815838
   32      H       5.2377182265    -1.2400080317    -1.4359035709
   33      H       3.0737875865     2.3153636248    -0.0750300397
   34      H      -3.0697562012     4.6254189791     0.0168610623
   35      H      -4.7359808755     2.6456367943     0.1172397320
   36      H      -6.7403122287    -2.7905491681     1.2267549862
   37      H      -7.9969849817    -1.2653628507    -0.5263434424
 ----------------------------------------------------------------

    9   -2595.9039164336      4.55E-09 Convergence criterion met
 Total energy in the final basis set = -2595.9039164336
 Final energy is   -2595.90391643359
 **  OPTIMIZATION CONVERGED  **

                    Orbital Energies (a.u.)
 --------------------------------------------------------------

 Alpha MOs
 -- Occupied --
-89.155 -89.094 -89.092 -89.077 -14.494 -14.487 -14.452 -14.446
-14.435 -10.374 -10.369 -10.362 -10.359 -10.345 -10.340 -10.338
-10.334 -10.329 -10.328 -10.326 -10.326 -10.326 -10.325 -10.318
-10.316 -10.314 -10.304 -10.302  -8.165  -8.110  -8.106  -8.091
 -6.115  -6.109  -6.109  -6.059  -6.056  -6.055  -6.053  -6.052
 -6.049  -6.041  -6.037  -6.034  -1.152  -1.084  -1.072  -1.054
 -1.024  -1.015  -0.958  -0.945  -0.912  -0.910  -0.907  -0.884
 -0.861  -0.846  -0.831  -0.809  -0.775  -0.752  -0.744  -0.728
 -0.722  -0.698  -0.693  -0.676  -0.647  -0.640  -0.623  -0.621
 -0.616  -0.597  -0.584  -0.577  -0.570  -0.568  -0.541  -0.535
 -0.528  -0.527  -0.519  -0.514  -0.512  -0.503  -0.496  -0.490
 -0.487  -0.480  -0.478  -0.463  -0.459  -0.448  -0.440  -0.433
 -0.429  -0.423  -0.402  -0.392  -0.380  -0.374  -0.370  -0.369
 -0.364  -0.357  -0.342  -0.339  -0.327  -0.320  -0.272

          Ground-State Mulliken Net Atomic Charges

     Atom                 Charge (a.u.)
  ----------------------------------------
      1 C                    -0.072082
      2 C                    -0.102833
      3 N                    -0.155220
      4 C                    -0.156825
      5 C                    -0.095318
      6 C                     0.109511
      7 C                     0.032484
      8 C                    -0.094805
      9 C                     0.019679
     10 N                    -0.184710
     11 N                    -0.276675
     12 C                     0.029513
     13 C                     0.112162
     14 S                     0.414531
     15 N                    -0.282307
     16 C                    -0.064479
     17 S                     0.170597
     18 C                    -0.005824
     19 C                     0.061634
     20 S                     0.093382
     21 C                    -0.010096
     22 C                    -0.050493
     23 C                    -0.164214
     24 C                    -0.166852
     25 N                    -0.166867
     26 S                     0.102779
     27 C                    -0.089922
     28 C                    -0.195877
     29 H                     0.123781
     30 H                     0.128781
     31 H                     0.130996
     32 H                     0.128628
     33 H                     0.130994
     34 H                     0.132100
     35 H                     0.135663
     36 H                     0.133713
     37 H                     0.144469
  ----------------------------------------
  Sum of atomic charges =     0.000000

                    Cartesian Multipole Moments
 -----------------------------------------------------------------
    Charge (ESU x 10^10)
                 0.0000
    Dipole Moment (Debye)
         X      -2.5944      Y       1.6298      Z       0.4281
       Tot       3.0936
    Quadrupole Moments (Debye-Ang)
        XX    -163.2212     XY       8.9909     YY    -173.1091
        XZ      13.5864     YZ       2.4837     ZZ    -188.9323

 Total job time:  6121.24s(wall), 92703.37s(cpu)
        *  Thank you very much for using Q-Chem.  Have a nice day.  *
