 Q-Chem 4.4, Q-Chem, Inc., Pleasanton, CA (2016)
 Q-Chem 4.4.2 for Intel X86 Linux

User input:
--------------------------------------------------------------
$comment
OPTIMIZATION
$end

$rem
JOBTYPE OPT
EXCHANGE omegaB97X-D
BASIS cc-pVTZ
$end

$molecule
0 1
C          0.00000        0.00000        0.00000
C          1.38508        0.00000        0.00000
N         -0.72771       -1.11322        0.00000
C          2.04720       -1.21160       -0.00386
C         -0.08136       -2.27149       -0.00595
C          1.30925       -2.38901       -0.00649
C          1.96927       -3.70493        0.02329
C          3.04486       -3.95576        0.82999
C          1.55200       -4.80802       -0.77739
N          3.72631       -5.12438        0.91627
N          0.54624       -4.84522       -1.65350
C          2.26335       -6.04410       -0.69858
C          3.37925       -6.16090        0.19241
S          0.53898       -6.32692       -2.28381
N          1.78433       -6.98642       -1.50573
C          4.16725       -7.35995        0.35676
S          3.93086       -8.84971       -0.49207
C          5.23222       -7.49170        1.21798
C          5.24541       -9.62206        0.30618
S          5.99863       -6.41836        2.33861
C          5.85372       -8.76608        1.20048
C          5.61707      -10.99188        0.02046
C          7.13339       -7.68106        2.76702
C          6.95917       -8.84504        2.11640
N          4.99442      -11.73389       -0.84968
S          6.94160      -11.79864        0.81442
C          5.54394      -12.97960       -0.91603
C          6.59999      -13.20938       -0.09817
H         -0.55134        0.93273        0.00000
H          1.92494        0.93597       -0.01293
H          3.12873       -1.25416       -0.02668
H         -0.69553       -3.16348       -0.00579
H          3.41622       -3.17720        1.48423
H          7.89362       -7.46677        3.50210
H          7.55900       -9.73031        2.24234
H          5.12981      -13.70971       -1.59453
H          7.17956      -14.10871        0.01475
$end

$opt
CONSTRAINT
tors 4 6 7 8 42.24575
tors 10 13 16 17 -179.11427
tors 17 19 22 25 0.00000
ENDCONSTRAINT
$end
--------------------------------------------------------------

   16   -2595.9053753653      4.95E-09 Convergence criterion met
 Total energy in the final basis set = -2595.9053753653
   13   -2595.9065077748      4.92E-09 Convergence criterion met
 Total energy in the final basis set = -2595.9065077748
   10   -2595.9066491727      8.74E-09 Convergence criterion met
 Total energy in the final basis set = -2595.9066491727
   10   -2595.9066632406      5.45E-09 Convergence criterion met
 Total energy in the final basis set = -2595.9066632406
    9   -2595.9066642666      4.15E-09 Convergence criterion met
 Total energy in the final basis set = -2595.9066642666

             Standard Nuclear Orientation (Angstroms)
    I     Atom           X                Y                Z
 ----------------------------------------------------------------
    1      C       7.6165701237     0.5504804113    -0.0584126889
    2      C       6.9145108031     1.4169639662     0.7626742438
    3      N       7.0310143246    -0.3736709121    -0.8141904480
    4      C       5.5361664145     1.3182230203     0.8016998122
    5      C       5.7087963635    -0.4594963718    -0.7692858122
    6      C       4.8999687693     0.3634414018     0.0162072191
    7      C       3.4321418656     0.2439987045     0.0010781705
    8      C       2.6160844172     1.3420340438    -0.0347311390
    9      C       2.7502028097    -1.0067436399     0.0228275325
   10      N       1.2603040425     1.3341962689    -0.0364168764
   11      N       3.2878790296    -2.2268508196     0.0674296820
   12      C       1.3224916821    -1.0298249471     0.0187565823
   13      C       0.5950393854     0.2050302340    -0.0113606073
   14      S       2.0593700510    -3.2687282582     0.0934996137
   15      N       0.8095837786    -2.2565799142     0.0558093127
   16      C      -0.8480746112     0.2923270957    -0.0155939074
   17      S      -1.9307407102    -1.0540518181     0.0356453836
   18      C      -1.5670023236     1.4645775309    -0.0568807255
   19      C      -3.3228681220    -0.0448900477     0.0003348720
   20      S      -1.1206382985     3.1361617288    -0.1171401379
   21      C      -2.9748290580     1.2904002788    -0.0498257533
   22      C      -4.6265095152    -0.6704479392     0.0279048489
   23      C      -2.8084321170     3.5847335363    -0.1356853986
   24      C      -3.6679304197     2.5499883362    -0.0973888094
   25      N      -4.7947015141    -1.9603519669     0.0781460054
   26      S      -6.1143267371     0.2290007046    -0.0035940488
   27      C      -6.1167229286    -2.2864335980     0.0934339408
   28      C      -6.9854221791    -1.2460933408     0.0548306784
   29      H       8.6981158371     0.5974771513    -0.1115897686
   30      H       7.4397649646     2.1441779855     1.3650103215
   31      H       4.9543319084     1.9627518855     1.4474592725
   32      H       5.2584358240    -1.2204176639    -1.3941020724
   33      H       3.0593094668     2.3295391418    -0.0784251891
   34      H      -3.0680593284     4.6306235749    -0.1759179052
   35      H      -4.7394413860     2.6707773534    -0.1029569448
   36      H      -6.4026362327    -3.3263666577     0.1348587733
   37      H      -8.0610686394    -1.2666417188     0.0581919665
 ----------------------------------------------------------------

    9   -2595.9066645702      3.16E-09 Convergence criterion met
 Total energy in the final basis set = -2595.9066645702
 Final energy is   -2595.90666457022
 **  OPTIMIZATION CONVERGED  **

                    Orbital Energies (a.u.)
 --------------------------------------------------------------

 Alpha MOs
 -- Occupied --
-89.154 -89.094 -89.090 -89.078 -14.493 -14.487 -14.452 -14.444
-14.435 -10.374 -10.369 -10.362 -10.359 -10.345 -10.340 -10.338
-10.334 -10.328 -10.328 -10.328 -10.326 -10.326 -10.325 -10.318
-10.317 -10.314 -10.305 -10.302  -8.164  -8.110  -8.104  -8.092
 -6.115  -6.109  -6.108  -6.058  -6.055  -6.054  -6.053  -6.050
 -6.047  -6.042  -6.038  -6.034  -1.151  -1.084  -1.072  -1.054
 -1.024  -1.015  -0.958  -0.945  -0.912  -0.910  -0.907  -0.884
 -0.861  -0.846  -0.830  -0.809  -0.775  -0.752  -0.743  -0.728
 -0.722  -0.700  -0.694  -0.676  -0.646  -0.639  -0.624  -0.621
 -0.615  -0.596  -0.583  -0.576  -0.570  -0.568  -0.542  -0.537
 -0.529  -0.527  -0.519  -0.514  -0.512  -0.502  -0.496  -0.489
 -0.484  -0.480  -0.478  -0.463  -0.458  -0.448  -0.439  -0.433
 -0.432  -0.423  -0.402  -0.396  -0.381  -0.375  -0.370  -0.368
 -0.364  -0.358  -0.342  -0.338  -0.326  -0.320  -0.268

          Ground-State Mulliken Net Atomic Charges

     Atom                 Charge (a.u.)
  ----------------------------------------
      1 C                    -0.072183
      2 C                    -0.102943
      3 N                    -0.155141
      4 C                    -0.156954
      5 C                    -0.095124
      6 C                     0.109696
      7 C                     0.033245
      8 C                    -0.095114
      9 C                     0.018642
     10 N                    -0.185371
     11 N                    -0.276762
     12 C                     0.028201
     13 C                     0.115822
     14 S                     0.414810
     15 N                    -0.279871
     16 C                    -0.057894
     17 S                     0.167122
     18 C                    -0.011673
     19 C                     0.009628
     20 S                     0.095378
     21 C                     0.012574
     22 C                     0.000910
     23 C                    -0.163722
     24 C                    -0.168776
     25 N                    -0.175132
     26 S                     0.088636
     27 C                    -0.080566
     28 C                    -0.208844
     29 H                     0.123841
     30 H                     0.128859
     31 H                     0.130679
     32 H                     0.128919
     33 H                     0.130850
     34 H                     0.133333
     35 H                     0.133916
     36 H                     0.133904
     37 H                     0.147107
  ----------------------------------------
  Sum of atomic charges =     0.000000

                    Cartesian Multipole Moments
 -----------------------------------------------------------------
    Charge (ESU x 10^10)
                 0.0000
    Dipole Moment (Debye)
         X      -2.6253      Y       1.8304      Z       1.1960
       Tot       3.4166
    Quadrupole Moments (Debye-Ang)
        XX    -163.5818     XY       8.4059     YY    -172.5445
        XZ       9.6188     YZ       1.7125     ZZ    -188.6066

 Total job time:  5250.27s(wall), 79564.22s(cpu)
        *  Thank you very much for using Q-Chem.  Have a nice day.  *
