 Q-Chem 4.4, Q-Chem, Inc., Pleasanton, CA (2016)
 Q-Chem 4.4.2 for Intel X86 Linux

User input:
--------------------------------------------------------------
$comment
OPTIMIZATION
$end

$rem
JOBTYPE OPT
EXCHANGE omegaB97X-D
BASIS cc-pVTZ
$end

$molecule
0 1
C          0.00000        0.00000        0.00000
C          1.38508        0.00000        0.00000
N         -0.72771       -1.11322        0.00000
C          2.04720       -1.21160       -0.00386
C         -0.08136       -2.27149       -0.00595
C          1.30925       -2.38901       -0.00649
C          1.96927       -3.70493        0.02329
C          3.04486       -3.95576        0.82999
C          1.55200       -4.80802       -0.77739
N          3.72631       -5.12438        0.91627
N          0.54624       -4.84522       -1.65350
C          2.26335       -6.04410       -0.69858
C          3.37925       -6.16090        0.19241
S          0.53898       -6.32692       -2.28381
N          1.78433       -6.98642       -1.50573
C          4.16725       -7.35995        0.35676
S          3.93086       -8.84971       -0.49207
C          5.23222       -7.49170        1.21798
C          5.24541       -9.62206        0.30618
S          5.99863       -6.41836        2.33861
C          5.85372       -8.76608        1.20048
C          5.61707      -10.99188        0.02046
C          7.13339       -7.68106        2.76702
C          6.95917       -8.84504        2.11640
N          6.47717      -11.32109       -0.90001
S          4.94968      -12.35271        0.87973
C          6.63625      -12.67347       -0.96288
C          5.90106      -13.40129       -0.08726
H         -0.55134        0.93273        0.00000
H          1.92494        0.93597       -0.01293
H          3.12873       -1.25416       -0.02668
H         -0.69553       -3.16348       -0.00579
H          3.41622       -3.17720        1.48423
H          7.89362       -7.46677        3.50210
H          7.55900       -9.73031        2.24234
H          7.31852      -13.09723       -1.68389
H          5.86765      -14.46937        0.03735
$end

$opt
CONSTRAINT
tors 4 6 7 8 42.24575
tors 10 13 16 17 -179.11427
tors 17 19 22 25 90.00000
ENDCONSTRAINT
$end
--------------------------------------------------------------

   16   -2595.8986850260      4.63E-09 Convergence criterion met
 Total energy in the final basis set = -2595.8986850260
   11   -2595.8992634665      1.00E-08 Convergence criterion met
 Total energy in the final basis set = -2595.8992634665
   11   -2595.8993162794      5.53E-09 Convergence criterion met
 Total energy in the final basis set = -2595.8993162794
   10   -2595.8993219319      4.55E-09 Convergence criterion met
 Total energy in the final basis set = -2595.8993219319
    9   -2595.8993236815      9.50E-09 Convergence criterion met
 Total energy in the final basis set = -2595.8993236815

             Standard Nuclear Orientation (Angstroms)
    I     Atom           X                Y                Z
 ----------------------------------------------------------------
    1      C       7.6288703718     0.4397194312    -0.1645184175
    2      C       6.9592298158     1.3424448920     0.6445311572
    3      N       7.0120578134    -0.4966121312    -0.8793857299
    4      C       5.5804782575     1.2689400144     0.7147620698
    5      C       5.6898478213    -0.5574202321    -0.8052179069
    6      C       4.9117380449     0.3032775749    -0.0293585306
    7      C       3.4420644846     0.2096473019    -0.0110090123
    8      C       2.6447576424     1.3203031108    -0.0622613175
    9      C       2.7388997687    -1.0277670539     0.0590116122
   10      N       1.2886459513     1.3374481656    -0.0362805843
   11      N       3.2552692356    -2.2559688053     0.1261151415
   12      C       1.3113378766    -1.0244942509     0.0840220295
   13      C       0.6053769367     0.2219767036     0.0349933937
   14      S       2.0094072275    -3.2740710606     0.2046602601
   15      N       0.7771194945    -2.2401328367     0.1641887741
   16      C      -0.8361592327     0.3347987930     0.0592684867
   17      S      -1.9450027789    -0.9890869244     0.1718917661
   18      C      -1.5395792212     1.5150728441     0.0039693440
   19      C      -3.3177516126     0.0380813735     0.1393453103
   20      S      -1.0885269008     3.1828014198    -0.1058837557
   21      C      -2.9496774834     1.3567070898     0.0469034154
   22      C      -4.6791978051    -0.5019662431     0.2155439158
   23      C      -2.7797624472     3.6425736670    -0.0964197104
   24      C      -3.6421218913     2.6152668533    -0.0135172903
   25      N      -5.3361193726    -0.7005717058     1.3163287181
   26      S      -5.5623562444    -0.9096115649    -1.2219488708
   27      C      -6.5850333892    -1.1897763754     1.0578961324
   28      C      -6.8929546639    -1.3697895075    -0.2510385228
   29      H       8.7097162798     0.4658960375    -0.2411152899
   30      H       7.5087870956     2.0774955928     1.2148348873
   31      H       5.0231048449     1.9410698303     1.3539274375
   32      H       5.2125993168    -1.3306745932    -1.3941844534
   33      H       3.1035950965     2.2983797032    -0.1419304037
   34      H      -3.0297797624     4.6900860528    -0.1527961033
   35      H      -4.7153282187     2.7210922594     0.0118744075
   36      H      -7.2484755223    -1.4042843099     1.8814188258
   37      H      -7.8077556948    -1.7438567809    -0.6769339626
 ----------------------------------------------------------------

    9   -2595.8993243617      6.17E-09 Convergence criterion met
 Total energy in the final basis set = -2595.8993243617
 Final energy is   -2595.89932436175
 **  OPTIMIZATION CONVERGED  **

                    Orbital Energies (a.u.)
 --------------------------------------------------------------

 Alpha MOs
 -- Occupied --
-89.155 -89.094 -89.093 -89.076 -14.494 -14.488 -14.452 -14.448
-14.435 -10.373 -10.369 -10.362 -10.359 -10.343 -10.340 -10.338
-10.334 -10.330 -10.327 -10.326 -10.326 -10.325 -10.325 -10.318
-10.314 -10.314 -10.302 -10.302  -8.165  -8.110  -8.107  -8.090
 -6.115  -6.110  -6.109  -6.059  -6.057  -6.055  -6.053  -6.053
 -6.050  -6.040  -6.036  -6.032  -1.152  -1.085  -1.072  -1.054
 -1.024  -1.015  -0.957  -0.946  -0.912  -0.910  -0.907  -0.883
 -0.861  -0.846  -0.830  -0.808  -0.775  -0.752  -0.744  -0.728
 -0.722  -0.695  -0.691  -0.677  -0.649  -0.641  -0.623  -0.621
 -0.615  -0.598  -0.584  -0.577  -0.570  -0.567  -0.540  -0.534
 -0.527  -0.524  -0.521  -0.513  -0.512  -0.503  -0.496  -0.491
 -0.489  -0.480  -0.477  -0.463  -0.458  -0.448  -0.440  -0.432
 -0.428  -0.423  -0.402  -0.389  -0.377  -0.374  -0.370  -0.369
 -0.364  -0.356  -0.342  -0.337  -0.327  -0.320  -0.277

          Ground-State Mulliken Net Atomic Charges

     Atom                 Charge (a.u.)
  ----------------------------------------
      1 C                    -0.072042
      2 C                    -0.102892
      3 N                    -0.155354
      4 C                    -0.157054
      5 C                    -0.095220
      6 C                     0.109837
      7 C                     0.032238
      8 C                    -0.094171
      9 C                     0.020382
     10 N                    -0.183451
     11 N                    -0.276900
     12 C                     0.028559
     13 C                     0.113484
     14 S                     0.413606
     15 N                    -0.283760
     16 C                    -0.067982
     17 S                     0.170942
     18 C                    -0.006121
     19 C                     0.046564
     20 S                     0.090990
     21 C                     0.001070
     22 C                    -0.085897
     23 C                    -0.159015
     24 C                    -0.159439
     25 N                    -0.148115
     26 S                     0.122651
     27 C                    -0.096016
     28 C                    -0.189443
     29 H                     0.123849
     30 H                     0.128807
     31 H                     0.131311
     32 H                     0.128402
     33 H                     0.131163
     34 H                     0.131485
     35 H                     0.130831
     36 H                     0.134017
     37 H                     0.142683
  ----------------------------------------
  Sum of atomic charges =     0.000000

                    Cartesian Multipole Moments
 -----------------------------------------------------------------
    Charge (ESU x 10^10)
                 0.0000
    Dipole Moment (Debye)
         X      -2.4394      Y       0.9285      Z       0.0267
       Tot       2.6103
    Quadrupole Moments (Debye-Ang)
        XX    -164.6797     XY      12.8264     YY    -172.4617
        XZ      15.0353     YZ       1.9218     ZZ    -189.0697

 Total job time:  5125.78s(wall), 77571.19s(cpu)
        *  Thank you very much for using Q-Chem.  Have a nice day.  *
