 Q-Chem 4.4, Q-Chem, Inc., Pleasanton, CA (2016)
 Q-Chem 4.4.2 for Intel X86 Linux

User input:
--------------------------------------------------------------
$comment
OPTIMIZATION
$end

$rem
JOBTYPE OPT
EXCHANGE omegaB97X-D
BASIS cc-pVTZ
$end

$molecule
0 1
C          0.00000        0.00000        0.00000
C          1.38508        0.00000        0.00000
N         -0.72771       -1.11322        0.00000
C          2.04720       -1.21160       -0.00386
C         -0.08136       -2.27149       -0.00595
C          1.30925       -2.38901       -0.00649
C          1.96927       -3.70493        0.02329
C          3.04486       -3.95576        0.82999
C          1.55200       -4.80802       -0.77739
N          3.72631       -5.12438        0.91627
N          0.54624       -4.84522       -1.65350
C          2.26335       -6.04410       -0.69858
C          3.37925       -6.16090        0.19241
S          0.53898       -6.32692       -2.28381
N          1.78433       -6.98642       -1.50573
C          4.16725       -7.35995        0.35676
S          3.72176       -8.94425       -0.17926
C          5.39950       -7.41625        0.96635
C          5.17359       -9.65481        0.41156
S          6.41742       -6.22951        1.70847
C          5.98269       -8.70817        1.00463
C          5.45076      -11.06801        0.26247
C          7.60261       -7.46977        2.05873
C          7.26763       -8.70629        1.64969
N          6.54623      -11.62936        0.68703
S          4.34478      -12.17371       -0.50554
C          6.55248      -12.96460        0.41270
C          5.45794      -13.44715       -0.22455
H         -0.55134        0.93273        0.00000
H          1.92494        0.93597       -0.01293
H          3.12873       -1.25416       -0.02668
H         -0.69553       -3.16348       -0.00579
H          3.41622       -3.17720        1.48423
H          8.51413       -7.18776        2.56252
H          7.86803       -9.59177        1.77140
H          7.40092      -13.56487        0.70381
H          5.25201      -14.45593       -0.53665
$end

$opt
CONSTRAINT
tors 4 6 7 8 42.24575
tors 10 13 16 17 165.00000
tors 17 19 22 25 179.21698
ENDCONSTRAINT
$end
--------------------------------------------------------------

   16   -2595.9051682562      4.75E-09 Convergence criterion met
 Total energy in the final basis set = -2595.9051682562
   12   -2595.9055563293      6.47E-09 Convergence criterion met
 Total energy in the final basis set = -2595.9055563293
   12   -2595.9056736708      3.88E-09 Convergence criterion met
 Total energy in the final basis set = -2595.9056736708
   12   -2595.9057163358      3.60E-09 Convergence criterion met
 Total energy in the final basis set = -2595.9057163358
   11   -2595.9057273963      6.13E-09 Convergence criterion met
 Total energy in the final basis set = -2595.9057273963
    9   -2595.9057293292      5.19E-09 Convergence criterion met
 Total energy in the final basis set = -2595.9057293292

             Standard Nuclear Orientation (Angstroms)
    I     Atom           X                Y                Z
 ----------------------------------------------------------------
    1      C       7.6016188103     0.3594880593    -0.3445345071
    2      C       6.9623513512     1.3497313388     0.3827198201
    3      N       6.9566959125    -0.6356554530    -0.9460986316
    4      C       5.5849481306     1.3032137573     0.4914545927
    5      C       5.6357731999    -0.6695405450    -0.8369595820
    6      C       4.8871481145     0.2770058542    -0.1359268242
    7      C       3.4173877913     0.2078949713    -0.0714480256
    8      C       2.6343094108     1.3210401683    -0.2141893914
    9      C       2.6995677524    -1.0047893381     0.1401241106
   10      N       1.2798847997     1.3627042585    -0.1618910757
   11      N       3.2002385166    -2.2290246917     0.3138777708
   12      C       1.2731960828    -0.9748690625     0.2037584793
   13      C       0.5844646080     0.2728637111     0.0490942348
   14      S       1.9426124003    -3.2131138067     0.5263848050
   15      N       0.7244464974    -2.1674971389     0.4189971344
   16      C      -0.8549381781     0.4061433860     0.0895552937
   17      S      -1.9740334769    -0.9080510945    -0.0162131924
   18      C      -1.5475678152     1.5943005174     0.0988686822
   19      C      -3.3436749076     0.1318530607    -0.0123281238
   20      S      -1.0701841284     3.2570822451     0.1459237564
   21      C      -2.9590819763     1.4546815411     0.0616054668
   22      C      -4.6977489039    -0.3774337119    -0.0748894126
   23      C      -2.7532447757     3.7391709644     0.1557489621
   24      C      -3.6323394857     2.7228158758     0.1022357212
   25      N      -5.7506712415     0.3887998829    -0.0584357844
   26      S      -5.0658606531    -2.0751126482    -0.1833967384
   27      C      -6.8956587926    -0.3466680385    -0.1330125121
   28      C      -6.7359148792    -1.6906100723    -0.2076146458
   29      H       8.6806026836     0.3616767376    -0.4473853990
   30      H       7.5324357316     2.1324002119     0.8623161815
   31      H       5.0522301124     2.0451978587     1.0715936859
   32      H       5.1369537096    -1.4919882182    -1.3341262981
   33      H       3.1038128570     2.2784206521    -0.4053080611
   34      H      -2.9877475155     4.7912238293     0.1901819705
   35      H      -4.7040006599     2.8292727639     0.0877349505
   36      H      -7.8480472863     0.1608178727    -0.1302381968
   37      H      -7.4897152848    -2.4546082334    -0.2797688692
 ----------------------------------------------------------------

    8   -2595.9057295504      6.52E-09 Convergence criterion met
 Total energy in the final basis set = -2595.9057295504
 Final energy is   -2595.90572955040
 **  OPTIMIZATION CONVERGED  **

                    Orbital Energies (a.u.)
 --------------------------------------------------------------

 Alpha MOs
 -- Occupied --
-89.156 -89.094 -89.093 -89.075 -14.495 -14.489 -14.453 -14.445
-14.436 -10.375 -10.370 -10.363 -10.361 -10.345 -10.341 -10.340
-10.334 -10.329 -10.327 -10.327 -10.327 -10.326 -10.323 -10.319
-10.315 -10.314 -10.303 -10.296  -8.166  -8.109  -8.108  -8.089
 -6.116  -6.111  -6.110  -6.058  -6.057  -6.054  -6.054  -6.052
 -6.051  -6.039  -6.035  -6.032  -1.153  -1.084  -1.073  -1.055
 -1.024  -1.016  -0.957  -0.946  -0.912  -0.911  -0.907  -0.884
 -0.862  -0.845  -0.829  -0.807  -0.776  -0.753  -0.745  -0.728
 -0.724  -0.695  -0.689  -0.679  -0.648  -0.641  -0.623  -0.621
 -0.609  -0.596  -0.584  -0.578  -0.570  -0.567  -0.541  -0.536
 -0.527  -0.523  -0.518  -0.514  -0.512  -0.503  -0.497  -0.492
 -0.489  -0.481  -0.477  -0.463  -0.458  -0.449  -0.437  -0.433
 -0.430  -0.423  -0.403  -0.397  -0.383  -0.373  -0.371  -0.370
 -0.364  -0.358  -0.343  -0.337  -0.327  -0.319  -0.268

          Ground-State Mulliken Net Atomic Charges

     Atom                 Charge (a.u.)
  ----------------------------------------
      1 C                    -0.072269
      2 C                    -0.102922
      3 N                    -0.155081
      4 C                    -0.157939
      5 C                    -0.095105
      6 C                     0.109970
      7 C                     0.033596
      8 C                    -0.095630
      9 C                     0.023138
     10 N                    -0.180981
     11 N                    -0.277158
     12 C                     0.025078
     13 C                     0.107690
     14 S                     0.413639
     15 N                    -0.281933
     16 C                    -0.052173
     17 S                     0.131259
     18 C                    -0.012654
     19 C                    -0.024584
     20 S                     0.088808
     21 C                     0.026732
     22 C                     0.037659
     23 C                    -0.161973
     24 C                    -0.161171
     25 N                    -0.183627
     26 S                     0.100740
     27 C                    -0.075142
     28 C                    -0.202739
     29 H                     0.124268
     30 H                     0.129267
     31 H                     0.131698
     32 H                     0.127986
     33 H                     0.133092
     34 H                     0.131446
     35 H                     0.142671
     36 H                     0.129094
     37 H                     0.145251
  ----------------------------------------
  Sum of atomic charges =     0.000000

                    Cartesian Multipole Moments
 -----------------------------------------------------------------
    Charge (ESU x 10^10)
                 0.0000
    Dipole Moment (Debye)
         X      -1.7979      Y       0.2482      Z       1.0463
       Tot       2.0950
    Quadrupole Moments (Debye-Ang)
        XX    -168.7607     XY      17.7416     YY    -170.8981
        XZ       9.1526     YZ       1.5572     ZZ    -189.5344

 Total job time:  6213.24s(wall), 93990.08s(cpu)
        *  Thank you very much for using Q-Chem.  Have a nice day.  *
