 Q-Chem 4.4, Q-Chem, Inc., Pleasanton, CA (2016)
 Q-Chem 4.4.2 for Intel X86 Linux

User input:
--------------------------------------------------------------
$comment
OPTIMIZATION
$end

$rem
JOBTYPE OPT
EXCHANGE omegaB97X-D
BASIS cc-pVTZ
$end

$molecule
0 1
C          0.00000        0.00000        0.00000
C          1.38508        0.00000        0.00000
N         -0.72771       -1.11322        0.00000
C          2.04720       -1.21160       -0.00386
C         -0.08136       -2.27149       -0.00595
C          1.30925       -2.38901       -0.00649
C          1.96927       -3.70493        0.02329
C          3.04486       -3.95576        0.82999
C          1.55200       -4.80802       -0.77739
N          3.72631       -5.12438        0.91627
N          0.54624       -4.84522       -1.65350
C          2.26335       -6.04410       -0.69858
C          3.37925       -6.16090        0.19241
S          0.53898       -6.32692       -2.28381
N          1.78433       -6.98642       -1.50573
C          4.16725       -7.35995        0.35676
S          3.54271       -8.96537        0.52514
C          5.54191       -7.40022        0.40052
C          5.11082       -9.66338        0.65006
S          6.77380       -6.18950        0.29161
C          6.09133       -8.69698        0.56531
C          5.30413      -11.08914        0.81136
C          8.00050       -7.42639        0.46748
C          7.52852       -8.67847        0.60180
N          6.47844      -11.64548        0.89439
S          3.98119      -12.21857        0.91049
C          6.37300      -12.99726        1.03497
C          5.11344      -13.49679        1.06502
H         -0.55134        0.93273        0.00000
H          1.92494        0.93597       -0.01293
H          3.12873       -1.25416       -0.02668
H         -0.69553       -3.16348       -0.00579
H          3.41622       -3.17720        1.48423
H          9.03852       -7.13224        0.45332
H          8.12733       -9.56602        0.71596
H          7.26716      -13.59658        1.11380
H          4.79856      -14.52056        1.16595
$end

$opt
CONSTRAINT
tors 4 6 7 8 42.24575
tors 10 13 16 17 135.00000
tors 17 19 22 25 179.21698
ENDCONSTRAINT
$end
--------------------------------------------------------------

   16   -2595.8978030375      4.39E-09 Convergence criterion met
 Total energy in the final basis set = -2595.8978030375
   13   -2595.8990410808      3.86E-09 Convergence criterion met
 Total energy in the final basis set = -2595.8990410808
   12   -2595.8994032175      8.52E-09 Convergence criterion met
 Total energy in the final basis set = -2595.8994032175
   12   -2595.8995943349      9.28E-09 Convergence criterion met
 Total energy in the final basis set = -2595.8995943349
   12   -2595.8996943710      7.86E-09 Convergence criterion met
 Total energy in the final basis set = -2595.8996943710
   11   -2595.8997154418      6.77E-09 Convergence criterion met
 Total energy in the final basis set = -2595.8997154418
    9   -2595.8997186423      8.45E-09 Convergence criterion met
 Total energy in the final basis set = -2595.8997186423

             Standard Nuclear Orientation (Angstroms)
    I     Atom           X                Y                Z
 ----------------------------------------------------------------
    1      C       7.5532801288     0.2063189326    -0.8564388178
    2      C       6.9658689348     1.3667860383    -0.3808889430
    3      N       6.8711969099    -0.9067324780    -1.1089233412
    4      C       5.6016779492     1.3719075053    -0.1561859261
    5      C       5.5639805453    -0.8910598019    -0.8895813699
    6      C       4.8657325371     0.2216725574    -0.4184212606
    7      C       3.4056820117     0.1893275970    -0.2259335392
    8      C       2.6015736127     1.2268870818    -0.6114380465
    9      C       2.7227204378    -0.9104358520     0.3691263088
   10      N       1.2501495996     1.2877859271    -0.4826719889
   11      N       3.2515113522    -2.0401496992     0.8432795923
   12      C       1.3055666175    -0.8505018565     0.5272783577
   13      C       0.5942092835     0.3098133622     0.0823111100
   14      S       2.0238164931    -2.9098576276     1.4191733269
   15      N       0.7876147524    -1.9287115924     1.1140426783
   16      C      -0.8558941552     0.4230505220     0.1796150049
   17      S      -1.9300147801    -0.8728265462    -0.2006812528
   18      C      -1.5783645703     1.5762969472     0.3442931084
   19      C      -3.3318839615     0.1148800576    -0.0762939276
   20      S      -1.1537146635     3.2249887012     0.6804020343
   21      C      -2.9855096006     1.4127417232     0.2357343739
   22      C      -4.6677568121    -0.4094258774    -0.2694918843
   23      C      -2.8484448658     3.6544602942     0.7220202240
   24      C      -3.6944264341     2.6401515260     0.4692249834
   25      N      -5.7418088479     0.3190952141    -0.1649465546
   26      S      -4.9828932451    -2.0739476728    -0.6681268511
   27      C      -6.8626620737    -0.4206439724    -0.4006184039
   28      C      -6.6625178257    -1.7294739998    -0.6888317137
   29      H       8.6206471173     0.1647093596    -1.0398568760
   30      H       7.5677541177     2.2418204040    -0.1817923586
   31      H       5.1126153858     2.2532222845     0.2375951913
   32      H       5.0327392682    -1.8104218105    -1.1016480415
   33      H       3.0434099584     2.0896502135    -1.0945000544
   34      H      -3.1120377120     4.6800574924     0.9248987420
   35      H      -4.7679160840     2.7230020494     0.4386071041
   36      H      -7.8287420735     0.0576476091    -0.3493245400
   37      H      -7.3919964482    -2.4897402055    -0.9050408316
 ----------------------------------------------------------------

    9   -2595.8997194573      3.66E-09 Convergence criterion met
 Total energy in the final basis set = -2595.8997194573
 Final energy is   -2595.89971945726
 **  OPTIMIZATION CONVERGED  **

                    Orbital Energies (a.u.)
 --------------------------------------------------------------

 Alpha MOs
 -- Occupied --
-89.157 -89.094 -89.091 -89.075 -14.495 -14.490 -14.455 -14.443
-14.437 -10.374 -10.371 -10.364 -10.361 -10.343 -10.341 -10.341
-10.334 -10.330 -10.328 -10.328 -10.327 -10.326 -10.325 -10.320
-10.317 -10.314 -10.304 -10.296  -8.167  -8.109  -8.107  -8.089
 -6.117  -6.112  -6.111  -6.058  -6.056  -6.055  -6.052  -6.052
 -6.050  -6.039  -6.035  -6.031  -1.154  -1.082  -1.074  -1.056
 -1.024  -1.016  -0.957  -0.948  -0.912  -0.910  -0.907  -0.885
 -0.862  -0.845  -0.829  -0.807  -0.776  -0.754  -0.746  -0.730
 -0.724  -0.695  -0.688  -0.679  -0.648  -0.641  -0.625  -0.623
 -0.608  -0.599  -0.584  -0.579  -0.571  -0.567  -0.541  -0.534
 -0.527  -0.523  -0.518  -0.513  -0.511  -0.504  -0.498  -0.495
 -0.487  -0.481  -0.475  -0.465  -0.457  -0.446  -0.436  -0.434
 -0.429  -0.425  -0.407  -0.394  -0.384  -0.373  -0.371  -0.369
 -0.366  -0.359  -0.344  -0.336  -0.324  -0.321  -0.270

          Ground-State Mulliken Net Atomic Charges

     Atom                 Charge (a.u.)
  ----------------------------------------
      1 C                    -0.071617
      2 C                    -0.102957
      3 N                    -0.154959
      4 C                    -0.156484
      5 C                    -0.094310
      6 C                     0.107904
      7 C                     0.039049
      8 C                    -0.098087
      9 C                     0.033596
     10 N                    -0.162738
     11 N                    -0.279294
     12 C                     0.002760
     13 C                     0.066690
     14 S                     0.417955
     15 N                    -0.263769
     16 C                    -0.013373
     17 S                     0.132977
     18 C                    -0.037890
     19 C                    -0.034227
     20 S                     0.074088
     21 C                     0.042361
     22 C                     0.037125
     23 C                    -0.153122
     24 C                    -0.166224
     25 N                    -0.185253
     26 S                     0.098717
     27 C                    -0.076263
     28 C                    -0.201774
     29 H                     0.124536
     30 H                     0.130076
     31 H                     0.131686
     32 H                     0.129433
     33 H                     0.135138
     34 H                     0.131568
     35 H                     0.143951
     36 H                     0.129019
     37 H                     0.143714
  ----------------------------------------
  Sum of atomic charges =     0.000000

                    Cartesian Multipole Moments
 -----------------------------------------------------------------
    Charge (ESU x 10^10)
                 0.0000
    Dipole Moment (Debye)
         X      -1.2443      Y       0.5102      Z       0.6824
       Tot       1.5081
    Quadrupole Moments (Debye-Ang)
        XX    -167.6072     XY      19.0179     YY    -171.5573
        XZ       6.6978     YZ       1.3602     ZZ    -189.3484

 Total job time:  7217.91s(wall), 109119.30s(cpu)
        *  Thank you very much for using Q-Chem.  Have a nice day.  *
