 Q-Chem 4.4, Q-Chem, Inc., Pleasanton, CA (2016)
 Q-Chem 4.4.2 for Intel X86 Linux

User input:
--------------------------------------------------------------
$comment
OPTIMIZATION
$end

$rem
JOBTYPE OPT
EXCHANGE omegaB97X-D
BASIS cc-pVTZ
$end

$molecule
0 1
C          0.00000        0.00000        0.00000
C          1.38508        0.00000        0.00000
N         -0.72771       -1.11322        0.00000
C          2.04720       -1.21160       -0.00386
C         -0.08136       -2.27149       -0.00595
C          1.30925       -2.38901       -0.00649
C          1.96927       -3.70493        0.02329
C          3.04486       -3.95576        0.82999
C          1.55200       -4.80802       -0.77739
N          3.72631       -5.12438        0.91627
N          0.54624       -4.84522       -1.65350
C          2.26335       -6.04410       -0.69858
C          3.37925       -6.16090        0.19241
S          0.53898       -6.32692       -2.28381
N          1.78433       -6.98642       -1.50573
C          4.16725       -7.35995        0.35676
S          3.59390       -8.98145        0.16239
C          5.50151       -7.38685        0.69180
C          5.12923       -9.66813        0.52707
S          6.67275       -6.15595        1.02096
C          6.06094       -8.68598        0.79131
C          5.34760      -11.09939        0.52814
C          7.88819       -7.38795        1.28641
C          7.45513       -8.65279        1.14100
N          6.50112      -11.64537        0.78643
S          4.08593      -12.24972        0.18099
C          6.42898      -13.00463        0.71285
C          5.21558      -13.52087        0.39963
H         -0.55134        0.93273        0.00000
H          1.92494        0.93597       -0.01293
H          3.12873       -1.25416       -0.02668
H         -0.69553       -3.16348       -0.00579
H          3.41622       -3.17720        1.48423
H          8.89118       -7.08031        1.53857
H          8.05517       -9.53904        1.25878
H          7.31187      -13.59645        0.90036
H          4.93272      -14.55279        0.28755
$end

$opt
CONSTRAINT
tors 4 6 7 8 42.24575
tors 10 13 16 17 150.00000
tors 17 19 22 25 179.21698
ENDCONSTRAINT
$end
--------------------------------------------------------------

   16   -2595.9018470666      4.62E-09 Convergence criterion met
 Total energy in the final basis set = -2595.9018470666
   13   -2595.9027019139      3.35E-09 Convergence criterion met
 Total energy in the final basis set = -2595.9027019139
   12   -2595.9029956379      7.22E-09 Convergence criterion met
 Total energy in the final basis set = -2595.9029956379
   12   -2595.9031319997      6.84E-09 Convergence criterion met
 Total energy in the final basis set = -2595.9031319997
   12   -2595.9031715164      4.33E-09 Convergence criterion met
 Total energy in the final basis set = -2595.9031715164
   10   -2595.9031787838      4.53E-09 Convergence criterion met
 Total energy in the final basis set = -2595.9031787838

             Standard Nuclear Orientation (Angstroms)
    I     Atom           X                Y                Z
 ----------------------------------------------------------------
    1      C       7.5794870865     0.2952598448    -0.6222344291
    2      C       6.9738884154     1.3780582032    -0.0068793388
    3      N       6.9077364682    -0.7681491241    -1.0533261647
    4      C       5.6031803184     1.3547515142     0.1708252467
    5      C       5.5935397875    -0.7800115662    -0.8784682374
    6      C       4.8778164845     0.2559577314    -0.2762898791
    7      C       3.4125084812     0.2025284967    -0.1372011005
    8      C       2.6214386690     1.2883046939    -0.3968797399
    9      C       2.7078312649    -0.9682873723     0.2665080071
   10      N       1.2684661426     1.3392316370    -0.2990784323
   11      N       3.2189657429    -2.1589558352     0.5845915413
   12      C       1.2857455519    -0.9253826226     0.3843243160
   13      C       0.5886340055     0.2919593175     0.0914029644
   14      S       1.9734822774    -3.0994961514     0.9824547766
   15      N       0.7489674383    -2.0756840514     0.7850782096
   16      C      -0.8548920741     0.4166554392     0.1654147460
   17      S      -1.9534356529    -0.8942092513    -0.0801310364
   18      C      -1.5615070117     1.5923441720     0.2409492390
   19      C      -3.3373708570     0.1242354996    -0.0281525022
   20      S      -1.1088631322     3.2553672086     0.4176292190
   21      C      -2.9709283603     1.4400422912     0.1652170827
   22      C      -4.6824456329    -0.3927593138    -0.1705203525
   23      C      -2.7974115989     3.7124971352     0.4476204930
   24      C      -3.6612232906     2.6926851359     0.2976716127
   25      N      -5.7446017672     0.3589347120    -0.1194267423
   26      S      -5.0256700680    -2.0773603758    -0.4392298470
   27      C      -6.8778600930    -0.3784227947    -0.2934174890
   28      C      -6.6993361922    -1.7087818839    -0.4806889770
   29      H       8.6524724419     0.2772618715    -0.7740013949
   30      H       7.5658573436     2.2157889197     0.3328115848
   31      H       5.0988905404     2.1739964795     0.6664481166
   32      H       5.0732389339    -1.6576891056    -1.2406149702
   33      H       3.0783083716     2.2075771860    -0.7424680638
   34      H      -3.0453124515     4.7554999509     0.5632195576
   35      H      -4.7339575053     2.7867628870     0.2738815476
   36      H      -7.8360796304     0.1176650957    -0.2756819447
   37      H      -7.4411828731    -2.4711710002    -0.6403803215
 ----------------------------------------------------------------

    9   -2595.9031796631      3.47E-09 Convergence criterion met
 Total energy in the final basis set = -2595.9031796631
 Final energy is   -2595.90317966306
 **  OPTIMIZATION CONVERGED  **

                    Orbital Energies (a.u.)
 --------------------------------------------------------------

 Alpha MOs
 -- Occupied --
-89.157 -89.094 -89.092 -89.075 -14.495 -14.489 -14.453 -14.444
-14.437 -10.374 -10.370 -10.364 -10.361 -10.345 -10.341 -10.341
-10.334 -10.328 -10.328 -10.327 -10.327 -10.327 -10.324 -10.319
-10.316 -10.314 -10.303 -10.296  -8.167  -8.109  -8.108  -8.089
 -6.117  -6.111  -6.110  -6.058  -6.057  -6.055  -6.053  -6.052
 -6.051  -6.039  -6.035  -6.031  -1.154  -1.083  -1.074  -1.055
 -1.024  -1.016  -0.957  -0.947  -0.912  -0.911  -0.907  -0.884
 -0.862  -0.845  -0.829  -0.807  -0.776  -0.753  -0.745  -0.729
 -0.724  -0.695  -0.689  -0.679  -0.648  -0.641  -0.624  -0.622
 -0.609  -0.597  -0.584  -0.578  -0.571  -0.567  -0.541  -0.536
 -0.527  -0.523  -0.518  -0.514  -0.512  -0.503  -0.497  -0.493
 -0.488  -0.481  -0.476  -0.464  -0.458  -0.448  -0.436  -0.434
 -0.429  -0.424  -0.405  -0.396  -0.383  -0.373  -0.371  -0.369
 -0.366  -0.358  -0.343  -0.336  -0.325  -0.320  -0.269

          Ground-State Mulliken Net Atomic Charges

     Atom                 Charge (a.u.)
  ----------------------------------------
      1 C                    -0.072930
      2 C                    -0.102229
      3 N                    -0.154850
      4 C                    -0.157993
      5 C                    -0.094904
      6 C                     0.108847
      7 C                     0.035504
      8 C                    -0.095537
      9 C                     0.029494
     10 N                    -0.174979
     11 N                    -0.278367
     12 C                     0.016155
     13 C                     0.086692
     14 S                     0.415775
     15 N                    -0.274515
     16 C                    -0.032533
     17 S                     0.131798
     18 C                    -0.025840
     19 C                    -0.030202
     20 S                     0.082678
     21 C                     0.037124
     22 C                     0.037358
     23 C                    -0.158537
     24 C                    -0.163684
     25 N                    -0.184302
     26 S                     0.100157
     27 C                    -0.075600
     28 C                    -0.201815
     29 H                     0.124426
     30 H                     0.129828
     31 H                     0.131702
     32 H                     0.128808
     33 H                     0.134224
     34 H                     0.131454
     35 H                     0.143513
     36 H                     0.129083
     37 H                     0.144200
  ----------------------------------------
  Sum of atomic charges =     0.000000

                    Cartesian Multipole Moments
 -----------------------------------------------------------------
    Charge (ESU x 10^10)
                 0.0000
    Dipole Moment (Debye)
         X      -1.5704      Y       0.3850      Z       0.8350
       Tot       1.8198
    Quadrupole Moments (Debye-Ang)
        XX    -168.0067     XY      18.5565     YY    -170.9955
        XZ       8.3219     YZ       1.4857     ZZ    -189.7684

 Total job time:  6455.68s(wall), 97641.33s(cpu)
        *  Thank you very much for using Q-Chem.  Have a nice day.  *
