 Q-Chem 4.4, Q-Chem, Inc., Pleasanton, CA (2016)
 Q-Chem 4.4.2 for Intel X86 Linux

User input:
--------------------------------------------------------------
$comment
OPTIMIZATION
$end

$rem
JOBTYPE OPT
EXCHANGE omegaB97X-D
BASIS cc-pVTZ
$end

$molecule
0 1
C          0.00000        0.00000        0.00000
C          1.38508        0.00000        0.00000
N         -0.72771       -1.11322        0.00000
C          2.04720       -1.21160       -0.00386
C         -0.08136       -2.27149       -0.00595
C          1.30925       -2.38901       -0.00649
C          1.96927       -3.70493        0.02329
C          3.04486       -3.95576        0.82999
C          1.55200       -4.80802       -0.77739
N          3.72631       -5.12438        0.91627
N          0.54624       -4.84522       -1.65350
C          2.26335       -6.04410       -0.69858
C          3.37925       -6.16090        0.19241
S          0.53898       -6.32692       -2.28381
N          1.78433       -6.98642       -1.50573
C          4.16725       -7.35995        0.35676
S          5.34439       -7.95781       -0.76248
C          4.09777       -8.20698        1.43885
C          5.72554       -9.31831        0.22013
S          3.15808       -8.20927        2.89221
C          4.97427       -9.31987        1.37690
C          6.72362      -10.29105       -0.17204
C          3.94489       -9.69047        3.39480
C          4.86026      -10.16737        2.53272
N          7.04181      -11.32138        0.55775
S          7.61104      -10.18645       -1.66775
C          8.01126      -12.06831       -0.04262
C          8.44841      -11.62174       -1.24529
H         -0.55134        0.93273        0.00000
H          1.92494        0.93597       -0.01293
H          3.12873       -1.25416       -0.02668
H         -0.69553       -3.16348       -0.00579
H          3.41622       -3.17720        1.48423
H          3.66943      -10.12776        4.34195
H          5.44742      -11.05933        2.67058
H          8.38048      -12.95626        0.44744
H          9.19865      -12.04748       -1.88821
$end

$opt
CONSTRAINT
tors 4 6 7 8 42.24575
tors 10 13 16 17 -105.00000
tors 17 19 22 25 179.21698
ENDCONSTRAINT
$end
--------------------------------------------------------------

   16   -2595.8916149139      5.47E-09 Convergence criterion met
 Total energy in the final basis set = -2595.8916149139
   13   -2595.8934572102      4.14E-09 Convergence criterion met
 Total energy in the final basis set = -2595.8934572102
   12   -2595.8937031309      6.65E-09 Convergence criterion met
 Total energy in the final basis set = -2595.8937031309
   11   -2595.8937430066      7.22E-09 Convergence criterion met
 Total energy in the final basis set = -2595.8937430066
   11   -2595.8937609426      5.66E-09 Convergence criterion met
 Total energy in the final basis set = -2595.8937609426
   11   -2595.8937758855      7.99E-09 Convergence criterion met
 Total energy in the final basis set = -2595.8937758855
   11   -2595.8937813557      4.95E-09 Convergence criterion met
 Total energy in the final basis set = -2595.8937813557

             Standard Nuclear Orientation (Angstroms)
    I     Atom           X                Y                Z
 ----------------------------------------------------------------
    1      C      -7.5475733025    -0.0929040241    -1.0557554680
    2      C      -6.7321333257    -0.2414254765    -2.1654307757
    3      N      -7.0793028745     0.0800755026     0.1764509131
    4      C      -5.3619023335    -0.2112080387    -1.9859064520
    5      C      -5.7637503461     0.1087415573     0.3373965521
    6      C      -4.8483221079    -0.0258628452    -0.7071011473
    7      C      -3.3954212245     0.0428217734    -0.4722847756
    8      C      -2.5625915561     0.7408757608    -1.3032074150
    9      C      -2.7531348228    -0.6022356029     0.6235517416
   10      N      -1.2093247772     0.8421054999    -1.1859706946
   11      N      -3.3141069750    -1.3489179679     1.5779546998
   12      C      -1.3383497064    -0.4881090346     0.7648346420
   13      C      -0.5955339026     0.2695778353    -0.1908444984
   14      S      -2.1134280673    -1.8267561671     2.5386568668
   15      N      -0.8511837254    -1.1398961972     1.8220766558
   16      C       0.8683997011     0.4002410442    -0.0863303093
   17      S       1.9293906865    -0.8965432741    -0.4776739161
   18      C       1.5964958048     1.5114429283     0.2156848841
   19      C       3.3479977577     0.0450942728    -0.2088740796
   20      S       1.1833122567     3.1389830694     0.6745153611
   21      C       3.0074349011     1.3257859114     0.1632050014
   22      C       4.6820923512    -0.4935892006    -0.3708281413
   23      C       2.8831893433     3.5337352402     0.7991213741
   24      C       3.7217825249     2.5233496576     0.5103311691
   25      N       5.7622973910     0.2090014757    -0.1858501786
   26      S       4.9867140004    -2.1438949810    -0.8327835044
   27      C       6.8802520765    -0.5402730627    -0.4083199889
   28      C       6.6720249765    -1.8299297785    -0.7665221298
   29      H      -8.6262315830    -0.1173668006    -1.1588753993
   30      H      -7.1635919598    -0.3855972567    -3.1456226812
   31      H      -4.6926398643    -0.3483168675    -2.8250906293
   32      H      -5.4095754183     0.2513860126     1.3505869353
   33      H      -2.9803354904     1.2777371868    -2.1456778408
   34      H       3.1553035765     4.5367309658     1.0857861552
   35      H       4.7967402748     2.5899557634     0.5315029607
   36      H       7.8511601224    -0.0826027414    -0.2949219476
   37      H       7.3978275403    -2.5921574435    -0.9878625497
 ----------------------------------------------------------------

   10   -2595.8937838011      6.67E-09 Convergence criterion met
 Total energy in the final basis set = -2595.8937838011
 Final energy is   -2595.89378380108
 **  OPTIMIZATION CONVERGED  **

                    Orbital Energies (a.u.)
 --------------------------------------------------------------

 Alpha MOs
 -- Occupied --
-89.159 -89.093 -89.089 -89.075 -14.496 -14.491 -14.460 -14.440
-14.440 -10.372 -10.371 -10.366 -10.362 -10.343 -10.341 -10.339
-10.335 -10.333 -10.331 -10.330 -10.326 -10.325 -10.324 -10.323
-10.319 -10.313 -10.306 -10.296  -8.169  -8.108  -8.104  -8.090
 -6.119  -6.114  -6.113  -6.057  -6.053  -6.053  -6.051  -6.050
 -6.047  -6.039  -6.036  -6.031  -1.155  -1.080  -1.077  -1.059
 -1.024  -1.017  -0.957  -0.950  -0.914  -0.909  -0.906  -0.886
 -0.863  -0.845  -0.828  -0.807  -0.776  -0.756  -0.747  -0.732
 -0.723  -0.696  -0.687  -0.679  -0.648  -0.642  -0.626  -0.626
 -0.609  -0.601  -0.587  -0.578  -0.571  -0.569  -0.542  -0.531
 -0.528  -0.522  -0.519  -0.513  -0.510  -0.506  -0.501  -0.499
 -0.485  -0.483  -0.475  -0.466  -0.455  -0.442  -0.435  -0.434
 -0.432  -0.424  -0.409  -0.389  -0.387  -0.374  -0.370  -0.368
 -0.366  -0.363  -0.346  -0.336  -0.323  -0.323  -0.272

          Ground-State Mulliken Net Atomic Charges

     Atom                 Charge (a.u.)
  ----------------------------------------
      1 C                    -0.068722
      2 C                    -0.103072
      3 N                    -0.154645
      4 C                    -0.155732
      5 C                    -0.094790
      6 C                     0.108660
      7 C                     0.043857
      8 C                    -0.106488
      9 C                     0.032476
     10 N                    -0.133003
     11 N                    -0.280247
     12 C                     0.014560
     13 C                    -0.017003
     14 S                     0.422115
     15 N                    -0.245677
     16 C                     0.018463
     17 S                     0.133384
     18 C                    -0.027591
     19 C                    -0.037339
     20 S                     0.059486
     21 C                     0.038584
     22 C                     0.037789
     23 C                    -0.148454
     24 C                    -0.167425
     25 N                    -0.187633
     26 S                     0.094393
     27 C                    -0.077590
     28 C                    -0.203429
     29 H                     0.124887
     30 H                     0.130742
     31 H                     0.132988
     32 H                     0.131580
     33 H                     0.136039
     34 H                     0.132456
     35 H                     0.144622
     36 H                     0.128727
     37 H                     0.143032
  ----------------------------------------
  Sum of atomic charges =     0.000000

                    Cartesian Multipole Moments
 -----------------------------------------------------------------
    Charge (ESU x 10^10)
                 0.0000
    Dipole Moment (Debye)
         X       0.8313      Y      -1.2879      Z      -1.2249
       Tot       1.9622
    Quadrupole Moments (Debye-Ang)
        XX    -172.6379     XY      -2.6429     YY    -176.8826
        XZ      12.4718     YZ       3.5093     ZZ    -179.8342

 Total job time:  7098.03s(wall), 106891.93s(cpu)
        *  Thank you very much for using Q-Chem.  Have a nice day.  *
