 Q-Chem 4.4, Q-Chem, Inc., Pleasanton, CA (2016)
 Q-Chem 4.4.2 for Intel X86 Linux

User input:
--------------------------------------------------------------
$comment
OPTIMIZATION
$end

$rem
JOBTYPE OPT
EXCHANGE omegaB97X-D
BASIS cc-pVTZ
$end

$molecule
0 1
C          0.00000        0.00000        0.00000
C          1.38508        0.00000        0.00000
N         -0.72771       -1.11322        0.00000
C          2.04720       -1.21160       -0.00386
C         -0.08136       -2.27149       -0.00595
C          1.30925       -2.38901       -0.00649
C          1.96927       -3.70493        0.02329
C          3.04486       -3.95576        0.82999
C          1.55200       -4.80802       -0.77739
N          3.72631       -5.12438        0.91627
N          0.54624       -4.84522       -1.65350
C          2.26335       -6.04410       -0.69858
C          3.37925       -6.16090        0.19241
S          0.53898       -6.32692       -2.28381
N          1.78433       -6.98642       -1.50573
C          4.16725       -7.35995        0.35676
S          4.09373       -8.44136        1.70617
C          5.09719       -7.82221       -0.54587
C          5.29423       -9.48755        1.05343
S          5.65991       -7.24632       -2.07786
C          5.74322       -9.02605       -0.16637
C          5.72309      -10.68608        1.74321
C          6.74604       -8.61504       -2.18981
C          6.70076       -9.46207       -1.14627
N          6.61852      -11.50242        1.26654
S          5.08356      -11.16787        3.29063
C          6.82851      -12.55015        2.11291
C          6.09769      -12.54987        3.25433
H         -0.55134        0.93273        0.00000
H          1.92494        0.93597       -0.01293
H          3.12873       -1.25416       -0.02668
H         -0.69553       -3.16348       -0.00579
H          3.41622       -3.17720        1.48423
H          7.37132       -8.71002       -3.06401
H          7.28849      -10.35786       -1.03909
H          7.54451      -13.31351        1.84919
H          6.10008      -13.26933        4.05421
$end

$opt
CONSTRAINT
tors 4 6 7 8 42.24575
tors 10 13 16 17 75.00000
tors 17 19 22 25 179.21698
ENDCONSTRAINT
$end
--------------------------------------------------------------

   16   -2595.8917631578      5.21E-09 Convergence criterion met
 Total energy in the final basis set = -2595.8917631578
   13   -2595.8940505712      4.08E-09 Convergence criterion met
 Total energy in the final basis set = -2595.8940505712
   12   -2595.8944209091      7.94E-09 Convergence criterion met
 Total energy in the final basis set = -2595.8944209091
   11   -2595.8944950029      8.51E-09 Convergence criterion met
 Total energy in the final basis set = -2595.8944950029
   11   -2595.8945376660      7.66E-09 Convergence criterion met
 Total energy in the final basis set = -2595.8945376660
   11   -2595.8945610636      8.69E-09 Convergence criterion met
 Total energy in the final basis set = -2595.8945610636
   10   -2595.8945656400      6.32E-09 Convergence criterion met
 Total energy in the final basis set = -2595.8945656400

             Standard Nuclear Orientation (Angstroms)
    I     Atom           X                Y                Z
 ----------------------------------------------------------------
    1      C      -7.5049346624     1.1918564903    -0.5572204988
    2      C      -6.8507385816     0.8928534036    -1.7408698735
    3      N      -6.8912575666     1.2563304278     0.6204462378
    4      C      -5.4907734953     0.6486676694    -1.6994923991
    5      C      -5.5870847199     1.0202260579     0.6491222388
    6      C      -4.8260084192     0.7164839107    -0.4803746822
    7      C      -3.3710920762     0.5006205806    -0.3937635732
    8      C      -2.5074644285     1.0347708527    -1.3102611987
    9      C      -2.7575627602    -0.2669843280     0.6378185359
   10      N      -1.1552253532     0.8721014213    -1.3319999370
   11      N      -3.3527701461    -0.9005892225     1.6514501246
   12      C      -1.3402055114    -0.4261124215     0.6366073009
   13      C      -0.5659742851     0.1809763240    -0.3994829153
   14      S      -2.1746130445    -1.6054797474     2.4937745394
   15      N      -0.8827152526    -1.1652563939     1.6482132185
   16      C       0.8916834498    -0.0190290510    -0.4491962473
   17      S       1.9816813755     1.2469032905    -0.0417248303
   18      C       1.5889229685    -1.1680867240    -0.6764986012
   19      C       3.3734168075     0.2444585723    -0.2075730201
   20      S       1.1369436094    -2.7933849566    -1.1053869808
   21      C       3.0015281729    -1.0338105301    -0.5589781691
   22      C       4.7183358177     0.7371447730     0.0042855080
   23      C       2.8239089207    -3.2579396685    -1.1241103314
   24      C       3.6850955900    -2.2688806438    -0.8288928617
   25      N       5.7782057146    -0.0112175732    -0.1028047963
   26      S       5.0634281068     2.3887948681     0.4311121342
   27      C       6.9120690112     0.7028018719     0.1531981263
   28      C       6.7363163786     2.0104250683     0.4600760328
   29      H      -8.5713240891     1.3852900097    -0.5519211729
   30      H      -7.3976403705     0.8462029633    -2.6715349897
   31      H      -4.9490008372     0.3898415420    -2.5997866207
   32      H      -5.1109321231     1.0774228127     1.6199049797
   33      H      -2.8953868091     1.6548812470    -2.1087279383
   34      H       3.0696891400    -4.2800188857    -1.3631672730
   35      H       4.7565353612    -2.3751551122    -0.7923842437
   36      H       7.8688211994     0.2059793930     0.1027412761
   37      H       7.4784909325     2.7531664864     0.6931068601
 ----------------------------------------------------------------

    9   -2595.8945669030      6.54E-09 Convergence criterion met
 Total energy in the final basis set = -2595.8945669030
 Final energy is   -2595.89456690296
 **  OPTIMIZATION CONVERGED  **

                    Orbital Energies (a.u.)
 --------------------------------------------------------------

 Alpha MOs
 -- Occupied --
-89.159 -89.093 -89.089 -89.076 -14.495 -14.491 -14.460 -14.441
-14.439 -10.372 -10.371 -10.366 -10.361 -10.343 -10.341 -10.339
-10.335 -10.333 -10.331 -10.330 -10.327 -10.325 -10.324 -10.322
-10.319 -10.313 -10.306 -10.297  -8.169  -8.108  -8.104  -8.091
 -6.119  -6.113  -6.113  -6.057  -6.054  -6.053  -6.051  -6.050
 -6.047  -6.041  -6.037  -6.033  -1.155  -1.080  -1.076  -1.058
 -1.024  -1.017  -0.958  -0.949  -0.914  -0.909  -0.906  -0.886
 -0.863  -0.845  -0.829  -0.807  -0.776  -0.756  -0.747  -0.733
 -0.721  -0.696  -0.687  -0.679  -0.648  -0.641  -0.627  -0.624
 -0.610  -0.602  -0.584  -0.580  -0.572  -0.567  -0.542  -0.531
 -0.528  -0.524  -0.519  -0.514  -0.510  -0.506  -0.501  -0.499
 -0.485  -0.482  -0.474  -0.467  -0.455  -0.443  -0.435  -0.434
 -0.432  -0.424  -0.410  -0.390  -0.386  -0.374  -0.369  -0.368
 -0.366  -0.362  -0.346  -0.336  -0.324  -0.322  -0.273

          Ground-State Mulliken Net Atomic Charges

     Atom                 Charge (a.u.)
  ----------------------------------------
      1 C                    -0.069807
      2 C                    -0.101782
      3 N                    -0.154690
      4 C                    -0.156810
      5 C                    -0.093042
      6 C                     0.109400
      7 C                     0.046124
      8 C                    -0.107207
      9 C                     0.031868
     10 N                    -0.141412
     11 N                    -0.281253
     12 C                     0.006227
     13 C                    -0.024684
     14 S                     0.423605
     15 N                    -0.238923
     16 C                     0.040911
     17 S                     0.130177
     18 C                    -0.026816
     19 C                    -0.039889
     20 S                     0.054888
     21 C                     0.036861
     22 C                     0.039065
     23 C                    -0.147841
     24 C                    -0.165380
     25 N                    -0.188221
     26 S                     0.095534
     27 C                    -0.077322
     28 C                    -0.203150
     29 H                     0.125177
     30 H                     0.129780
     31 H                     0.134143
     32 H                     0.129561
     33 H                     0.136435
     34 H                     0.132400
     35 H                     0.144646
     36 H                     0.128276
     37 H                     0.143154
  ----------------------------------------
  Sum of atomic charges =     0.000000

                    Cartesian Multipole Moments
 -----------------------------------------------------------------
    Charge (ESU x 10^10)
                 0.0000
    Dipole Moment (Debye)
         X       0.6799      Y      -0.3213      Z      -0.7527
       Tot       1.0639
    Quadrupole Moments (Debye-Ang)
        XX    -168.7602     XY       6.0273     YY    -176.9383
        XZ      16.6979     YZ       0.4574     ZZ    -182.5544

 Total job time:  7091.88s(wall), 107086.04s(cpu)
        *  Thank you very much for using Q-Chem.  Have a nice day.  *
