 Q-Chem 4.4, Q-Chem, Inc., Pleasanton, CA (2016)
 Q-Chem 4.4.2 for Intel X86 Linux

User input:
--------------------------------------------------------------
$comment
OPTIMIZATION
$end

$rem
JOBTYPE OPT
EXCHANGE omegaB97X-D
BASIS cc-pVTZ
$end

$molecule
0 1
C          0.00000        0.00000        0.00000
C          1.38508        0.00000        0.00000
N         -0.72771       -1.11322        0.00000
C          2.04720       -1.21160       -0.00386
C         -0.08136       -2.27149       -0.00595
C          1.30925       -2.38901       -0.00649
C          1.96927       -3.70493        0.02329
C          3.04486       -3.95576        0.82999
C          1.55200       -4.80802       -0.77739
N          3.72631       -5.12438        0.91627
N          0.54624       -4.84522       -1.65350
C          2.26335       -6.04410       -0.69858
C          3.37925       -6.16090        0.19241
S          0.53898       -6.32692       -2.28381
N          1.78433       -6.98642       -1.50573
C          4.16725       -7.35995        0.35676
S          5.27008       -7.67558        1.65288
C          4.15276       -8.43658       -0.49991
C          5.69330       -9.22710        1.04016
S          3.29511       -8.78461       -1.96229
C          5.01064       -9.50202       -0.12642
C          6.64231      -10.08550        1.71744
C          4.09101      -10.34140       -2.05480
C          4.95275      -10.59831       -1.05484
N          6.97023      -11.26883        1.28430
S          7.44966       -9.62646        3.19157
C          7.87540      -11.86213        2.11308
C          8.25730      -11.13888        3.19382
H         -0.55134        0.93273        0.00000
H          1.92494        0.93597       -0.01293
H          3.12873       -1.25416       -0.02668
H         -0.69553       -3.16348       -0.00579
H          3.41622       -3.17720        1.48423
H          3.85317      -10.99667       -2.87836
H          5.52912      -11.50043       -0.93929
H          8.23985      -12.85181        1.88369
H          8.95088      -11.40717        3.97126
$end

$opt
CONSTRAINT
tors 4 6 7 8 42.24575
tors 10 13 16 17 15.00000
tors 17 19 22 25 179.21698
ENDCONSTRAINT
$end
--------------------------------------------------------------

   16   -2595.8821718153      8.00E-09 Convergence criterion met
 Total energy in the final basis set = -2595.8821718153
   15   -2595.8981301916      5.30E-09 Convergence criterion met
 Total energy in the final basis set = -2595.8981301916
   13   -2595.9016815765      3.60E-09 Convergence criterion met
 Total energy in the final basis set = -2595.9016815765
   13   -2595.9025599607      4.52E-09 Convergence criterion met
 Total energy in the final basis set = -2595.9025599607
   11   -2595.9026320078      4.41E-09 Convergence criterion met
 Total energy in the final basis set = -2595.9026320078
   10   -2595.9026489085      7.46E-09 Convergence criterion met
 Total energy in the final basis set = -2595.9026489085
    9   -2595.9026523154      7.65E-09 Convergence criterion met
 Total energy in the final basis set = -2595.9026523154
    9   -2595.9026547348      8.19E-09 Convergence criterion met
 Total energy in the final basis set = -2595.9026547348

             Standard Nuclear Orientation (Angstroms)
    I     Atom           X                Y                Z
 ----------------------------------------------------------------
    1      C      -7.3163784542     1.9865664298     0.0222545841
    2      C      -6.4722639625     2.5187722424    -0.9379492940
    3      N      -6.9273914367     1.0777310678     0.9115064016
    4      C      -5.1600320108     2.0859220543    -0.9760487278
    5      C      -5.6665471368     0.6697597803     0.8665216533
    6      C      -4.7271559795     1.1414999730    -0.0517909419
    7      C      -3.3287248125     0.6803132948    -0.0342479411
    8      C      -2.2787654314     1.5444424334    -0.1874748679
    9      C      -2.9553614784    -0.6814087003     0.1457016642
   10      N      -0.9661972210     1.2125830884    -0.2061525286
   11      N      -3.7641362371    -1.7272774974     0.3218816612
   12      C      -1.5711344334    -1.0428347868     0.1393463668
   13      C      -0.5762613263    -0.0286542274    -0.0478980435
   14      S      -2.8159876160    -3.0207505149     0.4717820595
   15      N      -1.3667125471    -2.3435904110     0.3219485397
   16      C       0.8553652497    -0.2739817214    -0.0712003911
   17      S       1.8570428764     1.1284342185     0.1005083733
   18      C       1.6461069500    -1.3967275041    -0.2066455720
   19      C       3.3106143795     0.2272170155    -0.0175680615
   20      S       1.3787177971    -3.1019402726    -0.4437563385
   21      C       3.0443695338    -1.1129634736    -0.1951456080
   22      C       4.6159868557     0.8500370550     0.0628531654
   23      C       3.0992305613    -3.3787131700    -0.5449454393
   24      C       3.8556207254    -2.2805201578    -0.3893755585
   25      N       5.7349057250     0.1875066386    -0.0090161725
   26      S       4.8273949747     2.5648930361     0.2701716560
   27      C       6.8080496852     1.0203485255     0.1004725122
   28      C       6.5257628110     2.3366745532     0.2585045448
   29      H      -8.3523400179     2.2998630451     0.0796897883
   30      H      -6.8377418869     3.2487580880    -1.6459050900
   31      H      -4.4769943132     2.4613918498    -1.7267767161
   32      H      -5.3789967519    -0.0699628706     1.6027548454
   33      H      -2.4745434771     2.6038145446    -0.3020994462
   34      H       3.4458548516    -4.3872436403    -0.7046379795
   35      H       4.9322145644    -2.2577567218    -0.4053698231
   36      H       7.8027288386     0.6035677242     0.0595763088
   37      H       7.2077686930     3.1610911844     0.3687629567
 ----------------------------------------------------------------

    9   -2595.9026556671      5.63E-09 Convergence criterion met
 Total energy in the final basis set = -2595.9026556671
 Final energy is   -2595.90265566706
 **  OPTIMIZATION CONVERGED  **

                    Orbital Energies (a.u.)
 --------------------------------------------------------------

 Alpha MOs
 -- Occupied --
-89.156 -89.092 -89.090 -89.076 -14.494 -14.488 -14.452 -14.444
-14.436 -10.374 -10.372 -10.363 -10.362 -10.343 -10.343 -10.341
-10.341 -10.328 -10.327 -10.327 -10.327 -10.326 -10.323 -10.319
-10.315 -10.314 -10.303 -10.295  -8.166  -8.108  -8.105  -8.090
 -6.116  -6.111  -6.110  -6.057  -6.054  -6.053  -6.051  -6.050
 -6.048  -6.040  -6.036  -6.032  -1.153  -1.083  -1.074  -1.055
 -1.023  -1.015  -0.958  -0.945  -0.912  -0.911  -0.906  -0.884
 -0.862  -0.845  -0.829  -0.807  -0.775  -0.753  -0.745  -0.731
 -0.720  -0.696  -0.689  -0.678  -0.650  -0.642  -0.624  -0.620
 -0.609  -0.602  -0.581  -0.576  -0.570  -0.566  -0.541  -0.536
 -0.527  -0.524  -0.517  -0.514  -0.511  -0.503  -0.497  -0.492
 -0.489  -0.481  -0.478  -0.463  -0.457  -0.448  -0.440  -0.435
 -0.427  -0.422  -0.400  -0.395  -0.383  -0.372  -0.371  -0.369
 -0.366  -0.358  -0.343  -0.337  -0.325  -0.322  -0.267

          Ground-State Mulliken Net Atomic Charges

     Atom                 Charge (a.u.)
  ----------------------------------------
      1 C                    -0.071303
      2 C                    -0.102674
      3 N                    -0.155528
      4 C                    -0.158496
      5 C                    -0.093821
      6 C                     0.109661
      7 C                     0.035817
      8 C                    -0.107399
      9 C                     0.027683
     10 N                    -0.176002
     11 N                    -0.278093
     12 C                     0.034426
     13 C                     0.072122
     14 S                     0.416043
     15 N                    -0.280788
     16 C                    -0.012687
     17 S                     0.124362
     18 C                    -0.035654
     19 C                    -0.017645
     20 S                     0.085977
     21 C                     0.037040
     22 C                     0.035061
     23 C                    -0.161735
     24 C                    -0.167126
     25 N                    -0.185254
     26 S                     0.104062
     27 C                    -0.076641
     28 C                    -0.201555
     29 H                     0.123811
     30 H                     0.128861
     31 H                     0.132100
     32 H                     0.127838
     33 H                     0.134988
     34 H                     0.132588
     35 H                     0.145511
     36 H                     0.129611
     37 H                     0.144838
  ----------------------------------------
  Sum of atomic charges =     0.000000

                    Cartesian Multipole Moments
 -----------------------------------------------------------------
    Charge (ESU x 10^10)
                 0.0000
    Dipole Moment (Debye)
         X       1.8088      Y       0.8650      Z      -1.2260
       Tot       2.3501
    Quadrupole Moments (Debye-Ang)
        XX    -174.9778     XY      -0.5348     YY    -166.9587
        XZ      10.8596     YZ      -2.9733     ZZ    -187.7290

 Total job time:  8247.40s(wall), 124798.36s(cpu)
        *  Thank you very much for using Q-Chem.  Have a nice day.  *
