 Q-Chem 4.4, Q-Chem, Inc., Pleasanton, CA (2016)
 Q-Chem 4.4.2 for Intel X86 Linux

User input:
--------------------------------------------------------------
$comment
OPTIMIZATION
$end

$rem
JOBTYPE OPT
EXCHANGE omegaB97X-D
BASIS cc-pVTZ
$end

$molecule
0 1
C          0.00000        0.00000        0.00000
C          1.38508        0.00000        0.00000
N         -0.72771       -1.11322        0.00000
C          2.04720       -1.21160       -0.00386
C         -0.08136       -2.27149       -0.00595
C          1.30925       -2.38901       -0.00649
C          1.96927       -3.70493        0.02329
C          3.04486       -3.95576        0.82999
C          1.55200       -4.80802       -0.77739
N          3.72631       -5.12438        0.91627
N          0.54624       -4.84522       -1.65350
C          2.26335       -6.04410       -0.69858
C          3.37925       -6.16090        0.19241
S          0.53898       -6.32692       -2.28381
N          1.78433       -6.98642       -1.50573
C          4.16725       -7.35995        0.35676
S          5.58120       -7.77332       -0.55190
C          3.90722       -8.35529        1.27048
C          5.80523       -9.25600        0.29262
S          2.68089       -8.58065        2.47073
C          4.82589       -9.43516        1.24724
C          6.90654      -10.14781       -0.00401
C          3.40842      -10.10773        2.92275
C          4.50672      -10.44223        2.22249
N          7.10809      -11.26818        0.62809
S          8.08627       -9.81583       -1.24241
C          8.21561      -11.90690        0.15520
C          8.87815      -11.28521       -0.85052
H         -0.55134        0.93273        0.00000
H          1.92494        0.93597       -0.01293
H          3.12873       -1.25416       -0.02668
H         -0.69553       -3.16348       -0.00579
H          3.41622       -3.17720        1.48423
H          2.95765      -10.68107        3.71793
H          5.09054      -11.33643        2.36003
H          8.51158      -12.85105        0.58636
H          9.76633      -11.60307       -1.36777
$end

$opt
CONSTRAINT
tors 4 6 7 8 42.24575
tors 10 13 16 17 -90.00000
tors 17 19 22 25 179.21698
ENDCONSTRAINT
$end
--------------------------------------------------------------

   16   -2595.8907102391      5.42E-09 Convergence criterion met
 Total energy in the final basis set = -2595.8907102391
   13   -2595.8927827897      4.07E-09 Convergence criterion met
 Total energy in the final basis set = -2595.8927827897
   12   -2595.8930483799      6.57E-09 Convergence criterion met
 Total energy in the final basis set = -2595.8930483799
   11   -2595.8930832805      4.54E-09 Convergence criterion met
 Total energy in the final basis set = -2595.8930832805
   10   -2595.8930934208      5.24E-09 Convergence criterion met
 Total energy in the final basis set = -2595.8930934208
   10   -2595.8930972035      5.89E-09 Convergence criterion met
 Total energy in the final basis set = -2595.8930972035
    9   -2595.8930988986      9.51E-09 Convergence criterion met
 Total energy in the final basis set = -2595.8930988986

             Standard Nuclear Orientation (Angstroms)
    I     Atom           X                Y                Z
 ----------------------------------------------------------------
    1      C       7.5382901381     0.7775545018    -0.8448837810
    2      C       6.7269493392     1.6588591304    -1.5400893972
    3      N       7.0655781117    -0.1926106940    -0.0684704665
    4      C       5.3561331152     1.5274986729    -1.4207949693
    5      C       5.7494309870    -0.3096628381     0.0394647773
    6      C       4.8380306514     0.5179577210    -0.6173926057
    7      C       3.3834450665     0.3248493373    -0.4823771243
    8      C       2.5421881443     0.4024532857    -1.5582315819
    9      C       2.7492577089     0.0424454052     0.7614475722
   10      N       1.1876150958     0.2554964031    -1.5321428231
   11      N       3.3198287349    -0.0843038890     1.9621323060
   12      C       1.3329955480    -0.1206561214     0.7980433671
   13      C       0.5812097351     0.0008784528    -0.4096154072
   14      S       2.1250313539    -0.3883880163     2.9971494979
   15      N       0.8525311223    -0.3716413410     2.0173636783
   16      C      -0.8830899385    -0.1823429960    -0.4006326275
   17      S      -1.9614454208     1.1358878645    -0.1665004572
   18      C      -1.5924501266    -1.3361141002    -0.5358421109
   19      C      -3.3655843830     0.1385572372    -0.2522405384
   20      S      -1.1531704678    -3.0016645387    -0.7887842345
   21      C      -3.0055673552    -1.1737936234    -0.4570615799
   22      C      -4.7067388089     0.6666873599    -0.1166050346
   23      C      -2.8455878040    -3.4469345538    -0.7838688173
   24      C      -3.6993094038    -2.4235368108    -0.6073222253
   25      N      -5.7753971681    -0.0726376262    -0.1940197229
   26      S      -5.0359147268     2.3504803719     0.1758547087
   27      C      -6.9038931809     0.6746519383    -0.0231272145
   28      C      -6.7153183525     1.9992433574     0.1876553511
   29      H       8.6173371184     0.8548804464    -0.9114642139
   30      H       7.1615349309     2.4361013168    -2.1519809697
   31      H       4.6912182542     2.2096514671    -1.9340195877
   32      H       5.3927955620    -1.1063072278     0.6800302137
   33      H       2.9532939392     0.5833442648    -2.5435649510
   34      H      -3.1005688384    -4.4849786336    -0.9238915145
   35      H      -4.7724374113    -2.5144490647    -0.5795906973
   36      H      -7.8666579632     0.1884495334    -0.0611254026
   37      H      -7.4515065247     2.7666407300     0.3490050939
 ----------------------------------------------------------------

    9   -2595.8930997448      7.97E-09 Convergence criterion met
 Total energy in the final basis set = -2595.8930997448
 Final energy is   -2595.89309974478
 **  OPTIMIZATION CONVERGED  **

                    Orbital Energies (a.u.)
 --------------------------------------------------------------

 Alpha MOs
 -- Occupied --
-89.159 -89.093 -89.088 -89.075 -14.496 -14.492 -14.461 -14.440
-14.440 -10.371 -10.371 -10.366 -10.362 -10.343 -10.340 -10.339
-10.336 -10.332 -10.331 -10.330 -10.327 -10.324 -10.323 -10.323
-10.319 -10.313 -10.307 -10.297  -8.169  -8.108  -8.104  -8.090
 -6.119  -6.114  -6.113  -6.057  -6.053  -6.053  -6.050  -6.050
 -6.047  -6.040  -6.036  -6.032  -1.155  -1.079  -1.077  -1.059
 -1.024  -1.017  -0.957  -0.950  -0.915  -0.909  -0.906  -0.886
 -0.863  -0.845  -0.828  -0.807  -0.777  -0.757  -0.748  -0.733
 -0.722  -0.696  -0.687  -0.679  -0.648  -0.642  -0.627  -0.625
 -0.610  -0.601  -0.587  -0.579  -0.571  -0.568  -0.542  -0.530
 -0.528  -0.523  -0.519  -0.513  -0.510  -0.506  -0.501  -0.499
 -0.484  -0.483  -0.474  -0.467  -0.455  -0.442  -0.435  -0.434
 -0.432  -0.423  -0.410  -0.389  -0.387  -0.374  -0.370  -0.367
 -0.366  -0.363  -0.346  -0.336  -0.324  -0.322  -0.273

          Ground-State Mulliken Net Atomic Charges

     Atom                 Charge (a.u.)
  ----------------------------------------
      1 C                    -0.069394
      2 C                    -0.102058
      3 N                    -0.154362
      4 C                    -0.155592
      5 C                    -0.093172
      6 C                     0.109134
      7 C                     0.045527
      8 C                    -0.107157
      9 C                     0.029305
     10 N                    -0.134577
     11 N                    -0.281520
     12 C                     0.023868
     13 C                    -0.038934
     14 S                     0.422992
     15 N                    -0.242214
     16 C                     0.030362
     17 S                     0.130084
     18 C                    -0.015430
     19 C                    -0.038604
     20 S                     0.054968
     21 C                     0.032998
     22 C                     0.039509
     23 C                    -0.149843
     24 C                    -0.164998
     25 N                    -0.188248
     26 S                     0.093481
     27 C                    -0.077270
     28 C                    -0.203873
     29 H                     0.125145
     30 H                     0.130408
     31 H                     0.132617
     32 H                     0.130124
     33 H                     0.137731
     34 H                     0.132993
     35 H                     0.144619
     36 H                     0.128246
     37 H                     0.143133
  ----------------------------------------
  Sum of atomic charges =     0.000000

                    Cartesian Multipole Moments
 -----------------------------------------------------------------
    Charge (ESU x 10^10)
                 0.0000
    Dipole Moment (Debye)
         X      -0.7180      Y       1.7966      Z      -0.0116
       Tot       1.9347
    Quadrupole Moments (Debye-Ang)
        XX    -172.3449     XY       6.6627     YY    -172.3632
        XZ     -10.4120     YZ      -2.3942     ZZ    -184.2904

 Total job time:  6859.53s(wall), 103623.40s(cpu)
        *  Thank you very much for using Q-Chem.  Have a nice day.  *
