 Q-Chem 4.4, Q-Chem, Inc., Pleasanton, CA (2016)
 Q-Chem 4.4.2 for Intel X86 Linux

User input:
--------------------------------------------------------------
$comment
OPTIMIZATION
$end

$rem
JOBTYPE OPT
EXCHANGE omegaB97X-D
BASIS cc-pVTZ
$end

$molecule
0 1
C          0.00000        0.00000        0.00000
C          1.38508        0.00000        0.00000
N         -0.72771       -1.11322        0.00000
C          2.04720       -1.21160       -0.00386
C         -0.08136       -2.27149       -0.00595
C          1.30925       -2.38901       -0.00649
C          1.96927       -3.70493        0.02329
C          3.04486       -3.95576        0.82999
C          1.55200       -4.80802       -0.77739
N          3.72631       -5.12438        0.91627
N          0.54624       -4.84522       -1.65350
C          2.26335       -6.04410       -0.69858
C          3.37925       -6.16090        0.19241
S          0.53898       -6.32692       -2.28381
N          1.78433       -6.98642       -1.50573
C          4.16725       -7.35995        0.35676
S          3.85692       -8.62586        1.49560
C          5.28774       -7.67390       -0.37751
C          5.21454       -9.54986        0.98094
S          6.13711       -6.87494       -1.65638
C          5.89161       -8.91076       -0.03672
C          5.54017      -10.82932        1.57519
C          7.28251       -8.19777       -1.71777
C          7.05430       -9.18720       -0.83604
N          6.55224      -11.55561        1.19620
S          4.60833      -11.53848        2.86529
C          6.62416      -12.71156        1.91508
C          5.66795      -12.88640        2.85956
H         -0.55134        0.93273        0.00000
H          1.92494        0.93597       -0.01293
H          3.12873       -1.25416       -0.02668
H         -0.69553       -3.16348       -0.00579
H          3.41622       -3.17720        1.48423
H          8.08309       -8.15672       -2.43999
H          7.64537      -10.08075       -0.72854
H          7.41341      -13.41871        1.71026
H          5.53239      -13.71374        3.53378
$end

$opt
CONSTRAINT
tors 4 6 7 8 42.24575
tors 10 13 16 17 90.00000
tors 17 19 22 25 179.21698
ENDCONSTRAINT
$end
--------------------------------------------------------------

   16   -2595.8906145317      5.50E-09 Convergence criterion met
 Total energy in the final basis set = -2595.8906145317
   13   -2595.8927258949      3.71E-09 Convergence criterion met
 Total energy in the final basis set = -2595.8927258949
   12   -2595.8930085052      6.60E-09 Convergence criterion met
 Total energy in the final basis set = -2595.8930085052
   11   -2595.8930475312      5.85E-09 Convergence criterion met
 Total energy in the final basis set = -2595.8930475312
   10   -2595.8930609554      6.18E-09 Convergence criterion met
 Total energy in the final basis set = -2595.8930609554
   10   -2595.8930685912      9.45E-09 Convergence criterion met
 Total energy in the final basis set = -2595.8930685912
   10   -2595.8930731307      9.37E-09 Convergence criterion met
 Total energy in the final basis set = -2595.8930731307
   10   -2595.8930759038      8.31E-09 Convergence criterion met
 Total energy in the final basis set = -2595.8930759038

             Standard Nuclear Orientation (Angstroms)
    I     Atom           X                Y                Z
 ----------------------------------------------------------------
    1      C       7.5270472642    -0.5934753480    -1.0406837114
    2      C       6.9003570550     0.4233781063    -1.7419425497
    3      N       6.8846915776    -1.4160377978    -0.2169296045
    4      C       5.5379701460     0.5932269916    -1.5821463362
    5      C       5.5787671653    -1.2431517367    -0.0689004839
    6      C       4.8437007252    -0.2587695040    -0.7308309570
    7      C       3.3854974546    -0.1416548621    -0.5549098607
    8      C       2.5460302089     0.0744994973    -1.6130415385
    9      C       2.7455480917    -0.2479911745     0.7132964642
   10      N       1.1912164474     0.2079934406    -1.5509684193
   11      N       3.3144301204    -0.4440652430     1.9054663402
   12      C       1.3273510299    -0.1185326831     0.7873441284
   13      C       0.5801167994     0.1161569891    -0.4062447800
   14      S       2.1132634006    -0.4603685172     2.9781976048
   15      N       0.8422290284    -0.2227186093     2.0259766962
   16      C      -0.8844154032     0.2873349700    -0.3451740794
   17      S      -1.9607446850    -1.0421360546    -0.5169199322
   18      C      -1.5943674646     1.4227610353    -0.1013057951
   19      C      -3.3650479047    -0.0716650697    -0.2733273136
   20      S      -1.1568741244     3.0843534797     0.1804474735
   21      C      -3.0065167118     1.2399969581    -0.0615084772
   22      C      -4.7056183349    -0.6175656326    -0.3062380064
   23      C      -2.8486502621     3.5009502552     0.3411168053
   24      C      -3.7011415666     2.4717540386     0.1951878064
   25      N      -5.7737531187     0.1001015840    -0.1095186699
   26      S      -5.0345795176    -2.2981685131    -0.6164537409
   27      C      -6.9016104390    -0.6623206319    -0.1991213097
   28      C      -6.7129303888    -1.9768869240    -0.4653967546
   29      H       8.5940334713    -0.7542093168    -1.1423299902
   30      H       7.4722240418     1.0710543796    -2.3907038317
   31      H       5.0182170602     1.3906041573    -2.0970936359
   32      H       5.0790197130    -1.9247479322     0.6078099258
   33      H       2.9580537978     0.1389560393    -2.6123681117
   34      H      -3.1043150559     4.5287499364     0.5422390646
   35      H      -4.7738442723     2.5461519168     0.2621556259
   36      H      -7.8648131980    -0.1950601671    -0.0616910952
   37      H      -7.4490805433    -2.7519484152    -0.5849553255
 ----------------------------------------------------------------

    9   -2595.8930767198      6.97E-09 Convergence criterion met
 Total energy in the final basis set = -2595.8930767198
 Final energy is   -2595.89307671979
 **  OPTIMIZATION CONVERGED  **

                    Orbital Energies (a.u.)
 --------------------------------------------------------------

 Alpha MOs
 -- Occupied --
-89.159 -89.093 -89.088 -89.075 -14.496 -14.492 -14.461 -14.440
-14.440 -10.371 -10.371 -10.366 -10.361 -10.343 -10.341 -10.339
-10.336 -10.333 -10.331 -10.330 -10.327 -10.324 -10.323 -10.323
-10.319 -10.313 -10.307 -10.297  -8.169  -8.108  -8.104  -8.090
 -6.119  -6.114  -6.113  -6.057  -6.053  -6.053  -6.050  -6.049
 -6.047  -6.040  -6.036  -6.032  -1.155  -1.079  -1.077  -1.059
 -1.024  -1.017  -0.957  -0.950  -0.915  -0.909  -0.906  -0.886
 -0.863  -0.845  -0.828  -0.807  -0.777  -0.757  -0.748  -0.733
 -0.722  -0.696  -0.687  -0.679  -0.648  -0.642  -0.627  -0.625
 -0.610  -0.601  -0.585  -0.581  -0.573  -0.567  -0.542  -0.530
 -0.528  -0.523  -0.519  -0.514  -0.510  -0.506  -0.501  -0.499
 -0.485  -0.482  -0.473  -0.468  -0.454  -0.442  -0.435  -0.435
 -0.433  -0.423  -0.410  -0.388  -0.387  -0.374  -0.370  -0.367
 -0.366  -0.364  -0.347  -0.336  -0.324  -0.323  -0.273

          Ground-State Mulliken Net Atomic Charges

     Atom                 Charge (a.u.)
  ----------------------------------------
      1 C                    -0.069580
      2 C                    -0.100217
      3 N                    -0.153977
      4 C                    -0.156052
      5 C                    -0.093052
      6 C                     0.109551
      7 C                     0.045630
      8 C                    -0.107505
      9 C                     0.027980
     10 N                    -0.134915
     11 N                    -0.281100
     12 C                     0.022591
     13 C                    -0.037875
     14 S                     0.422848
     15 N                    -0.241323
     16 C                     0.030239
     17 S                     0.131831
     18 C                    -0.015359
     19 C                    -0.038224
     20 S                     0.053068
     21 C                     0.033067
     22 C                     0.039174
     23 C                    -0.149595
     24 C                    -0.165150
     25 N                    -0.188426
     26 S                     0.094480
     27 C                    -0.077620
     28 C                    -0.204293
     29 H                     0.124812
     30 H                     0.129153
     31 H                     0.133097
     32 H                     0.129870
     33 H                     0.137296
     34 H                     0.132620
     35 H                     0.144800
     36 H                     0.128606
     37 H                     0.143551
  ----------------------------------------
  Sum of atomic charges =     0.000000

                    Cartesian Multipole Moments
 -----------------------------------------------------------------
    Charge (ESU x 10^10)
                 0.0000
    Dipole Moment (Debye)
         X      -0.4649      Y       0.7396      Z      -0.2639
       Tot       0.9126
    Quadrupole Moments (Debye-Ang)
        XX    -168.0415     XY      15.6697     YY    -176.8242
        XZ      -9.6774     YZ      -0.1089     ZZ    -183.3754

 Total job time:  7742.43s(wall), 117056.26s(cpu)
        *  Thank you very much for using Q-Chem.  Have a nice day.  *
