 Q-Chem 4.4, Q-Chem, Inc., Pleasanton, CA (2016)
 Q-Chem 4.4.2 for Intel X86 Linux

User input:
--------------------------------------------------------------
$comment
OPTIMIZATION
$end

$rem
JOBTYPE OPT
EXCHANGE omegaB97X-D
BASIS cc-pVTZ
$end

$molecule
0 1
C          0.00000        0.00000        0.00000
C          1.38508        0.00000        0.00000
N         -0.72771       -1.11322        0.00000
C          2.04720       -1.21160       -0.00386
C         -0.08136       -2.27149       -0.00595
C          1.30925       -2.38901       -0.00649
C          1.96927       -3.70493        0.02329
C          3.04486       -3.95576        0.82999
C          1.55200       -4.80802       -0.77739
N          3.72631       -5.12438        0.91627
N          0.54624       -4.84522       -1.65350
C          2.26335       -6.04410       -0.69858
C          3.37925       -6.16090        0.19241
S          0.53898       -6.32692       -2.28381
N          1.78433       -6.98642       -1.50573
C          4.16725       -7.35995        0.35676
S          4.98208       -7.84399        1.80505
C          4.38371       -8.30165       -0.62282
C          5.59519       -9.28466        1.09065
S          3.87335       -8.44679       -2.27016
C          5.18942       -9.39773       -0.22277
C          6.41592      -10.21849        1.83263
C          4.73978       -9.96257       -2.40168
C          5.37967      -10.34913       -1.28381
N          6.88128      -11.32214        1.32192
S          6.86970       -9.96592        3.49573
C          7.61507      -12.01617        2.23737
C          7.72542      -11.45133        3.46445
H         -0.55134        0.93273        0.00000
H          1.92494        0.93597       -0.01293
H          3.12873       -1.25416       -0.02668
H         -0.69553       -3.16348       -0.00579
H          3.41622       -3.17720        1.48423
H          4.71228      -10.49529       -3.33959
H          5.95816      -11.25030       -1.17157
H          8.06403      -12.95714        1.95821
H          8.24903      -11.81936        4.32923
$end

$opt
CONSTRAINT
tors 4 6 7 8 42.24575
tors 10 13 16 17 30.00000
tors 17 19 22 25 179.21698
ENDCONSTRAINT
$end
--------------------------------------------------------------

   16   -2595.8916556516      6.74E-09 Convergence criterion met
 Total energy in the final basis set = -2595.8916556516
   14   -2595.8978655477      8.50E-09 Convergence criterion met
 Total energy in the final basis set = -2595.8978655477
   13   -2595.9005926444      3.92E-09 Convergence criterion met
 Total energy in the final basis set = -2595.9005926444
   13   -2595.9011091704      4.00E-09 Convergence criterion met
 Total energy in the final basis set = -2595.9011091704
   11   -2595.9011622067      5.17E-09 Convergence criterion met
 Total energy in the final basis set = -2595.9011622067
   11   -2595.9011857308      5.26E-09 Convergence criterion met
 Total energy in the final basis set = -2595.9011857308
   10   -2595.9011978712      9.06E-09 Convergence criterion met
 Total energy in the final basis set = -2595.9011978712
   10   -2595.9012014743      5.68E-09 Convergence criterion met
 Total energy in the final basis set = -2595.9012014743
    9   -2595.9012025763      7.35E-09 Convergence criterion met
 Total energy in the final basis set = -2595.9012025763

             Standard Nuclear Orientation (Angstroms)
    I     Atom           X                Y                Z
 ----------------------------------------------------------------
    1      C      -7.3602332146     1.8584716786    -0.1122692756
    2      C      -6.5556684226     2.2604673883    -1.1654022955
    3      N      -6.9231645675     1.1091804923     0.8952938407
    4      C      -5.2310934415     1.8650483072    -1.1715889094
    5      C      -5.6513152786     0.7346251762     0.8791361907
    6      C      -4.7485965197     1.0857299878    -0.1257667869
    7      C      -3.3359667188     0.6714676324    -0.0774455154
    8      C      -2.3193327156     1.5322877201    -0.3905882847
    9      C      -2.9152610868    -0.6348161309     0.3015183708
   10      N      -0.9959120001     1.2369338254    -0.4104441871
   11      N      -3.6824874603    -1.6599805754     0.6770515030
   12      C      -1.5215551693    -0.9522802930     0.3074361874
   13      C      -0.5690524884     0.0453706009    -0.0776927428
   14      S      -2.6846763092    -2.8788197908     1.0111367340
   15      N      -1.2634884049    -2.1963348906     0.7037249282
   16      C       0.8658941435    -0.1939323700    -0.1256673468
   17      S       1.8968711421     1.1590794354     0.1759905411
   18      C       1.6283899841    -1.3127392596    -0.3686919691
   19      C       3.3322338032     0.2427836034    -0.0375046959
   20      S       1.3031618211    -2.9699166457    -0.7905548362
   21      C       3.0322753650    -1.0670095157    -0.3452079607
   22      C       4.6515643275     0.8265050906     0.0911519589
   23      C       3.0139906787    -3.2828751531    -0.9469354356
   24      C       3.8043622546    -2.2306718552    -0.6775571101
   25      N       5.7539697220     0.1482432675    -0.0517873222
   26      S       4.9042047579     2.5091249725     0.4564747747
   27      C       6.8471662865     0.9428729445     0.1269142050
   28      C       6.5969699852     2.2444272558     0.4098035013
   29      H      -8.4043552287     2.1470165717    -0.0760266906
   30      H      -6.9617686072     2.8608036690    -1.9667622855
   31      H      -4.5765494875     2.1409825722    -1.9879737513
   32      H      -5.3234771861     0.1243337885     1.7110462748
   33      H      -2.5534400499     2.5573224826    -0.6512733289
   34      H       3.3286218498    -4.2764075988    -1.2231975124
   35      H       4.8809298383    -2.2400755461    -0.7062554164
   36      H       7.8318063503     0.5095130502     0.0400530593
   37      H       7.2992485400     3.0388249859     0.5905263494
 ----------------------------------------------------------------

    9   -2595.9012028132      3.56E-09 Convergence criterion met
 Total energy in the final basis set = -2595.9012028132
 Final energy is   -2595.90120281321
 **  OPTIMIZATION CONVERGED  **

                    Orbital Energies (a.u.)
 --------------------------------------------------------------

 Alpha MOs
 -- Occupied --
-89.157 -89.091 -89.091 -89.076 -14.494 -14.489 -14.454 -14.444
-14.437 -10.373 -10.371 -10.364 -10.361 -10.343 -10.343 -10.341
-10.338 -10.329 -10.328 -10.327 -10.327 -10.326 -10.324 -10.320
-10.316 -10.314 -10.304 -10.296  -8.167  -8.107  -8.106  -8.090
 -6.117  -6.111  -6.111  -6.056  -6.055  -6.052  -6.052  -6.050
 -6.049  -6.040  -6.036  -6.032  -1.154  -1.082  -1.074  -1.056
 -1.024  -1.016  -0.959  -0.946  -0.913  -0.910  -0.906  -0.884
 -0.862  -0.845  -0.829  -0.807  -0.775  -0.754  -0.746  -0.731
 -0.720  -0.696  -0.688  -0.679  -0.650  -0.642  -0.625  -0.621
 -0.610  -0.602  -0.582  -0.578  -0.570  -0.566  -0.541  -0.535
 -0.527  -0.524  -0.518  -0.515  -0.510  -0.504  -0.498  -0.495
 -0.487  -0.481  -0.477  -0.464  -0.457  -0.448  -0.437  -0.435
 -0.426  -0.425  -0.405  -0.394  -0.383  -0.372  -0.371  -0.368
 -0.367  -0.359  -0.344  -0.336  -0.324  -0.322  -0.269

          Ground-State Mulliken Net Atomic Charges

     Atom                 Charge (a.u.)
  ----------------------------------------
      1 C                    -0.071124
      2 C                    -0.103106
      3 N                    -0.154876
      4 C                    -0.156896
      5 C                    -0.094382
      6 C                     0.108884
      7 C                     0.036878
      8 C                    -0.107060
      9 C                     0.034759
     10 N                    -0.171644
     11 N                    -0.279898
     12 C                     0.014958
     13 C                     0.054157
     14 S                     0.419917
     15 N                    -0.269290
     16 C                     0.008130
     17 S                     0.130484
     18 C                    -0.039542
     19 C                    -0.027992
     20 S                     0.075070
     21 C                     0.042516
     22 C                     0.034315
     23 C                    -0.155530
     24 C                    -0.167680
     25 N                    -0.185803
     26 S                     0.102033
     27 C                    -0.076950
     28 C                    -0.201712
     29 H                     0.124099
     30 H                     0.129631
     31 H                     0.132433
     32 H                     0.128586
     33 H                     0.135786
     34 H                     0.132168
     35 H                     0.145246
     36 H                     0.129355
     37 H                     0.144082
  ----------------------------------------
  Sum of atomic charges =     0.000000

                    Cartesian Multipole Moments
 -----------------------------------------------------------------
    Charge (ESU x 10^10)
                 0.0000
    Dipole Moment (Debye)
         X       1.5600      Y       0.6282      Z      -1.1924
       Tot       2.0616
    Quadrupole Moments (Debye-Ang)
        XX    -173.5571     XY       0.0871     YY    -169.5655
        XZ      12.4028     YZ      -2.1880     ZZ    -186.1171

 Total job time:  8940.93s(wall), 135186.08s(cpu)
        *  Thank you very much for using Q-Chem.  Have a nice day.  *
