 Q-Chem 4.4, Q-Chem, Inc., Pleasanton, CA (2016)
 Q-Chem 4.4.2 for Intel X86 Linux

User input:
--------------------------------------------------------------
$comment
OPTIMIZATION
$end

$rem
JOBTYPE OPT
EXCHANGE omegaB97X-D
BASIS cc-pVTZ
$end

$molecule
0 1
C          0.00000        0.00000        0.00000
C          1.38508        0.00000        0.00000
N         -0.72771       -1.11322        0.00000
C          2.04720       -1.21160       -0.00386
C         -0.08136       -2.27149       -0.00595
C          1.30925       -2.38901       -0.00649
C          1.96927       -3.70493        0.02329
C          3.04486       -3.95576        0.82999
C          1.55200       -4.80802       -0.77739
N          3.72631       -5.12438        0.91627
N          0.54624       -4.84522       -1.65350
C          2.26335       -6.04410       -0.69858
C          3.37925       -6.16090        0.19241
S          0.53898       -6.32692       -2.28381
N          1.78433       -6.98642       -1.50573
C          4.16725       -7.35995        0.35676
S          4.76196       -8.36253       -0.92267
C          4.56573       -7.88204        1.56583
C          5.52850       -9.45559        0.16334
S          4.32989       -7.39562        3.20992
C          5.33775       -9.06779        1.47321
C          6.27030      -10.60724       -0.30530
C          5.26110       -8.77694        3.74882
C          5.72710       -9.56591        2.76450
N          6.87149      -11.44224        0.49268
S          6.44047      -11.00047       -1.99409
C          7.49832      -12.42827       -0.20945
C          7.38339      -12.36458       -1.55841
H         -0.55134        0.93273        0.00000
H          1.92494        0.93597       -0.01293
H          3.12873       -1.25416       -0.02668
H         -0.69553       -3.16348       -0.00579
H          3.41622       -3.17720        1.48423
H          5.41429       -8.91723        4.80762
H          6.32078      -10.45392        2.89991
H          8.04369      -13.19518        0.31909
H          7.79241      -13.02809       -2.29996
$end

$opt
CONSTRAINT
tors 4 6 7 8 42.24575
tors 10 13 16 17 -135.00000
tors 17 19 22 25 179.21698
ENDCONSTRAINT
$end
--------------------------------------------------------------

   16   -2595.8979704612      4.54E-09 Convergence criterion met
 Total energy in the final basis set = -2595.8979704612
   13   -2595.8992037030      4.58E-09 Convergence criterion met
 Total energy in the final basis set = -2595.8992037030
   12   -2595.8995695091      9.68E-09 Convergence criterion met
 Total energy in the final basis set = -2595.8995695091
   12   -2595.8997536649      9.43E-09 Convergence criterion met
 Total energy in the final basis set = -2595.8997536649
   12   -2595.8998445277      7.88E-09 Convergence criterion met
 Total energy in the final basis set = -2595.8998445277
   11   -2595.8998623416      5.63E-09 Convergence criterion met
 Total energy in the final basis set = -2595.8998623416
    9   -2595.8998647097      7.25E-09 Convergence criterion met
 Total energy in the final basis set = -2595.8998647097

             Standard Nuclear Orientation (Angstroms)
    I     Atom           X                Y                Z
 ----------------------------------------------------------------
    1      C      -7.5701254524     0.2853207926    -0.7380880618
    2      C      -6.7769135871     0.7855029329    -1.7572967882
    3      N      -7.0773286930    -0.2308596217     0.3838510775
    4      C      -5.4036297682     0.7477603280    -1.6037450509
    5      C      -5.7591262492    -0.2623666503     0.5207099964
    6      C      -4.8644823446     0.2187519492    -0.4363801160
    7      C      -3.4082076150     0.1892006481    -0.2169185030
    8      C      -2.6075652212     1.2506963331    -0.5392546694
    9      C      -2.7245312871    -0.9320620490     0.3356356799
   10      N      -1.2557818998     1.3061663911    -0.4113457115
   11      N      -3.2477349885    -2.0948104004     0.7290024721
   12      C      -1.3075179338    -0.8764823559     0.4981093704
   13      C      -0.5977696205     0.3035283492     0.1054519400
   14      S      -2.0174647973    -2.9921900450     1.2544490855
   15      N      -0.7855465591    -1.9873058489     1.0163361338
   16      C       0.8525468134     0.4145176013     0.2034647577
   17      S       1.9274650404    -0.8602721932    -0.2401339684
   18      C       1.5733480459     1.5595691062     0.4230255132
   19      C       3.3282185120     0.1230765764    -0.0719532469
   20      S       1.1470083457     3.1888589381     0.8421298838
   21      C       2.9803779822     1.4036783838     0.3033831011
   22      C       4.6644468292    -0.3875144969    -0.2964096182
   23      C       2.8413341210     3.6178436649     0.9016509580
   24      C       3.6882424580     2.6188135309     0.5962647259
   25      N       5.7354612814     0.3450227296    -0.1883887871
   26      S       4.9841199671    -2.0393653468    -0.7417326895
   27      C       6.8573306313    -0.3812263607    -0.4587114629
   28      C       6.6610995939    -1.6833478781    -0.7782714526
   29      H      -8.6503337824     0.2954244615    -0.8264481896
   30      H      -7.2258810843     1.1873061528    -2.6542309211
   31      H      -4.7506582772     1.1074703080    -2.3880828118
   32      H      -5.3837544914    -0.6865058444     1.4435224603
   33      H      -3.0546523519     2.1508554781    -0.9427524531
   34      H       3.1043767564     4.6325449886     1.1540475268
   35      H       4.7614822990     2.7049127963     0.5665067418
   36      H       7.8211111852     0.1018393966    -0.4088013198
   37      H       7.3919593809    -2.4333826911    -1.0234797217
 ----------------------------------------------------------------

    8   -2595.8998651528      8.64E-09 Convergence criterion met
 Total energy in the final basis set = -2595.8998651528
 Final energy is   -2595.89986515281
 **  OPTIMIZATION CONVERGED  **

                    Orbital Energies (a.u.)
 --------------------------------------------------------------

 Alpha MOs
 -- Occupied --
-89.157 -89.094 -89.091 -89.074 -14.495 -14.490 -14.455 -14.443
-14.438 -10.374 -10.371 -10.364 -10.361 -10.343 -10.341 -10.341
-10.334 -10.330 -10.328 -10.328 -10.327 -10.326 -10.325 -10.320
-10.317 -10.314 -10.304 -10.296  -8.167  -8.109  -8.107  -8.089
 -6.117  -6.112  -6.111  -6.058  -6.056  -6.055  -6.052  -6.052
 -6.050  -6.039  -6.035  -6.031  -1.154  -1.082  -1.074  -1.056
 -1.024  -1.016  -0.957  -0.948  -0.912  -0.910  -0.907  -0.885
 -0.862  -0.845  -0.829  -0.807  -0.776  -0.754  -0.746  -0.730
 -0.724  -0.695  -0.688  -0.679  -0.648  -0.641  -0.625  -0.623
 -0.608  -0.599  -0.586  -0.577  -0.570  -0.569  -0.542  -0.534
 -0.527  -0.523  -0.518  -0.514  -0.511  -0.504  -0.498  -0.495
 -0.487  -0.482  -0.476  -0.464  -0.457  -0.445  -0.436  -0.434
 -0.429  -0.425  -0.407  -0.394  -0.384  -0.372  -0.371  -0.369
 -0.366  -0.360  -0.344  -0.336  -0.325  -0.321  -0.270

          Ground-State Mulliken Net Atomic Charges

     Atom                 Charge (a.u.)
  ----------------------------------------
      1 C                    -0.071308
      2 C                    -0.101754
      3 N                    -0.154492
      4 C                    -0.157530
      5 C                    -0.093961
      6 C                     0.107800
      7 C                     0.039023
      8 C                    -0.097688
      9 C                     0.033401
     10 N                    -0.162382
     11 N                    -0.278419
     12 C                     0.004345
     13 C                     0.063697
     14 S                     0.417770
     15 N                    -0.264024
     16 C                    -0.012828
     17 S                     0.132631
     18 C                    -0.038509
     19 C                    -0.034313
     20 S                     0.076137
     21 C                     0.042642
     22 C                     0.036830
     23 C                    -0.153096
     24 C                    -0.166571
     25 N                    -0.185283
     26 S                     0.098360
     27 C                    -0.076392
     28 C                    -0.201835
     29 H                     0.124278
     30 H                     0.128810
     31 H                     0.132985
     32 H                     0.128400
     33 H                     0.134952
     34 H                     0.131583
     35 H                     0.144068
     36 H                     0.129007
     37 H                     0.143667
  ----------------------------------------
  Sum of atomic charges =     0.000000

                    Cartesian Multipole Moments
 -----------------------------------------------------------------
    Charge (ESU x 10^10)
                 0.0000
    Dipole Moment (Debye)
         X       1.5401      Y      -0.4555      Z      -1.5886
       Tot       2.2590
    Quadrupole Moments (Debye-Ang)
        XX    -172.4984     XY     -10.8485     YY    -174.3942
        XZ      10.1219     YZ       0.1558     ZZ    -183.1841

 Total job time:  7170.61s(wall), 108399.91s(cpu)
        *  Thank you very much for using Q-Chem.  Have a nice day.  *
