 Q-Chem 4.4, Q-Chem, Inc., Pleasanton, CA (2016)
 Q-Chem 4.4.2 for Intel X86 Linux

User input:
--------------------------------------------------------------
$comment
OPTIMIZATION
$end

$rem
JOBTYPE OPT
EXCHANGE omegaB97X-D
BASIS cc-pVTZ
$end

$molecule
0 1
C          0.00000        0.00000        0.00000
C          1.38508        0.00000        0.00000
N         -0.72771       -1.11322        0.00000
C          2.04720       -1.21160       -0.00386
C         -0.08136       -2.27149       -0.00595
C          1.30925       -2.38901       -0.00649
C          1.96927       -3.70493        0.02329
C          3.04486       -3.95576        0.82999
C          1.55200       -4.80802       -0.77739
N          3.72631       -5.12438        0.91627
N          0.54624       -4.84522       -1.65350
C          2.26335       -6.04410       -0.69858
C          3.37925       -6.16090        0.19241
S          0.53898       -6.32692       -2.28381
N          1.78433       -6.98642       -1.50573
C          4.16725       -7.35995        0.35676
S          5.86643       -7.50207        0.05945
C          3.67701       -8.57372        0.78059
C          5.90017       -9.16499        0.50143
S          2.10430       -9.12769        1.24421
C          4.64569       -9.60549        0.86849
C          7.12341       -9.93917        0.47835
C          2.75907      -10.72302        1.54723
C          4.07824      -10.84785        1.31762
N          7.18059      -11.19413        0.82073
S          8.65690       -9.27195       -0.01036
C          8.45139      -11.67546        0.71318
C          9.38763      -10.79505        0.28274
H         -0.55134        0.93273        0.00000
H          1.92494        0.93597       -0.01293
H          3.12873       -1.25416       -0.02668
H         -0.69553       -3.16348       -0.00579
H          3.41622       -3.17720        1.48423
H          2.09465      -11.49779        1.89722
H          4.65632      -11.74632        1.45156
H          8.65515      -12.70452        0.96703
H         10.44005      -10.95538        0.12731
$end

$opt
CONSTRAINT
tors 4 6 7 8 42.24575
tors 10 13 16 17 -60.00000
tors 17 19 22 25 179.21698
ENDCONSTRAINT
$end
--------------------------------------------------------------

   16   -2595.8938884104      5.03E-09 Convergence criterion met
 Total energy in the final basis set = -2595.8938884104
   13   -2595.8961367404      4.02E-09 Convergence criterion met
 Total energy in the final basis set = -2595.8961367404
   12   -2595.8965450922      7.72E-09 Convergence criterion met
 Total energy in the final basis set = -2595.8965450922
   11   -2595.8966178410      6.38E-09 Convergence criterion met
 Total energy in the final basis set = -2595.8966178410
   11   -2595.8966643480      8.12E-09 Convergence criterion met
 Total energy in the final basis set = -2595.8966643480
   11   -2595.8966809324      6.94E-09 Convergence criterion met
 Total energy in the final basis set = -2595.8966809324
    9   -2595.8966841897      8.82E-09 Convergence criterion met
 Total energy in the final basis set = -2595.8966841897
    9   -2595.8966852715      5.24E-09 Convergence criterion met
 Total energy in the final basis set = -2595.8966852715

             Standard Nuclear Orientation (Angstroms)
    I     Atom           X                Y                Z
 ----------------------------------------------------------------
    1      C       7.4746204522     1.4029546228    -0.4427946032
    2      C       6.6160565651     2.4821612156    -0.3144800298
    3      N       7.0587244398     0.1413681461    -0.4972746239
    4      C       5.2573014628     2.2388592412    -0.2394430224
    5      C       5.7537547554    -0.0807665489    -0.4243915259
    6      C       4.7977219322     0.9280843723    -0.3009067375
    7      C       3.3566684830     0.6242489968    -0.2622262314
    8      C       2.4447499553     1.3634212426    -0.9647871425
    9      C       2.8054370947    -0.4428950667     0.5034910797
   10      N       1.0994681739     1.1621898597    -0.9968892396
   11      N       3.4535385832    -1.3004766889     1.2952741879
   12      C       1.3937422849    -0.6512859401     0.4935140587
   13      C       0.5621863897     0.2027865330    -0.2964255968
   14      S       2.3283820722    -2.2570242619     1.9388722580
   15      N       0.9959184194    -1.6534339675     1.2778816463
   16      C      -0.8864264016    -0.0127560910    -0.3695281957
   17      S      -1.9721958308     1.2400688555     0.0924688673
   18      C      -1.5914295199    -1.1442784408    -0.6696113715
   19      C      -3.3682541150     0.2624292577    -0.1479577945
   20      S      -1.1590485180    -2.7428417559    -1.2044621980
   21      C      -3.0039560173    -0.9976648640    -0.5693126082
   22      C      -4.7122934058     0.7571240542     0.0656592989
   23      C      -2.8508742565    -3.1774226388    -1.2876994795
   24      C      -3.7021636584    -2.1988869607    -0.9348964821
   25      N      -5.7785316479     0.0349378282    -0.1259612632
   26      S      -5.0480680155     2.3790485202     0.6001102162
   27      C      -6.9096678297     0.7455865666     0.1494825030
   28      C      -6.7256425058     2.0250323133     0.5551362100
   29      H       8.5459173063     1.5563585600    -0.5021563017
   30      H       7.0072828018     3.4882232658    -0.2653214557
   31      H       4.5570183794     3.0542792566    -0.1143297085
   32      H       5.4416928326    -1.1167118750    -0.4713351863
   33      H       2.7888641842     2.1784014884    -1.5893588157
   34      H      -3.1079305031    -4.1762503246    -1.6013223629
   35      H      -4.7755172523    -2.2891329088    -0.9239239351
   36      H      -7.8713151154     0.2685635120     0.0372567416
   37      H      -7.4646574758     2.7606067286     0.8188901369
 ----------------------------------------------------------------

    8   -2595.8966854865      8.17E-09 Convergence criterion met
 Total energy in the final basis set = -2595.8966854865
 Final energy is   -2595.89668548650
 **  OPTIMIZATION CONVERGED  **

                    Orbital Energies (a.u.)
 --------------------------------------------------------------

 Alpha MOs
 -- Occupied --
-89.158 -89.093 -89.090 -89.076 -14.495 -14.490 -14.458 -14.442
-14.439 -10.372 -10.371 -10.365 -10.361 -10.342 -10.341 -10.341
-10.335 -10.333 -10.330 -10.329 -10.327 -10.326 -10.325 -10.322
-10.318 -10.314 -10.306 -10.297  -8.168  -8.108  -8.105  -8.091
 -6.118  -6.112  -6.112  -6.057  -6.054  -6.053  -6.051  -6.051
 -6.048  -6.041  -6.037  -6.033  -1.154  -1.081  -1.075  -1.058
 -1.024  -1.016  -0.958  -0.948  -0.914  -0.909  -0.906  -0.885
 -0.863  -0.845  -0.829  -0.807  -0.776  -0.755  -0.747  -0.732
 -0.721  -0.696  -0.688  -0.679  -0.649  -0.641  -0.627  -0.623
 -0.610  -0.602  -0.586  -0.577  -0.570  -0.567  -0.542  -0.533
 -0.528  -0.524  -0.519  -0.514  -0.510  -0.505  -0.500  -0.498
 -0.484  -0.482  -0.475  -0.467  -0.456  -0.444  -0.436  -0.435
 -0.429  -0.424  -0.409  -0.391  -0.385  -0.373  -0.369  -0.369
 -0.367  -0.361  -0.345  -0.336  -0.324  -0.321  -0.272

          Ground-State Mulliken Net Atomic Charges

     Atom                 Charge (a.u.)
  ----------------------------------------
      1 C                    -0.069187
      2 C                    -0.103308
      3 N                    -0.154783
      4 C                    -0.156645
      5 C                    -0.094059
      6 C                     0.108824
      7 C                     0.044979
      8 C                    -0.106869
      9 C                     0.031930
     10 N                    -0.153200
     11 N                    -0.279931
     12 C                    -0.007361
     13 C                     0.007866
     14 S                     0.422311
     15 N                    -0.243222
     16 C                     0.037264
     17 S                     0.129624
     18 C                    -0.033700
     19 C                    -0.036866
     20 S                     0.061630
     21 C                     0.037822
     22 C                     0.037633
     23 C                    -0.147242
     24 C                    -0.167619
     25 N                    -0.187504
     26 S                     0.096788
     27 C                    -0.077326
     28 C                    -0.202690
     29 H                     0.124527
     30 H                     0.130755
     31 H                     0.132402
     32 H                     0.130615
     33 H                     0.136619
     34 H                     0.132423
     35 H                     0.145352
     36 H                     0.128790
     37 H                     0.143359
  ----------------------------------------
  Sum of atomic charges =     0.000000

                    Cartesian Multipole Moments
 -----------------------------------------------------------------
    Charge (ESU x 10^10)
                 0.0000
    Dipole Moment (Debye)
         X      -1.1952      Y       1.5543      Z       1.0365
       Tot       2.2178
    Quadrupole Moments (Debye-Ang)
        XX    -173.5711     XY       8.9050     YY    -167.3044
        XZ      -0.8851     YZ       2.4336     ZZ    -188.1765

 Total job time:  7614.76s(wall), 115073.26s(cpu)
        *  Thank you very much for using Q-Chem.  Have a nice day.  *
