 Q-Chem 4.4, Q-Chem, Inc., Pleasanton, CA (2016)
 Q-Chem 4.4.2 for Intel X86 Linux

User input:
--------------------------------------------------------------
$comment
OPTIMIZATION
$end

$rem
JOBTYPE OPT
EXCHANGE omegaB97X-D
BASIS cc-pVTZ
$end

$molecule
0 1
C          0.00000        0.00000        0.00000
C          1.38508        0.00000        0.00000
N         -0.72771       -1.11322        0.00000
C          2.04720       -1.21160       -0.00386
C         -0.08136       -2.27149       -0.00595
C          1.30925       -2.38901       -0.00649
C          1.96927       -3.70493        0.02329
C          3.04486       -3.95576        0.82999
C          1.55200       -4.80802       -0.77739
N          3.72631       -5.12438        0.91627
N          0.54624       -4.84522       -1.65350
C          2.26335       -6.04410       -0.69858
C          3.37925       -6.16090        0.19241
S          0.53898       -6.32692       -2.28381
N          1.78433       -6.98642       -1.50573
C          4.16725       -7.35995        0.35676
S          3.67886       -8.78130        1.21525
C          5.43125       -7.54881       -0.15299
C          5.15497       -9.60215        0.88500
S          6.49653       -6.56168       -1.09428
C          6.00368       -8.81334        0.13669
C          5.40381      -10.94934        1.35336
C          7.68697       -7.84559       -1.08760
C          7.32103       -8.95510       -0.42159
N          6.50490      -11.59902        1.10650
S          4.25160      -11.85040        2.29999
C          6.47404      -12.84556        1.65729
C          5.34760      -13.16836        2.33838
H         -0.55134        0.93273        0.00000
H          1.92494        0.93597       -0.01293
H          3.12873       -1.25416       -0.02668
H         -0.69553       -3.16348       -0.00579
H          3.41622       -3.17720        1.48423
H          8.62022       -7.68943       -1.60613
H          7.91520       -9.84643       -0.31276
H          7.31972      -13.50457        1.53304
H          5.10897      -14.08624        2.84632
$end

$opt
CONSTRAINT
tors 4 6 7 8 42.24575
tors 10 13 16 17 105.00000
tors 17 19 22 25 179.21698
ENDCONSTRAINT
$end
--------------------------------------------------------------

   16   -2595.8915813042      5.57E-09 Convergence criterion met
 Total energy in the final basis set = -2595.8915813042
   13   -2595.8934696455      3.89E-09 Convergence criterion met
 Total energy in the final basis set = -2595.8934696455
   12   -2595.8937200045      6.30E-09 Convergence criterion met
 Total energy in the final basis set = -2595.8937200045
   11   -2595.8937629295      6.72E-09 Convergence criterion met
 Total energy in the final basis set = -2595.8937629295
   11   -2595.8937837777      5.89E-09 Convergence criterion met
 Total energy in the final basis set = -2595.8937837777
   11   -2595.8938009609      9.27E-09 Convergence criterion met
 Total energy in the final basis set = -2595.8938009609
   11   -2595.8938075034      5.26E-09 Convergence criterion met
 Total energy in the final basis set = -2595.8938075034
   10   -2595.8938112920      9.53E-09 Convergence criterion met
 Total energy in the final basis set = -2595.8938112920

             Standard Nuclear Orientation (Angstroms)
    I     Atom           X                Y                Z
 ----------------------------------------------------------------
    1      C       7.5301903259    -0.1043851039    -1.1395748666
    2      C       6.9167280294     1.1349708110    -1.2167876870
    3      N       6.8774757557    -1.2255923085    -0.8488630255
    4      C       5.5571781637     1.2134813548    -0.9793178643
    5      C       5.5742350732    -1.1389568689    -0.6225256128
    6      C       4.8519085329     0.0535347961    -0.6783527178
    7      C       3.3963349583     0.0845687367    -0.4517481062
    8      C       2.5599811432     0.8256110046    -1.2411864342
    9      C       2.7541911027    -0.6460861822     0.5886631799
   10      N       1.2075310592     0.9213982298    -1.1126215203
   11      N       3.3200439181    -1.4356696503     1.5049707326
   12      C       1.3386502949    -0.5484824851     0.7347271287
   13      C       0.5946460895     0.2772963822    -0.1613863596
   14      S       2.1207862149    -1.9787073545     2.4323378824
   15      N       0.8545147992    -1.2629272949     1.7523170170
   16      C      -0.8694333455     0.3990255179    -0.0473523346
   17      S      -1.9276596378    -0.8677313195    -0.5323943708
   18      C      -1.5994750766     1.4864920445     0.3279499785
   19      C      -3.3478992150     0.0528048033    -0.2067312935
   20      S      -1.1901877207     3.0790319876     0.8996810579
   21      C      -3.0098348358     1.3040924851     0.2565592775
   22      C      -4.6811431277    -0.4747811474    -0.4082966499
   23      C      -2.8910961464     3.4622612895     1.0456917099
   24      C      -3.7270640869     2.4736156129     0.6835551948
   25      N      -5.7628169837     0.2030794402    -0.1528964132
   26      S      -4.9823360879    -2.0788557781    -1.0129738639
   27      C      -6.8792455104    -0.5288507407    -0.4335885709
   28      C      -6.6684330836    -1.7805172787    -0.9066235354
   29      H       8.5949414727    -0.2040290392    -1.3157407640
   30      H       7.4950909882     2.0177461928    -1.4485874496
   31      H       5.0465234686     2.1670923592    -1.0080470785
   32      H       5.0675620253    -2.0665761671    -0.3876738158
   33      H       2.9710531207     1.3841193491    -2.0728042118
   34      H      -3.1671960818     4.4416789693     1.4015171081
   35      H      -4.8022127705     2.5365482167     0.7064456202
   36      H      -7.8514314832    -0.0885106884    -0.2723954166
   37      H      -7.3925981118    -2.5246207676    -1.1870187857
 ----------------------------------------------------------------

    9   -2595.8938121822      7.61E-09 Convergence criterion met
 Total energy in the final basis set = -2595.8938121822
 Final energy is   -2595.89381218224
 **  OPTIMIZATION CONVERGED  **

                    Orbital Energies (a.u.)
 --------------------------------------------------------------

 Alpha MOs
 -- Occupied --
-89.159 -89.093 -89.089 -89.075 -14.496 -14.491 -14.460 -14.440
-14.440 -10.372 -10.371 -10.366 -10.362 -10.343 -10.341 -10.339
-10.335 -10.333 -10.331 -10.330 -10.326 -10.325 -10.324 -10.323
-10.319 -10.313 -10.306 -10.296  -8.169  -8.108  -8.104  -8.090
 -6.119  -6.114  -6.113  -6.057  -6.053  -6.053  -6.051  -6.050
 -6.047  -6.040  -6.036  -6.032  -1.155  -1.080  -1.077  -1.059
 -1.024  -1.017  -0.957  -0.950  -0.914  -0.909  -0.906  -0.886
 -0.863  -0.845  -0.828  -0.807  -0.777  -0.756  -0.747  -0.732
 -0.723  -0.696  -0.687  -0.679  -0.648  -0.642  -0.626  -0.626
 -0.609  -0.601  -0.585  -0.580  -0.573  -0.568  -0.542  -0.531
 -0.528  -0.523  -0.519  -0.513  -0.510  -0.506  -0.501  -0.499
 -0.485  -0.482  -0.473  -0.467  -0.455  -0.442  -0.436  -0.435
 -0.432  -0.424  -0.409  -0.390  -0.386  -0.374  -0.370  -0.368
 -0.366  -0.363  -0.346  -0.336  -0.323  -0.323  -0.273

          Ground-State Mulliken Net Atomic Charges

     Atom                 Charge (a.u.)
  ----------------------------------------
      1 C                    -0.069239
      2 C                    -0.102099
      3 N                    -0.154643
      4 C                    -0.156226
      5 C                    -0.093519
      6 C                     0.108262
      7 C                     0.045360
      8 C                    -0.107147
      9 C                     0.031285
     10 N                    -0.133046
     11 N                    -0.279912
     12 C                     0.013330
     13 C                    -0.015662
     14 S                     0.422165
     15 N                    -0.245578
     16 C                     0.017898
     17 S                     0.134447
     18 C                    -0.026994
     19 C                    -0.037563
     20 S                     0.057161
     21 C                     0.038834
     22 C                     0.037943
     23 C                    -0.148480
     24 C                    -0.167432
     25 N                    -0.187936
     26 S                     0.095264
     27 C                    -0.077944
     28 C                    -0.203482
     29 H                     0.124856
     30 H                     0.130680
     31 H                     0.132910
     32 H                     0.130227
     33 H                     0.136857
     34 H                     0.132210
     35 H                     0.145059
     36 H                     0.128947
     37 H                     0.143209
  ----------------------------------------
  Sum of atomic charges =     0.000000

                    Cartesian Multipole Moments
 -----------------------------------------------------------------
    Charge (ESU x 10^10)
                 0.0000
    Dipole Moment (Debye)
         X      -0.5405      Y       0.7352      Z       0.2053
       Tot       0.9353
    Quadrupole Moments (Debye-Ang)
        XX    -167.9011     XY      18.8657     YY    -174.6240
        XZ      -0.8210     YZ       0.6143     ZZ    -185.8383

 Total job time:  7744.91s(wall), 116938.62s(cpu)
        *  Thank you very much for using Q-Chem.  Have a nice day.  *
