 Q-Chem 4.4, Q-Chem, Inc., Pleasanton, CA (2016)
 Q-Chem 4.4.2 for Intel X86 Linux

User input:
--------------------------------------------------------------
$comment
OPTIMIZATION
$end

$rem
JOBTYPE OPT
EXCHANGE omegaB97X-D
BASIS cc-pVTZ
$end

$molecule
0 1
C          0.00000        0.00000        0.00000
C          1.38508        0.00000        0.00000
N         -0.72771       -1.11322        0.00000
C          2.04720       -1.21160       -0.00386
C         -0.08136       -2.27149       -0.00595
C          1.30925       -2.38901       -0.00649
C          1.96927       -3.70493        0.02329
C          3.04486       -3.95576        0.82999
C          1.55200       -4.80802       -0.77739
N          3.72631       -5.12438        0.91627
N          0.54624       -4.84522       -1.65350
C          2.26335       -6.04410       -0.69858
C          3.37925       -6.16090        0.19241
S          0.53898       -6.32692       -2.28381
N          1.78433       -6.98642       -1.50573
C          4.16725       -7.35995        0.35676
S          5.71635       -7.45493        1.12295
C          3.79546       -8.61293       -0.07338
C          5.84618       -9.15105        0.86201
S          2.40057       -9.22608       -0.89412
C          4.73481       -9.63775        0.20589
C          6.99595       -9.90911        1.30871
C          3.08833      -10.83573       -0.85375
C          4.29339      -10.92314       -0.26324
N          7.11410      -11.19444        1.13726
S          8.34982       -9.18060        2.12842
C          8.28729      -11.65386        1.65759
C          9.08816      -10.72447        2.23358
H         -0.55134        0.93273        0.00000
H          1.92494        0.93597       -0.01293
H          3.12873       -1.25416       -0.02668
H         -0.69553       -3.16348       -0.00579
H          3.41622       -3.17720        1.48423
H          2.52662      -11.65002       -1.28458
H          4.86788      -11.82542       -0.13991
H          8.52407      -12.70489        1.59281
H         10.04670      -10.86089        2.70265
$end

$opt
CONSTRAINT
tors 4 6 7 8 42.24575
tors 10 13 16 17 -15.00000
tors 17 19 22 25 179.21698
ENDCONSTRAINT
$end
--------------------------------------------------------------

   16   -2595.8828094419      7.26E-09 Convergence criterion met
 Total energy in the final basis set = -2595.8828094419
   15   -2595.8980682498      5.14E-09 Convergence criterion met
 Total energy in the final basis set = -2595.8980682498
   13   -2595.9016004355      3.84E-09 Convergence criterion met
 Total energy in the final basis set = -2595.9016004355
   13   -2595.9024826478      4.59E-09 Convergence criterion met
 Total energy in the final basis set = -2595.9024826478
   11   -2595.9025559567      4.37E-09 Convergence criterion met
 Total energy in the final basis set = -2595.9025559567
   10   -2595.9025767594      9.19E-09 Convergence criterion met
 Total energy in the final basis set = -2595.9025767594
    9   -2595.9025829078      8.02E-09 Convergence criterion met
 Total energy in the final basis set = -2595.9025829078
   10   -2595.9025881226      6.82E-09 Convergence criterion met
 Total energy in the final basis set = -2595.9025881226
    9   -2595.9025892827      6.81E-09 Convergence criterion met
 Total energy in the final basis set = -2595.9025892827

             Standard Nuclear Orientation (Angstroms)
    I     Atom           X                Y                Z
 ----------------------------------------------------------------
    1      C       7.3238158449     1.9566415589    -0.1997744853
    2      C       6.4093110751     2.7545265701     0.4672472035
    3      N       6.9985214753     0.8108383812    -0.7905430331
    4      C       5.0914947373     2.3403256657     0.5258670967
    5      C       5.7319547142     0.4240971506    -0.7296720188
    6      C       4.7251810969     1.1481482032    -0.0891704279
    7      C       3.3278181480     0.6837373640    -0.0780940946
    8      C       2.2775647306     1.5348374169    -0.2904706982
    9      C       2.9569666241    -0.6696801308     0.1592876645
   10      N       0.9655443333     1.2008844543    -0.2898213986
   11      N       3.7664962249    -1.6988253265     0.4141113683
   12      C       1.5732975501    -1.0329213929     0.1724478594
   13      C       0.5769552973    -0.0303150426    -0.0631420647
   14      S       2.8198107726    -2.9821199625     0.6405193147
   15      N       1.3702008174    -2.3193214776     0.4395072585
   16      C      -0.8544044697    -0.2782644697    -0.0746791082
   17      S      -1.8568493952     1.1315725165     0.0173626604
   18      C      -1.6448923119    -1.4077576705    -0.1360230199
   19      C      -3.3100244062     0.2237856946    -0.0391677958
   20      S      -1.3776180612    -3.1247119224    -0.2643656833
   21      C      -3.0433832470    -1.1245345646    -0.1355090365
   22      C      -4.6155928278     0.8499944116     0.0004648204
   23      C      -3.0984827445    -3.4082066901    -0.3373223773
   24      C      -3.8548893275    -2.3025607484    -0.2491770894
   25      N      -5.7344816914     0.1859963137    -0.0557289170
   26      S      -4.8272057915     2.5727314446     0.1261368743
   27      C      -6.8078794808     1.0238321743     0.0017287032
   28      C      -6.5256678530     2.3458290187     0.1023131590
   29      H       8.3661871859     2.2472306078    -0.2611141801
   30      H       6.7283418804     3.6735477022     0.9375949265
   31      H       4.3545082629     2.9252327476     1.0604027425
   32      H       5.4942438272    -0.5118081904    -1.2195399260
   33      H       2.4749793301     2.5790045746    -0.5013668397
   34      H      -3.4460321605    -4.4248963737    -0.4286728844
   35      H      -4.9315978222    -2.2815942777    -0.2615658977
   36      H      -7.8024675393     0.6063415674    -0.0337144865
   37      H      -7.2067526338     3.1761066192     0.1635652627
 ----------------------------------------------------------------

    9   -2595.9025896061      4.15E-09 Convergence criterion met
 Total energy in the final basis set = -2595.9025896061
 Final energy is   -2595.90258960614
 **  OPTIMIZATION CONVERGED  **

                    Orbital Energies (a.u.)
 --------------------------------------------------------------

 Alpha MOs
 -- Occupied --
-89.156 -89.092 -89.090 -89.076 -14.494 -14.488 -14.452 -14.445
-14.436 -10.374 -10.372 -10.363 -10.362 -10.344 -10.343 -10.341
-10.340 -10.328 -10.327 -10.327 -10.327 -10.326 -10.323 -10.319
-10.315 -10.314 -10.303 -10.295  -8.166  -8.108  -8.105  -8.090
 -6.116  -6.111  -6.110  -6.057  -6.054  -6.053  -6.051  -6.050
 -6.048  -6.040  -6.036  -6.032  -1.153  -1.083  -1.074  -1.055
 -1.023  -1.015  -0.958  -0.945  -0.912  -0.911  -0.906  -0.884
 -0.862  -0.845  -0.829  -0.807  -0.775  -0.753  -0.745  -0.731
 -0.720  -0.696  -0.689  -0.678  -0.650  -0.642  -0.624  -0.620
 -0.610  -0.602  -0.583  -0.575  -0.569  -0.566  -0.541  -0.536
 -0.527  -0.524  -0.518  -0.514  -0.511  -0.503  -0.497  -0.493
 -0.487  -0.481  -0.478  -0.464  -0.457  -0.447  -0.441  -0.435
 -0.427  -0.422  -0.400  -0.395  -0.383  -0.372  -0.372  -0.369
 -0.366  -0.358  -0.343  -0.337  -0.325  -0.321  -0.267

          Ground-State Mulliken Net Atomic Charges

     Atom                 Charge (a.u.)
  ----------------------------------------
      1 C                    -0.071875
      2 C                    -0.102894
      3 N                    -0.154889
      4 C                    -0.158164
      5 C                    -0.095440
      6 C                     0.109810
      7 C                     0.037601
      8 C                    -0.107527
      9 C                     0.024586
     10 N                    -0.175979
     11 N                    -0.277571
     12 C                     0.032379
     13 C                     0.073366
     14 S                     0.416212
     15 N                    -0.280804
     16 C                    -0.010306
     17 S                     0.123162
     18 C                    -0.036406
     19 C                    -0.017292
     20 S                     0.086459
     21 C                     0.036369
     22 C                     0.035339
     23 C                    -0.162120
     24 C                    -0.166374
     25 N                    -0.185479
     26 S                     0.103554
     27 C                    -0.076443
     28 C                    -0.201702
     29 H                     0.124023
     30 H                     0.129305
     31 H                     0.131762
     32 H                     0.129516
     33 H                     0.134926
     34 H                     0.132704
     35 H                     0.145577
     36 H                     0.129576
     37 H                     0.145040
  ----------------------------------------
  Sum of atomic charges =     0.000000

                    Cartesian Multipole Moments
 -----------------------------------------------------------------
    Charge (ESU x 10^10)
                 0.0000
    Dipole Moment (Debye)
         X      -1.9019      Y       1.2581      Z       1.2201
       Tot       2.5863
    Quadrupole Moments (Debye-Ang)
        XX    -176.3842     XY       3.0591     YY    -164.3336
        XZ       7.0259     YZ       3.5382     ZZ    -189.2720

 Total job time:  9049.83s(wall), 136956.73s(cpu)
        *  Thank you very much for using Q-Chem.  Have a nice day.  *
