 Q-Chem 4.4, Q-Chem, Inc., Pleasanton, CA (2016)
 Q-Chem 4.4.2 for Intel X86 Linux

User input:
--------------------------------------------------------------
$comment
OPTIMIZATION
$end

$rem
JOBTYPE OPT
EXCHANGE omegaB97X-D
BASIS cc-pVTZ
$end

$molecule
0 1
C          0.00000        0.00000        0.00000
C          1.38508        0.00000        0.00000
N         -0.72771       -1.11322        0.00000
C          2.04720       -1.21160       -0.00386
C         -0.08136       -2.27149       -0.00595
C          1.30925       -2.38901       -0.00649
C          1.96927       -3.70493        0.02329
C          3.04486       -3.95576        0.82999
C          1.55200       -4.80802       -0.77739
N          3.72631       -5.12438        0.91627
N          0.54624       -4.84522       -1.65350
C          2.26335       -6.04410       -0.69858
C          3.37925       -6.16090        0.19241
S          0.53898       -6.32692       -2.28381
N          1.78433       -6.98642       -1.50573
C          4.16725       -7.35995        0.35676
S          4.67616       -8.03664        1.86636
C          4.62923       -8.14715       -0.67285
C          5.49127       -9.35027        1.11022
S          4.48811       -8.05997       -2.39557
C          5.37974       -9.27813       -0.26268
C          6.17641      -10.36989        1.87648
C          5.42983       -9.52857       -2.54383
C          5.83391      -10.06353       -1.37805
N          6.78884      -11.38156        1.33162
S          6.25413      -10.35384        3.61697
C          7.34145      -12.19019        2.27974
C          7.16271      -11.80702        3.56744
H         -0.55134        0.93273        0.00000
H          1.92494        0.93597       -0.01293
H          3.12873       -1.25416       -0.02668
H         -0.69553       -3.16348       -0.00579
H          3.41622       -3.17720        1.48423
H          5.62645       -9.92056       -3.52968
H          6.41513      -10.96326       -1.26841
H          7.88130      -13.07458        1.97754
H          7.50632      -12.28872        4.46597
$end

$opt
CONSTRAINT
tors 4 6 7 8 42.24575
tors 10 13 16 17 45.00000
tors 17 19 22 25 179.21698
ENDCONSTRAINT
$end
--------------------------------------------------------------

   16   -2595.8954875364      4.17E-09 Convergence criterion met
 Total energy in the final basis set = -2595.8954875364
   13   -2595.8984863981      8.36E-09 Convergence criterion met
 Total energy in the final basis set = -2595.8984863981
   12   -2595.8991113048      7.21E-09 Convergence criterion met
 Total energy in the final basis set = -2595.8991113048
   11   -2595.8991961639      8.95E-09 Convergence criterion met
 Total energy in the final basis set = -2595.8991961639
   11   -2595.8992337732      7.46E-09 Convergence criterion met
 Total energy in the final basis set = -2595.8992337732
   10   -2595.8992482983      9.31E-09 Convergence criterion met
 Total energy in the final basis set = -2595.8992482983
   10   -2595.8992522268      4.11E-09 Convergence criterion met
 Total energy in the final basis set = -2595.8992522268

             Standard Nuclear Orientation (Angstroms)
    I     Atom           X                Y                Z
 ----------------------------------------------------------------
    1      C      -7.4179287579     1.6686402546    -0.2033398674
    2      C      -6.6707791386     1.9303458148    -1.3398235479
    3      N      -6.9106186146     1.1102753685     0.8914411798
    4      C      -5.3306119890     1.5911442907    -1.3402034946
    5      C      -5.6243966800     0.7890414599     0.8804667144
    6      C      -4.7763168335     1.0080203234    -0.2061120676
    7      C      -3.3461429145     0.6586061939    -0.1538122545
    8      C      -2.3795749957     1.4941451876    -0.6434178116
    9      C      -2.8600058156    -0.5571812991     0.4059857976
   10      N      -1.0441184826     1.2456766171    -0.6759331465
   11      N      -3.5698900614    -1.5366101880     0.9699350374
   12      C      -1.4564243665    -0.8190546760     0.4013436050
   13      C      -0.5632656779     0.1390143750    -0.1755040370
   14      S      -2.5079114205    -2.6493373503     1.4473451999
   15      N      -1.1286417851    -1.9753066602     0.9764205368
   16      C       0.8777473940    -0.0879554355    -0.2447171817
   17      S       1.9384196696     1.2059058122     0.1701511248
   18      C       1.6100379912    -1.2062841579    -0.5486324374
   19      C       3.3536882044     0.2646191695    -0.0840528433
   20      S       1.2281398944    -2.8188980772    -1.0796269121
   21      C       3.0194196800    -1.0113078462    -0.4841862497
   22      C       4.6873071620     0.7968186194     0.1047783091
   23      C       2.9305622135    -3.1891643036    -1.2136367767
   24      C       3.7533822088    -2.1836079532    -0.8706645764
   25      N       5.7691399660     0.0933825490    -0.0691446388
   26      S       4.9881821661     2.4408678940     0.5899866374
   27      C       6.8846254677     0.8365843957     0.1808874981
   28      C       6.6727672191     2.1230235801     0.5499674424
   29      H      -8.4725477983     1.9163001688    -0.1688320370
   30      H      -7.1317991298     2.3794355623    -2.2076767786
   31      H      -4.7194619430     1.7590892226    -2.2172990890
   32      H      -5.2364436219     0.3381122567     1.7850187566
   33      H      -2.6681019974     2.4546721023    -1.0524018919
   34      H       3.2161144879    -4.1758136543    -1.5409400366
   35      H       4.8292275986    -2.2337066573    -0.8826590025
   36      H       7.8562063932     0.3776774574     0.0791396397
   37      H       7.3965138881     2.8810538106     0.7916117912
 ----------------------------------------------------------------

    9   -2595.8992530224      4.58E-09 Convergence criterion met
 Total energy in the final basis set = -2595.8992530224
 Final energy is   -2595.89925302238
 **  OPTIMIZATION CONVERGED  **

                    Orbital Energies (a.u.)
 --------------------------------------------------------------

 Alpha MOs
 -- Occupied --
-89.157 -89.092 -89.091 -89.076 -14.494 -14.489 -14.456 -14.443
-14.438 -10.373 -10.371 -10.364 -10.361 -10.342 -10.342 -10.341
-10.336 -10.331 -10.329 -10.328 -10.326 -10.326 -10.325 -10.321
-10.317 -10.314 -10.305 -10.296  -8.167  -8.107  -8.106  -8.091
 -6.117  -6.112  -6.111  -6.057  -6.055  -6.053  -6.052  -6.050
 -6.049  -6.041  -6.037  -6.033  -1.154  -1.082  -1.075  -1.057
 -1.024  -1.016  -0.959  -0.947  -0.913  -0.910  -0.906  -0.885
 -0.862  -0.845  -0.829  -0.807  -0.776  -0.755  -0.746  -0.732
 -0.720  -0.696  -0.688  -0.679  -0.649  -0.641  -0.626  -0.622
 -0.610  -0.602  -0.582  -0.579  -0.571  -0.566  -0.542  -0.534
 -0.528  -0.524  -0.518  -0.514  -0.510  -0.504  -0.499  -0.497
 -0.485  -0.481  -0.476  -0.465  -0.456  -0.446  -0.435  -0.435
 -0.428  -0.425  -0.408  -0.393  -0.384  -0.372  -0.370  -0.368
 -0.367  -0.360  -0.345  -0.336  -0.324  -0.322  -0.271

          Ground-State Mulliken Net Atomic Charges

     Atom                 Charge (a.u.)
  ----------------------------------------
      1 C                    -0.070442
      2 C                    -0.102183
      3 N                    -0.154753
      4 C                    -0.157540
      5 C                    -0.092967
      6 C                     0.108831
      7 C                     0.041195
      8 C                    -0.106549
      9 C                     0.035107
     10 N                    -0.163441
     11 N                    -0.280649
     12 C                    -0.001178
     13 C                     0.032609
     14 S                     0.421549
     15 N                    -0.255616
     16 C                     0.026385
     17 S                     0.132722
     18 C                    -0.039327
     19 C                    -0.033369
     20 S                     0.067565
     21 C                     0.040761
     22 C                     0.034855
     23 C                    -0.150277
     24 C                    -0.168103
     25 N                    -0.186701
     26 S                     0.099901
     27 C                    -0.077570
     28 C                    -0.201824
     29 H                     0.124618
     30 H                     0.129022
     31 H                     0.133137
     32 H                     0.128126
     33 H                     0.135913
     34 H                     0.132166
     35 H                     0.145498
     36 H                     0.128944
     37 H                     0.143584
  ----------------------------------------
  Sum of atomic charges =     0.000000

                    Cartesian Multipole Moments
 -----------------------------------------------------------------
    Charge (ESU x 10^10)
                 0.0000
    Dipole Moment (Debye)
         X       1.2691      Y       0.3555      Z      -1.0824
       Tot       1.7055
    Quadrupole Moments (Debye-Ang)
        XX    -171.5593     XY       0.6100     YY    -172.3618
        XZ      14.4310     YZ      -1.2971     ZZ    -184.7129

 Total job time:  7078.54s(wall), 106886.39s(cpu)
        *  Thank you very much for using Q-Chem.  Have a nice day.  *
