 Q-Chem 4.4, Q-Chem, Inc., Pleasanton, CA (2016)
 Q-Chem 4.4.2 for Intel X86 Linux

User input:
--------------------------------------------------------------
$comment
OPTIMIZATION
$end

$rem
JOBTYPE OPT
EXCHANGE omegaB97X-D
BASIS cc-pVTZ
$end

$molecule
0 1
C          0.00000        0.00000        0.00000
C          1.38508        0.00000        0.00000
N         -0.72771       -1.11322        0.00000
C          2.04720       -1.21160       -0.00386
C         -0.08136       -2.27149       -0.00595
C          1.30925       -2.38901       -0.00649
C          1.96927       -3.70493        0.02329
C          3.04486       -3.95576        0.82999
C          1.55200       -4.80802       -0.77739
N          3.72631       -5.12438        0.91627
N          0.54624       -4.84522       -1.65350
C          2.26335       -6.04410       -0.69858
C          3.37925       -6.16090        0.19241
S          0.53898       -6.32692       -2.28381
N          1.78433       -6.98642       -1.50573
C          4.16725       -7.35995        0.35676
S          5.75926       -7.61787       -0.27156
C          3.76371       -8.48038        1.04597
C          5.86480       -9.20371        0.38857
S          2.32146       -8.89391        1.90863
C          4.71381       -9.53258        1.07383
C          7.04290      -10.02779        0.21782
C          3.00396      -10.45992        2.29258
C          4.23998      -10.67433        1.80804
N          7.15542      -11.22478        0.71779
S          8.44299       -9.50391       -0.67711
C          8.36573      -11.77291        0.41299
C          9.19850      -11.00324       -0.32934
H         -0.55134        0.93273        0.00000
H          1.92494        0.93597       -0.01293
H          3.12873       -1.25416       -0.02668
H         -0.69553       -3.16348       -0.00579
H          3.41622       -3.17720        1.48423
H          2.42053      -11.14836        2.88407
H          4.82071      -11.57075        1.94425
H          8.60527      -12.76519        0.76358
H         10.18975      -11.23057       -0.68031
$end

$opt
CONSTRAINT
tors 4 6 7 8 42.24575
tors 10 13 16 17 -75.00000
tors 17 19 22 25 179.21698
ENDCONSTRAINT
$end
--------------------------------------------------------------

   16   -2595.8915780760      5.28E-09 Convergence criterion met
 Total energy in the final basis set = -2595.8915780760
   13   -2595.8938694028      4.32E-09 Convergence criterion met
 Total energy in the final basis set = -2595.8938694028
   12   -2595.8942596634      8.09E-09 Convergence criterion met
 Total energy in the final basis set = -2595.8942596634
   11   -2595.8943438598      8.11E-09 Convergence criterion met
 Total energy in the final basis set = -2595.8943438598
   11   -2595.8943958390      8.32E-09 Convergence criterion met
 Total energy in the final basis set = -2595.8943958390
   11   -2595.8944222453      9.06E-09 Convergence criterion met
 Total energy in the final basis set = -2595.8944222453
   10   -2595.8944275622      7.56E-09 Convergence criterion met
 Total energy in the final basis set = -2595.8944275622
   10   -2595.8944294309      5.29E-09 Convergence criterion met
 Total energy in the final basis set = -2595.8944294309

             Standard Nuclear Orientation (Angstroms)
    I     Atom           X                Y                Z
 ----------------------------------------------------------------
    1      C       7.5153167902     1.1529336231    -0.5420606636
    2      C       6.6931173135     2.2557971713    -0.7029261267
    3      N       7.0551515989    -0.0749882153    -0.3229130359
    4      C       5.3245022134     2.0739869938    -0.6346729845
    5      C       5.7412050020    -0.2378511518    -0.2565429085
    6      C       4.8191971581     0.7979650484    -0.4120033144
    7      C       3.3675054662     0.5507581522    -0.3626140662
    8      C       2.5054707472     1.1317926870    -1.2515719314
    9      C       2.7568714243    -0.3004503801     0.6029738027
   10      N       1.1535021143     0.9694700728    -1.2850458341
   11      N       3.3497520701    -0.9794811043     1.5881956945
   12      C       1.3406420173    -0.4683011258     0.5842134904
   13      C       0.5656626492     0.2105267793    -0.4057914405
   14      S       2.1723464959    -1.7427707659     2.3786434730
   15      N       0.8824421655    -1.2668366475     1.5493875855
   16      C      -0.8915159158     0.0104769757    -0.4697083695
   17      S      -1.9845337379     1.2403393973     0.0294283818
   18      C      -1.5851815579    -1.1235650772    -0.7720087094
   19      C      -3.3731249945     0.2455357741    -0.1980739850
   20      S      -1.1293045347    -2.7144614543    -1.3119808281
   21      C      -2.9975538662    -1.0034602697    -0.6392175611
   22      C      -4.7196155239     0.7183177990     0.0465274889
   23      C      -2.8146938162    -3.1829171443    -1.3553636897
   24      C      -3.6781462368    -2.2195254186    -0.9900217546
   25      N      -5.7790338670    -0.0162836952    -0.1348168802
   26      S      -5.0676826853     2.3283223391     0.6086539564
   27      C      -6.9147322650     0.6751774653     0.1706120941
   28      C      -6.7411025341     1.9516672554     0.5893591682
   29      H       8.5929809254     1.2593289241    -0.5876116280
   30      H       7.1182045674     3.2355818520    -0.8673607712
   31      H       4.6513154570     2.9150635855    -0.7364432858
   32      H       5.3939187796    -1.2472934784    -0.0748279730
   33      H       2.8975360669     1.7722051394    -2.0317801226
   34      H      -3.0587686714    -4.1874195467    -1.6611539580
   35      H      -4.7490991523    -2.3316837630    -0.9576674529
   36      H      -7.8716285985     0.1861982982     0.0698975502
   37      H      -7.4849732315     2.6739050034     0.8753685367
 ----------------------------------------------------------------

    9   -2595.8944298109      5.01E-09 Convergence criterion met
 Total energy in the final basis set = -2595.8944298109
 Final energy is   -2595.89442981092
 **  OPTIMIZATION CONVERGED  **

                    Orbital Energies (a.u.)
 --------------------------------------------------------------

 Alpha MOs
 -- Occupied --
-89.159 -89.093 -89.089 -89.076 -14.495 -14.491 -14.460 -14.441
-14.439 -10.372 -10.371 -10.366 -10.361 -10.343 -10.341 -10.339
-10.335 -10.333 -10.331 -10.330 -10.327 -10.325 -10.324 -10.322
-10.319 -10.313 -10.306 -10.297  -8.169  -8.108  -8.105  -8.091
 -6.119  -6.113  -6.113  -6.057  -6.054  -6.053  -6.051  -6.050
 -6.048  -6.040  -6.037  -6.032  -1.155  -1.080  -1.076  -1.058
 -1.024  -1.017  -0.958  -0.949  -0.914  -0.909  -0.906  -0.886
 -0.863  -0.845  -0.829  -0.807  -0.776  -0.756  -0.747  -0.733
 -0.721  -0.696  -0.687  -0.679  -0.648  -0.641  -0.627  -0.624
 -0.610  -0.602  -0.587  -0.578  -0.571  -0.568  -0.542  -0.531
 -0.528  -0.523  -0.519  -0.514  -0.510  -0.506  -0.501  -0.499
 -0.484  -0.482  -0.475  -0.467  -0.455  -0.443  -0.435  -0.435
 -0.431  -0.424  -0.410  -0.390  -0.386  -0.374  -0.369  -0.368
 -0.366  -0.362  -0.346  -0.336  -0.324  -0.322  -0.273

          Ground-State Mulliken Net Atomic Charges

     Atom                 Charge (a.u.)
  ----------------------------------------
      1 C                    -0.068973
      2 C                    -0.102936
      3 N                    -0.154569
      4 C                    -0.156013
      5 C                    -0.094584
      6 C                     0.109141
      7 C                     0.046747
      8 C                    -0.106608
      9 C                     0.030492
     10 N                    -0.141759
     11 N                    -0.281370
     12 C                     0.006420
     13 C                    -0.023748
     14 S                     0.423389
     15 N                    -0.239033
     16 C                     0.041389
     17 S                     0.128490
     18 C                    -0.027852
     19 C                    -0.039857
     20 S                     0.056116
     21 C                     0.037018
     22 C                     0.039487
     23 C                    -0.147564
     24 C                    -0.165506
     25 N                    -0.188199
     26 S                     0.094926
     27 C                    -0.077303
     28 C                    -0.203457
     29 H                     0.124809
     30 H                     0.130721
     31 H                     0.132836
     32 H                     0.131387
     33 H                     0.136704
     34 H                     0.132558
     35 H                     0.144890
     36 H                     0.128548
     37 H                     0.143263
  ----------------------------------------
  Sum of atomic charges =     0.000000

                    Cartesian Multipole Moments
 -----------------------------------------------------------------
    Charge (ESU x 10^10)
                 0.0000
    Dipole Moment (Debye)
         X      -0.9179      Y       1.6676      Z       0.8030
       Tot       2.0659
    Quadrupole Moments (Debye-Ang)
        XX    -172.5656     XY       9.7803     YY    -169.1403
        XZ      -4.8099     YZ       0.9825     ZZ    -187.2305

 Total job time:  7799.22s(wall), 117827.18s(cpu)
        *  Thank you very much for using Q-Chem.  Have a nice day.  *
