 Q-Chem 4.4, Q-Chem, Inc., Pleasanton, CA (2016)
 Q-Chem 4.4.2 for Intel X86 Linux

User input:
--------------------------------------------------------------
$comment
OPTIMIZATION
$end

$rem
JOBTYPE OPT
EXCHANGE omegaB97X-D
BASIS cc-pVTZ
$end

$molecule
0 1
C          0.00000        0.00000        0.00000
C          1.38508        0.00000        0.00000
N         -0.72771       -1.11322        0.00000
C          2.04720       -1.21160       -0.00386
C         -0.08136       -2.27149       -0.00595
C          1.30925       -2.38901       -0.00649
C          1.96927       -3.70493        0.02329
C          3.04486       -3.95576        0.82999
C          1.55200       -4.80802       -0.77739
N          3.72631       -5.12438        0.91627
N          0.54624       -4.84522       -1.65350
C          2.26335       -6.04410       -0.69858
C          3.37925       -6.16090        0.19241
S          0.53898       -6.32692       -2.28381
N          1.78433       -6.98642       -1.50573
C          4.16725       -7.35995        0.35676
S          5.89541       -7.43380        0.41856
C          3.65305       -8.62896        0.49245
C          5.90895       -9.14249        0.62351
S          2.04420       -9.26608        0.52274
C          4.62616       -9.64893        0.64521
C          7.14258       -9.88799        0.75981
C          2.69044      -10.87911        0.73750
C          4.03250      -10.95096        0.78465
N          7.18188      -11.17832        0.92990
S          8.71340       -9.13575        0.71239
C          8.46677      -11.62121        1.03531
C          9.43266      -10.67482        0.94402
H         -0.55134        0.93273        0.00000
H          1.92494        0.93597       -0.01293
H          3.12873       -1.25416       -0.02668
H         -0.69553       -3.16348       -0.00579
H          3.41622       -3.17720        1.48423
H          2.00223      -11.70554        0.82462
H          4.60858      -11.85116        0.91554
H          8.65783      -12.67319        1.18282
H         10.50016      -10.79625        1.00006
$end

$opt
CONSTRAINT
tors 4 6 7 8 42.24575
tors 10 13 16 17 -45.00000
tors 17 19 22 25 179.21698
ENDCONSTRAINT
$end
--------------------------------------------------------------

   16   -2595.8955317364      4.58E-09 Convergence criterion met
 Total energy in the final basis set = -2595.8955317364
   13   -2595.8984450335      8.39E-09 Convergence criterion met
 Total energy in the final basis set = -2595.8984450335
   12   -2595.8990211637      7.21E-09 Convergence criterion met
 Total energy in the final basis set = -2595.8990211637
   11   -2595.8990959635      6.84E-09 Convergence criterion met
 Total energy in the final basis set = -2595.8990959635
   11   -2595.8991315212      6.47E-09 Convergence criterion met
 Total energy in the final basis set = -2595.8991315212
   10   -2595.8991444260      8.13E-09 Convergence criterion met
 Total energy in the final basis set = -2595.8991444260
   10   -2595.8991480479      4.02E-09 Convergence criterion met
 Total energy in the final basis set = -2595.8991480479

             Standard Nuclear Orientation (Angstroms)
    I     Atom           X                Y                Z
 ----------------------------------------------------------------
    1      C       7.4241096867     1.6265479457    -0.3518798652
    2      C       6.5289405467     2.6369449608    -0.0423066513
    3      N       7.0548943857     0.3710147519    -0.5872158147
    4      C       5.1832967782     2.3279514547     0.0257776194
    5      C       5.7618703911     0.0856565460    -0.5193481231
    6      C       4.7718554191     1.0238112876    -0.2248382758
    7      C       3.3456347663     0.6568241067    -0.1926247266
    8      C       2.3807646534     1.4540196695    -0.7452648351
    9      C       2.8620661636    -0.5371663065     0.4140277332
   10      N       1.0455895719     1.2030643662    -0.7655712641
   11      N       3.5700735918    -1.4707844304     1.0532793562
   12      C       1.4597954265    -0.8058835791     0.4124296735
   13      C       0.5658428484     0.1218889203    -0.2110238285
   14      S       2.5089236092    -2.5595960567     1.5843704917
   15      N       1.1317140870    -1.9256391397     1.0559054489
   16      C      -0.8754734360    -0.1073882045    -0.2657306795
   17      S      -1.9344995707     1.2056174194     0.0888178136
   18      C      -1.6092456343    -1.2381161629    -0.5144276247
   19      C      -3.3510710368     0.2539368594    -0.1151305506
   20      S      -1.2288918417    -2.8739493350    -0.9695678060
   21      C      -3.0184899016    -1.0396268057    -0.4554549613
   22      C      -4.6836009136     0.7957781256     0.0525873671
   23      C      -2.9317861220    -3.2501364690    -1.0797302939
   24      C      -3.7535693201    -2.2290196738    -0.7833971097
   25      N      -5.7674338316     0.0933589487    -0.1123503250
   26      S      -4.9801863998     2.4514088018     0.4997481660
   27      C      -6.8811837335     0.8468532873     0.1137918486
   28      C      -6.6659160248     2.1404212261     0.4547901040
   29      H       8.4867331241     1.8314235069    -0.4115456567
   30      H       6.8804745050     3.6403475516     0.1507703016
   31      H       4.4562568734     3.0862050024     0.2851270368
   32      H       5.4896824162    -0.9439879290    -0.7156724711
   33      H       2.6724583408     2.3701953066    -1.2437970912
   34      H      -3.2170762622    -4.2515494540    -1.3589785411
   35      H      -4.8294737009    -2.2790097140    -0.7907584024
   36      H      -7.8541032149     0.3899962360     0.0157875764
   37      H      -7.3879257487     2.9065665593     0.6751798430
 ----------------------------------------------------------------

    8   -2595.8991487690      9.66E-09 Convergence criterion met
 Total energy in the final basis set = -2595.8991487690
 Final energy is   -2595.89914876897
 **  OPTIMIZATION CONVERGED  **

                    Orbital Energies (a.u.)
 --------------------------------------------------------------

 Alpha MOs
 -- Occupied --
-89.157 -89.093 -89.091 -89.076 -14.494 -14.489 -14.456 -14.443
-14.438 -10.373 -10.371 -10.364 -10.361 -10.342 -10.342 -10.341
-10.336 -10.331 -10.329 -10.328 -10.326 -10.326 -10.325 -10.321
-10.317 -10.314 -10.305 -10.296  -8.167  -8.107  -8.106  -8.091
 -6.117  -6.112  -6.111  -6.057  -6.055  -6.053  -6.052  -6.050
 -6.049  -6.040  -6.037  -6.032  -1.154  -1.082  -1.075  -1.057
 -1.024  -1.016  -0.958  -0.947  -0.913  -0.910  -0.907  -0.885
 -0.862  -0.846  -0.829  -0.807  -0.776  -0.755  -0.746  -0.732
 -0.720  -0.696  -0.688  -0.679  -0.649  -0.641  -0.626  -0.622
 -0.610  -0.602  -0.585  -0.576  -0.570  -0.567  -0.541  -0.534
 -0.528  -0.524  -0.518  -0.514  -0.510  -0.505  -0.499  -0.497
 -0.484  -0.481  -0.476  -0.466  -0.456  -0.446  -0.437  -0.435
 -0.426  -0.425  -0.408  -0.393  -0.384  -0.372  -0.370  -0.368
 -0.367  -0.360  -0.345  -0.336  -0.324  -0.321  -0.271

          Ground-State Mulliken Net Atomic Charges

     Atom                 Charge (a.u.)
  ----------------------------------------
      1 C                    -0.069765
      2 C                    -0.103759
      3 N                    -0.154871
      4 C                    -0.155252
      5 C                    -0.095004
      6 C                     0.107131
      7 C                     0.046453
      8 C                    -0.106443
      9 C                     0.030064
     10 N                    -0.164122
     11 N                    -0.279030
     12 C                    -0.003690
     13 C                     0.033942
     14 S                     0.421713
     15 N                    -0.254876
     16 C                     0.026571
     17 S                     0.131024
     18 C                    -0.038747
     19 C                    -0.033380
     20 S                     0.068298
     21 C                     0.040547
     22 C                     0.035628
     23 C                    -0.150064
     24 C                    -0.168577
     25 N                    -0.186606
     26 S                     0.099066
     27 C                    -0.077411
     28 C                    -0.201873
     29 H                     0.124313
     30 H                     0.130579
     31 H                     0.130832
     32 H                     0.130506
     33 H                     0.136289
     34 H                     0.132331
     35 H                     0.145659
     36 H                     0.128989
     37 H                     0.143536
  ----------------------------------------
  Sum of atomic charges =     0.000000

                    Cartesian Multipole Moments
 -----------------------------------------------------------------
    Charge (ESU x 10^10)
                 0.0000
    Dipole Moment (Debye)
         X      -1.4682      Y       1.4836      Z       1.1166
       Tot       2.3672
    Quadrupole Moments (Debye-Ang)
        XX    -174.8183     XY       7.1637     YY    -165.7899
        XZ       1.8593     YZ       3.1320     ZZ    -188.7085

 Total job time:  7017.08s(wall), 106087.09s(cpu)
        *  Thank you very much for using Q-Chem.  Have a nice day.  *
