 Q-Chem 4.4, Q-Chem, Inc., Pleasanton, CA (2016)
 Q-Chem 4.4.2 for Intel X86 Linux

User input:
--------------------------------------------------------------
$comment
OPTIMIZATION
$end

$rem
JOBTYPE OPT
EXCHANGE omegaB97X-D
BASIS cc-pVTZ
$end

$molecule
0 1
C          0.00000        0.00000        0.00000
C          1.38508        0.00000        0.00000
N         -0.72771       -1.11322        0.00000
C          2.04720       -1.21160       -0.00386
C         -0.08136       -2.27149       -0.00595
C          1.30925       -2.38901       -0.00649
C          1.96927       -3.70493        0.02329
C          3.04486       -3.95576        0.82999
C          1.55200       -4.80802       -0.77739
N          3.72631       -5.12438        0.91627
N          0.54624       -4.84522       -1.65350
C          2.26335       -6.04410       -0.69858
C          3.37925       -6.16090        0.19241
S          0.53898       -6.32692       -2.28381
N          1.78433       -6.98642       -1.50573
C          4.16725       -7.35995        0.35676
S          4.16804       -8.72359       -0.70919
C          5.04220       -7.59261        1.39288
C          5.32647       -9.57876        0.23341
S          5.52289       -6.67098        2.77664
C          5.70686       -8.84389        1.33695
C          5.80440      -10.89162       -0.14626
C          6.59992       -7.96411        3.25978
C          6.60826       -9.03112        2.44129
N          6.69009      -11.55496        0.54000
S          5.24494      -11.72786       -1.56869
C          6.96437      -12.75634       -0.04279
C          6.28880      -13.03273       -1.18479
H         -0.55134        0.93273        0.00000
H          1.92494        0.93597       -0.01293
H          3.12873       -1.25416       -0.02668
H         -0.69553       -3.16348       -0.00579
H          3.41622       -3.17720        1.48423
H          7.18757       -7.84111        4.15630
H          7.20679       -9.91676        2.57079
H          7.68514      -13.41795        0.41293
H          6.34784      -13.90964       -1.80526
$end

$opt
CONSTRAINT
tors 4 6 7 8 42.24575
tors 10 13 16 17 -165.00000
tors 17 19 22 25 179.21698
ENDCONSTRAINT
$end
--------------------------------------------------------------

   16   -2595.9052486179      5.04E-09 Convergence criterion met
 Total energy in the final basis set = -2595.9052486179
   12   -2595.9056164424      7.87E-09 Convergence criterion met
 Total energy in the final basis set = -2595.9056164424
   12   -2595.9057455520      5.36E-09 Convergence criterion met
 Total energy in the final basis set = -2595.9057455520
   12   -2595.9057984324      5.40E-09 Convergence criterion met
 Total energy in the final basis set = -2595.9057984324
   11   -2595.9058105081      5.41E-09 Convergence criterion met
 Total energy in the final basis set = -2595.9058105081
    9   -2595.9058135663      6.56E-09 Convergence criterion met
 Total energy in the final basis set = -2595.9058135663

             Standard Nuclear Orientation (Angstroms)
    I     Atom           X                Y                Z
 ----------------------------------------------------------------
    1      C      -7.6068262245     0.3714771844    -0.2408627515
    2      C      -6.8863530398     1.1739126957    -1.1097972952
    3      N      -7.0369599511    -0.4482486207     0.6374463162
    4      C      -5.5056809012     1.1218894174    -1.0652220136
    5      C      -5.7122408375    -0.4893705731     0.6728028480
    6      C      -4.8861180878     0.2784466998    -0.1494948938
    7      C      -3.4182426492     0.2115735073    -0.0494930729
    8      C      -2.6379786216     1.3349983301    -0.0935457199
    9      C      -2.6994963051    -1.0097050014     0.1015190729
   10      N      -1.2835350609     1.3751918074    -0.0398634729
   11      N      -3.1964704592    -2.2458256908     0.1698824639
   12      C      -1.2738212464    -0.9805016018     0.1779898274
   13      C      -0.5864303829     0.2750309895     0.0997905279
   14      S      -1.9375498172    -3.2390837282     0.3223543773
   15      N      -0.7222732950    -2.1842997026     0.3067582803
   16      C       0.8532608921     0.4054493726     0.1377284067
   17      S       1.9698338780    -0.9009448983    -0.0555509656
   18      C       1.5475156408     1.5908597701     0.2072080690
   19      C       3.3406573014     0.1358903178    -0.0045918037
   20      S       1.0728538321     3.2487574808     0.3519223898
   21      C       2.9584513586     1.4527539044     0.1469033277
   22      C       4.6931725449    -0.3706323833    -0.1083977117
   23      C       2.7564106911     3.7284695408     0.3699005684
   24      C       3.6337378733     2.7161854704     0.2507045163
   25      N       5.7462870319     0.3952390666    -0.0873061871
   26      S       5.0588280931    -2.0638014077    -0.2769766159
   27      C       6.8895735028    -0.3370168144    -0.2065909326
   28      C       6.7281739563    -1.6779669081    -0.3211809949
   29      H      -8.6905568453     0.3831859955    -0.2515246311
   30      H      -7.3991584680     1.8163060486    -1.8111582536
   31      H      -4.9088500831     1.7185765618    -1.7424965004
   32      H      -5.2756078872    -1.1659845835     1.3964670444
   33      H      -3.1118693230     2.3057481995    -0.1745307238
   34      H       2.9920748995     4.7768259025     0.4611902577
   35      H       4.7054245920     2.8218735665     0.2293025668
   36      H       7.8419942981     0.1704038399    -0.2054406637
   37      H       7.4802837249    -2.4390180742    -0.4320384468
 ----------------------------------------------------------------

    8   -2595.9058139982      7.19E-09 Convergence criterion met
 Total energy in the final basis set = -2595.9058139982
 Final energy is   -2595.90581399821
 **  OPTIMIZATION CONVERGED  **

                    Orbital Energies (a.u.)
 --------------------------------------------------------------

 Alpha MOs
 -- Occupied --
-89.156 -89.094 -89.093 -89.075 -14.495 -14.489 -14.453 -14.445
-14.436 -10.375 -10.370 -10.363 -10.360 -10.345 -10.341 -10.340
-10.334 -10.329 -10.327 -10.327 -10.327 -10.326 -10.323 -10.319
-10.315 -10.314 -10.303 -10.296  -8.166  -8.109  -8.108  -8.089
 -6.116  -6.111  -6.110  -6.058  -6.057  -6.054  -6.054  -6.052
 -6.051  -6.039  -6.035  -6.031  -1.153  -1.084  -1.073  -1.055
 -1.024  -1.016  -0.957  -0.946  -0.912  -0.911  -0.907  -0.884
 -0.862  -0.845  -0.829  -0.807  -0.776  -0.753  -0.745  -0.728
 -0.724  -0.695  -0.689  -0.679  -0.648  -0.641  -0.623  -0.621
 -0.609  -0.596  -0.584  -0.577  -0.570  -0.568  -0.541  -0.536
 -0.526  -0.523  -0.518  -0.515  -0.512  -0.503  -0.497  -0.492
 -0.489  -0.481  -0.477  -0.463  -0.458  -0.448  -0.437  -0.433
 -0.430  -0.423  -0.403  -0.397  -0.383  -0.373  -0.371  -0.370
 -0.364  -0.358  -0.343  -0.337  -0.327  -0.319  -0.268

          Ground-State Mulliken Net Atomic Charges

     Atom                 Charge (a.u.)
  ----------------------------------------
      1 C                    -0.072142
      2 C                    -0.102874
      3 N                    -0.155072
      4 C                    -0.156992
      5 C                    -0.095608
      6 C                     0.109356
      7 C                     0.032016
      8 C                    -0.094167
      9 C                     0.024571
     10 N                    -0.180837
     11 N                    -0.277222
     12 C                     0.025127
     13 C                     0.107558
     14 S                     0.413807
     15 N                    -0.282247
     16 C                    -0.053121
     17 S                     0.131170
     18 C                    -0.012403
     19 C                    -0.024517
     20 S                     0.089645
     21 C                     0.026811
     22 C                     0.037473
     23 C                    -0.161810
     24 C                    -0.161613
     25 N                    -0.183542
     26 S                     0.100731
     27 C                    -0.075308
     28 C                    -0.202314
     29 H                     0.124114
     30 H                     0.129208
     31 H                     0.131299
     32 H                     0.129054
     33 H                     0.131766
     34 H                     0.131344
     35 H                     0.142774
     36 H                     0.129136
     37 H                     0.144830
  ----------------------------------------
  Sum of atomic charges =     0.000000

                    Cartesian Multipole Moments
 -----------------------------------------------------------------
    Charge (ESU x 10^10)
                 0.0000
    Dipole Moment (Debye)
         X       1.9124      Y      -0.0291      Z      -1.4093
       Tot       2.3758
    Quadrupole Moments (Debye-Ang)
        XX    -170.7005     XY     -15.2915     YY    -171.8652
        XZ       9.1710     YZ      -1.3606     ZZ    -187.2925

 Total job time:  6271.47s(wall), 94811.83s(cpu)
        *  Thank you very much for using Q-Chem.  Have a nice day.  *
