 Q-Chem 4.4, Q-Chem, Inc., Pleasanton, CA (2016)
 Q-Chem 4.4.2 for Intel X86 Linux

User input:
--------------------------------------------------------------
$comment
OPTIMIZATION
$end

$rem
JOBTYPE OPT
EXCHANGE omegaB97X-D
BASIS cc-pVTZ
$end

$molecule
0 1
C          0.00000        0.00000        0.00000
C          1.38508        0.00000        0.00000
N         -0.72771       -1.11322        0.00000
C          2.04720       -1.21160       -0.00386
C         -0.08136       -2.27149       -0.00595
C          1.30925       -2.38901       -0.00649
C          1.96927       -3.70493        0.02329
C          3.04486       -3.95576        0.82999
C          1.55200       -4.80802       -0.77739
N          3.72631       -5.12438        0.91627
N          0.54624       -4.84522       -1.65350
C          2.26335       -6.04410       -0.69858
C          3.37925       -6.16090        0.19241
S          0.53898       -6.32692       -2.28381
N          1.78433       -6.98642       -1.50573
C          4.16725       -7.35995        0.35676
S          3.91759       -8.85630       -0.47654
C          5.24284       -7.48644        1.20548
C          5.24086       -9.62433        0.31140
S          6.02523       -6.40518        2.30730
C          5.86192       -8.76203        1.19074
C          5.60656      -10.99715        0.03244
C          7.16320       -7.66629        2.73181
C          6.97878       -8.83533        2.09320
N          6.61068      -11.59852        0.60298
S          4.74009      -11.99572       -1.10233
C          6.73509      -12.87992        0.15496
C          5.82399      -13.28065       -0.76496
H         -0.55134        0.93273        0.00000
H          1.92494        0.93597       -0.01293
H          3.12873       -1.25416       -0.02668
H         -0.69553       -3.16348       -0.00579
H          3.41622       -3.17720        1.48423
H          7.93306       -7.44725        3.45538
H          7.57866       -9.72060        2.21891
H          7.52823      -13.50399        0.53756
H          5.73469      -14.23656       -1.25046
$end

$opt
CONSTRAINT
tors 4 6 7 8 42.24575
tors 10 13 16 17 180.00000
tors 17 19 22 25 179.21698
ENDCONSTRAINT
$end
--------------------------------------------------------------

   16   -2595.9066839599      4.79E-09 Convergence criterion met
 Total energy in the final basis set = -2595.9066839599
   11   -2595.9067701020      8.62E-09 Convergence criterion met
 Total energy in the final basis set = -2595.9067701020
   10   -2595.9067860642      6.37E-09 Convergence criterion met
 Total energy in the final basis set = -2595.9067860642
    9   -2595.9067879749      6.56E-09 Convergence criterion met
 Total energy in the final basis set = -2595.9067879749

             Standard Nuclear Orientation (Angstroms)
    I     Atom           X                Y                Z
 ----------------------------------------------------------------
    1      C       7.6119863476     0.3811944638    -0.0648752644
    2      C       6.9387499257     1.2737727424     0.7523820998
    3      N       6.9964920161    -0.5261409181    -0.8171413717
    4      C       5.5578586387     1.2201154113     0.7915993657
    5      C       5.6721939052    -0.5681989769    -0.7723966572
    6      C       4.8906804697     0.2833693719     0.0100150917
    7      C       3.4197533587     0.2126505710    -0.0048263077
    8      C       2.6410315341     1.3374183298    -0.0455693766
    9      C       2.6956780360    -1.0143841443     0.0240008403
   10      N       1.2858483721     1.3765922273    -0.0468874183
   11      N       3.1906950026    -2.2522479633     0.0744075986
   12      C       1.2680166945    -0.9881926841     0.0223943575
   13      C       0.5832440223     0.2706773749    -0.0136748526
   14      S       1.9273941348    -3.2512533939     0.1080535617
   15      N       0.7129928845    -2.1961644971     0.0668668839
   16      C      -0.8548431426     0.4062422668    -0.0162350952
   17      S      -1.9792950977    -0.9074894593     0.0235067270
   18      C      -1.5442340206     1.5961234441    -0.0522898067
   19      C      -3.3455660907     0.1368377007    -0.0071615918
   20      S      -1.0604473377     3.2561262583    -0.1040391253
   21      C      -2.9564596990     1.4598589844    -0.0473399524
   22      C      -4.7016580585    -0.3704866478     0.0133639046
   23      C      -2.7422289246     3.7441553271    -0.1188493573
   24      C      -3.6253055855     2.7303187559    -0.0866535706
   25      N      -5.7530981727     0.3979756841     0.0058058412
   26      S      -5.0741905831    -2.0703727746     0.0529722820
   27      C      -6.9002190019    -0.3374261137     0.0321297295
   28      C      -6.7436776824    -1.6835784049     0.0604798599
   29      H       8.6945261410     0.3918412315    -0.1175440881
   30      H       7.4874411686     1.9853484553     1.3524442313
   31      H       4.9971572026     1.8853437829     1.4350661504
   32      H       5.1968758686    -1.3159230427    -1.3947091521
   33      H       3.1173286285     2.3091303694    -0.0940773350
   34      H      -2.9731520876     4.7970378539    -0.1530951778
   35      H      -4.6966823615     2.8403281977    -0.0895999998
   36      H      -7.8516213493     0.1718933489     0.0301678035
   37      H      -7.4997598427    -2.4482299246     0.0873273655
 ----------------------------------------------------------------

    9   -2595.9067885929      3.25E-09 Convergence criterion met
 Total energy in the final basis set = -2595.9067885929
 Final energy is   -2595.90678859294
 **  OPTIMIZATION CONVERGED  **

                    Orbital Energies (a.u.)
 --------------------------------------------------------------

 Alpha MOs
 -- Occupied --
-89.156 -89.094 -89.093 -89.075 -14.495 -14.489 -14.452 -14.445
-14.436 -10.375 -10.370 -10.363 -10.360 -10.345 -10.341 -10.340
-10.334 -10.329 -10.328 -10.327 -10.327 -10.326 -10.322 -10.318
-10.315 -10.314 -10.303 -10.296  -8.166  -8.109  -8.108  -8.089
 -6.116  -6.111  -6.110  -6.058  -6.057  -6.054  -6.054  -6.052
 -6.051  -6.039  -6.035  -6.032  -1.153  -1.084  -1.073  -1.055
 -1.024  -1.016  -0.957  -0.946  -0.912  -0.911  -0.907  -0.884
 -0.862  -0.845  -0.829  -0.808  -0.776  -0.753  -0.745  -0.728
 -0.724  -0.695  -0.689  -0.679  -0.648  -0.641  -0.623  -0.621
 -0.609  -0.595  -0.584  -0.577  -0.570  -0.568  -0.541  -0.537
 -0.526  -0.523  -0.518  -0.514  -0.512  -0.503  -0.496  -0.491
 -0.489  -0.481  -0.477  -0.463  -0.458  -0.449  -0.437  -0.433
 -0.430  -0.423  -0.403  -0.397  -0.383  -0.373  -0.371  -0.370
 -0.364  -0.358  -0.342  -0.337  -0.327  -0.319  -0.268

          Ground-State Mulliken Net Atomic Charges

     Atom                 Charge (a.u.)
  ----------------------------------------
      1 C                    -0.071819
      2 C                    -0.102791
      3 N                    -0.155290
      4 C                    -0.157069
      5 C                    -0.094833
      6 C                     0.109339
      7 C                     0.031179
      8 C                    -0.093080
      9 C                     0.020009
     10 N                    -0.182792
     11 N                    -0.276025
     12 C                     0.025946
     13 C                     0.117432
     14 S                     0.413037
     15 N                    -0.284367
     16 C                    -0.058707
     17 S                     0.130827
     18 C                    -0.007708
     19 C                    -0.021887
     20 S                     0.091549
     21 C                     0.021211
     22 C                     0.037522
     23 C                    -0.162685
     24 C                    -0.160455
     25 N                    -0.183293
     26 S                     0.100652
     27 C                    -0.074908
     28 C                    -0.203349
     29 H                     0.123985
     30 H                     0.128806
     31 H                     0.131368
     32 H                     0.128440
     33 H                     0.131324
     34 H                     0.131418
     35 H                     0.142208
     36 H                     0.129143
     37 H                     0.145659
  ----------------------------------------
  Sum of atomic charges =     0.000000

                    Cartesian Multipole Moments
 -----------------------------------------------------------------
    Charge (ESU x 10^10)
                 0.0000
    Dipole Moment (Debye)
         X      -1.8931      Y       0.1027      Z       1.2554
       Tot       2.2739
    Quadrupole Moments (Debye-Ang)
        XX    -169.5441     XY      16.6111     YY    -171.2587
        XZ       9.3891     YZ       1.4821     ZZ    -188.6628

 Total job time:  4367.94s(wall), 66116.45s(cpu)
        *  Thank you very much for using Q-Chem.  Have a nice day.  *
