 Q-Chem 4.4, Q-Chem, Inc., Pleasanton, CA (2016)
 Q-Chem 4.4.2 for Intel X86 Linux

User input:
--------------------------------------------------------------
$comment
OPTIMIZATION
$end

$rem
JOBTYPE OPT
EXCHANGE omegaB97X-D
BASIS cc-pVTZ
$end

$molecule
0 1
C          0.00000        0.00000        0.00000
C          1.38508        0.00000        0.00000
N         -0.72771       -1.11322        0.00000
C          2.04720       -1.21160       -0.00386
C         -0.08136       -2.27149       -0.00595
C          1.30925       -2.38901       -0.00649
C          1.96927       -3.70493        0.02329
C          3.04486       -3.95576        0.82999
C          1.55200       -4.80802       -0.77739
N          3.72631       -5.12438        0.91627
N          0.54624       -4.84522       -1.65350
C          2.26335       -6.04410       -0.69858
C          3.37925       -6.16090        0.19241
S          0.53898       -6.32692       -2.28381
N          1.78433       -6.98642       -1.50573
C          4.16725       -7.35995        0.35676
S          4.37316       -8.24039        1.83263
C          4.87259       -7.98362       -0.64661
C          5.38862       -9.41948        1.09753
S          5.09747       -7.65051       -2.32998
C          5.56863       -9.15135       -0.24345
C          5.94010      -10.52937        1.84598
C          6.11413       -9.06895       -2.47157
C          6.28451       -9.76097       -1.33114
N          6.69921      -11.44305        1.31273
S          5.64491      -10.76381        3.54701
C          7.07317      -12.37232        2.23728
C          6.60752      -12.18171        3.49577
H         -0.55134        0.93273        0.00000
H          1.92494        0.93597       -0.01293
H          3.12873       -1.25416       -0.02668
H         -0.69553       -3.16348       -0.00579
H          3.41622       -3.17720        1.48423
H          6.53340       -9.31164       -3.43569
H          6.86888      -10.65887       -1.22323
H          7.70410      -13.19613        1.94035
H          6.77335      -12.78328        4.37217
$end

$opt
CONSTRAINT
tors 4 6 7 8 42.24575
tors 10 13 16 17 60.00000
tors 17 19 22 25 179.21698
ENDCONSTRAINT
$end
--------------------------------------------------------------

   16   -2595.8939813148      4.85E-09 Convergence criterion met
 Total energy in the final basis set = -2595.8939813148
   13   -2595.8962648080      3.88E-09 Convergence criterion met
 Total energy in the final basis set = -2595.8962648080
   12   -2595.8966807007      7.95E-09 Convergence criterion met
 Total energy in the final basis set = -2595.8966807007
   11   -2595.8967571232      7.77E-09 Convergence criterion met
 Total energy in the final basis set = -2595.8967571232
   11   -2595.8968023540      8.65E-09 Convergence criterion met
 Total energy in the final basis set = -2595.8968023540
   11   -2595.8968183676      6.93E-09 Convergence criterion met
 Total energy in the final basis set = -2595.8968183676
    9   -2595.8968211231      8.01E-09 Convergence criterion met
 Total energy in the final basis set = -2595.8968211231

             Standard Nuclear Orientation (Angstroms)
    I     Atom           X                Y                Z
 ----------------------------------------------------------------
    1      C      -7.4641159264     1.4737897951    -0.3159758286
    2      C      -6.7684382224     1.5439912102    -1.5115052719
    3      N      -6.8993664434     1.1320558344     0.8381791554
    4      C      -5.4185457615     1.2462240140    -1.5075048952
    5      C      -5.6043033360     0.8485199232     0.8310720348
    6      C      -4.8035223281     0.8949401008    -0.3109536225
    7      C      -3.3597313746     0.6072753291    -0.2549636228
    8      C      -2.4469527740     1.3744158650    -0.9259614958
    9      C      -2.8049102844    -0.4667016991     0.4986515050
   10      N      -1.1016907230     1.1744605915    -0.9651413218
   11      N      -3.4533222868    -1.3585310164     1.2511300124
   12      C      -1.3920342911    -0.6680788519     0.4895638436
   13      C      -0.5622916715     0.2021119764    -0.2845199625
   14      S      -2.3265420555    -2.3266329920     1.8743317242
   15      N      -0.9935372504    -1.6932879821     1.2430681246
   16      C       0.8869177274    -0.0078126707    -0.3614791077
   17      S       1.9671174681     1.2397715205     0.1276450938
   18      C       1.5970659605    -1.1302721218    -0.6832679357
   19      C       3.3672483472     0.2729321810    -0.1305291399
   20      S       1.1725430534    -2.7196550427    -1.2511490099
   21      C       3.0087654889    -0.9801006095    -0.5770331141
   22      C       4.7089092770     0.7676657564     0.0980165502
   23      C       2.8663255296    -3.1456119011    -1.3392685937
   24      C       3.7126827477    -2.1709853769    -0.9646364393
   25      N       5.7770343473     0.0443893664    -0.0784487942
   26      S       5.0389307026     2.3907715296     0.6323739489
   27      C       6.9050618265     0.7550608175     0.2092441515
   28      C       6.7166929853     2.0354435206     0.6100119328
   29      H      -8.5241040705     1.6972757343    -0.2817778388
   30      H      -7.2762977880     1.8184358723    -2.4248937705
   31      H      -4.8474683817     1.2679524521    -2.4264055358
   32      H      -5.1710264424     0.5691352329     1.7832012971
   33      H      -2.7884693616     2.2316100676    -1.4929247221
   34      H       3.1285814814    -4.1368131778    -1.6720927778
   35      H       4.7863132934    -2.2574953907    -0.9515008114
   36      H       7.8676910749     0.2771084003     0.1102265240
   37      H       7.4528100629     2.7710165935     0.8817648440
 ----------------------------------------------------------------

    9   -2595.8968220626      5.56E-09 Convergence criterion met
 Total energy in the final basis set = -2595.8968220626
 Final energy is   -2595.89682206257
 **  OPTIMIZATION CONVERGED  **

                    Orbital Energies (a.u.)
 --------------------------------------------------------------

 Alpha MOs
 -- Occupied --
-89.158 -89.093 -89.090 -89.076 -14.495 -14.490 -14.458 -14.442
-14.439 -10.372 -10.371 -10.365 -10.361 -10.342 -10.341 -10.341
-10.335 -10.333 -10.330 -10.329 -10.327 -10.325 -10.325 -10.322
-10.318 -10.314 -10.305 -10.297  -8.168  -8.108  -8.105  -8.091
 -6.118  -6.112  -6.112  -6.057  -6.054  -6.053  -6.051  -6.051
 -6.048  -6.041  -6.037  -6.033  -1.154  -1.081  -1.076  -1.058
 -1.025  -1.016  -0.958  -0.948  -0.914  -0.909  -0.906  -0.885
 -0.863  -0.845  -0.829  -0.807  -0.776  -0.755  -0.747  -0.732
 -0.721  -0.696  -0.688  -0.679  -0.649  -0.641  -0.627  -0.623
 -0.610  -0.602  -0.583  -0.579  -0.572  -0.566  -0.542  -0.533
 -0.528  -0.524  -0.518  -0.514  -0.510  -0.505  -0.500  -0.498
 -0.485  -0.482  -0.475  -0.466  -0.456  -0.445  -0.435  -0.434
 -0.430  -0.424  -0.409  -0.392  -0.385  -0.373  -0.369  -0.369
 -0.367  -0.361  -0.345  -0.336  -0.324  -0.322  -0.272

          Ground-State Mulliken Net Atomic Charges

     Atom                 Charge (a.u.)
  ----------------------------------------
      1 C                    -0.070607
      2 C                    -0.102188
      3 N                    -0.154844
      4 C                    -0.157089
      5 C                    -0.093984
      6 C                     0.108325
      7 C                     0.044400
      8 C                    -0.107069
      9 C                     0.035970
     10 N                    -0.152819
     11 N                    -0.281662
     12 C                    -0.006518
     13 C                     0.007118
     14 S                     0.422448
     15 N                    -0.243488
     16 C                     0.036487
     17 S                     0.131383
     18 C                    -0.034051
     19 C                    -0.036565
     20 S                     0.060869
     21 C                     0.037643
     22 C                     0.036951
     23 C                    -0.147443
     24 C                    -0.167511
     25 N                    -0.187599
     26 S                     0.097620
     27 C                    -0.077420
     28 C                    -0.202628
     29 H                     0.124867
     30 H                     0.130497
     31 H                     0.132987
     32 H                     0.130418
     33 H                     0.135576
     34 H                     0.132334
     35 H                     0.145461
     36 H                     0.128686
     37 H                     0.143446
  ----------------------------------------
  Sum of atomic charges =     0.000000

                    Cartesian Multipole Moments
 -----------------------------------------------------------------
    Charge (ESU x 10^10)
                 0.0000
    Dipole Moment (Debye)
         X       0.9734      Y       0.0687      Z      -0.9510
       Tot       1.3626
    Quadrupole Moments (Debye-Ang)
        XX    -170.0012     XY       1.8713     YY    -174.7742
        XZ      16.0551     YZ      -0.4656     ZZ    -183.5449

 Total job time:  6985.69s(wall), 105452.61s(cpu)
        *  Thank you very much for using Q-Chem.  Have a nice day.  *
