 Q-Chem 4.4, Q-Chem, Inc., Pleasanton, CA (2016)
 Q-Chem 4.4.2 for Intel X86 Linux

User input:
--------------------------------------------------------------
$comment
OPTIMIZATION
$end

$rem
JOBTYPE OPT
EXCHANGE omegaB97X-D
BASIS cc-pVTZ
$end

$molecule
0 1
C          0.00000        0.00000        0.00000
C          1.38508        0.00000        0.00000
N         -0.72771       -1.11322        0.00000
C          2.04720       -1.21160       -0.00386
C         -0.08136       -2.27149       -0.00595
C          1.30925       -2.38901       -0.00649
C          1.96927       -3.70493        0.02329
C          3.04486       -3.95576        0.82999
C          1.55200       -4.80802       -0.77739
N          3.72631       -5.12438        0.91627
N          0.54624       -4.84522       -1.65350
C          2.26335       -6.04410       -0.69858
C          3.37925       -6.16090        0.19241
S          0.53898       -6.32692       -2.28381
N          1.78433       -6.98642       -1.50573
C          4.16725       -7.35995        0.35676
S          3.57169       -8.89710        0.88425
C          5.51795       -7.45547        0.11238
C          5.11960       -9.64087        0.77214
S          6.71370       -6.32789       -0.42985
C          6.07181       -8.74042        0.34203
C          5.32330      -11.03796        1.09283
C          7.93187       -7.58249       -0.34225
C          7.48278       -8.78158        0.06883
N          6.47973      -11.62967        1.00356
S          4.03770      -12.08237        1.63324
C          6.38837      -12.94300        1.35710
C          5.15847      -13.37656        1.72629
H         -0.55134        0.93273        0.00000
H          1.92494        0.93597       -0.01293
H          3.12873       -1.25416       -0.02668
H         -0.69553       -3.16348       -0.00579
H          3.41622       -3.17720        1.48423
H          8.94610       -7.34000       -0.61928
H          8.07959       -9.67087        0.17994
H          7.26984      -13.56524        1.32960
H          4.85867      -14.36143        2.03870
$end

$opt
CONSTRAINT
tors 4 6 7 8 42.24575
tors 10 13 16 17 120.00000
tors 17 19 22 25 179.21698
ENDCONSTRAINT
$end
--------------------------------------------------------------

   16   -2595.8941314556      4.42E-09 Convergence criterion met
 Total energy in the final basis set = -2595.8941314556
   13   -2595.8957291668      3.99E-09 Convergence criterion met
 Total energy in the final basis set = -2595.8957291668
   12   -2595.8960280301      7.81E-09 Convergence criterion met
 Total energy in the final basis set = -2595.8960280301
   12   -2595.8961399651      5.90E-09 Convergence criterion met
 Total energy in the final basis set = -2595.8961399651
   12   -2595.8962450714      6.72E-09 Convergence criterion met
 Total energy in the final basis set = -2595.8962450714
   12   -2595.8962859140      4.99E-09 Convergence criterion met
 Total energy in the final basis set = -2595.8962859140
   10   -2595.8962926412      7.03E-09 Convergence criterion met
 Total energy in the final basis set = -2595.8962926412
    9   -2595.8962940227      6.59E-09 Convergence criterion met
 Total energy in the final basis set = -2595.8962940227

             Standard Nuclear Orientation (Angstroms)
    I     Atom           X                Y                Z
 ----------------------------------------------------------------
    1      C       7.5349854385     0.0796484455    -1.0409699306
    2      C       6.9460880395     1.3071047549    -0.7864927959
    3      N       6.8585513266    -1.0649244678    -1.0583246229
    4      C       5.5871766045     1.3473560056    -0.5356773067
    5      C       5.5560651496    -1.0147725444    -0.8171033751
    6      C       4.8573715637     0.1640871092    -0.5532908098
    7      C       3.4017959657     0.1613745089    -0.3257319089
    8      C       2.5809314380     1.1003714276    -0.8879487591
    9      C       2.7412677336    -0.8104620703     0.4800828184
   10      N       1.2299931342     1.1762915558    -0.7470650285
   11      N       3.2898880320    -1.8242351129     1.1535099454
   12      C       1.3263121200    -0.7320530365     0.6471387933
   13      C       0.5986264594     0.3162108069     0.0020805460
   14      S       2.0794975035    -2.5747057196     1.9051341566
   15      N       0.8275922897    -1.6818020696     1.4395396197
   16      C      -0.8594775125     0.4241918407     0.1136681732
   17      S      -1.9146906942    -0.8514560573    -0.3631639140
   18      C      -1.5944054737     1.5407184255     0.3964790604
   19      C      -3.3336557517     0.0959634336    -0.1348179673
   20      S      -1.1916782868     3.1574649482     0.8935974705
   21      C      -3.0016268083     1.3652185159     0.2860029274
   22      C      -4.6636697940    -0.4309352128    -0.3586259879
   23      C      -2.8928253860     3.5559948780     0.9763600040
   24      C      -3.7249137671     2.5561510185     0.6360338583
   25      N      -5.7475383992     0.2668442777    -0.1766288032
   26      S      -4.9577385631    -2.0598261347    -0.8970902022
   27      C      -6.8597881441    -0.4688685838    -0.4627052017
   28      C      -6.6433674102    -1.7435972093    -0.8672049926
   29      H       8.5986054728     0.0087767332    -1.2366959154
   30      H       7.5408064039     2.2091712797    -0.7761115650
   31      H       5.0960124572     2.2852350689    -0.3113869533
   32      H       5.0296666158    -1.9606854197    -0.8370635237
   33      H       3.0048579674     1.8561275886    -1.5375761954
   34      H      -3.1710253472     4.5537749437     1.2751617521
   35      H      -4.7997148710     2.6258183722     0.6212774367
   36      H      -7.8327233706    -0.0133644729    -0.3585562738
   37      H      -7.3638248152    -2.4947757213    -1.1382028567
 ----------------------------------------------------------------

    8   -2595.8962942898      6.15E-09 Convergence criterion met
 Total energy in the final basis set = -2595.8962942898
 Final energy is   -2595.89629428980
 **  OPTIMIZATION CONVERGED  **

                    Orbital Energies (a.u.)
 --------------------------------------------------------------

 Alpha MOs
 -- Occupied --
-89.158 -89.094 -89.090 -89.075 -14.496 -14.491 -14.458 -14.442
-14.439 -10.373 -10.371 -10.365 -10.361 -10.342 -10.341 -10.341
-10.333 -10.333 -10.330 -10.329 -10.326 -10.326 -10.325 -10.322
-10.318 -10.313 -10.305 -10.296  -8.168  -8.108  -8.106  -8.090
 -6.118  -6.113  -6.112  -6.058  -6.055  -6.054  -6.051  -6.051
 -6.049  -6.039  -6.036  -6.032  -1.155  -1.081  -1.076  -1.058
 -1.024  -1.017  -0.957  -0.949  -0.913  -0.910  -0.906  -0.886
 -0.863  -0.845  -0.829  -0.807  -0.776  -0.755  -0.747  -0.731
 -0.723  -0.695  -0.688  -0.679  -0.648  -0.641  -0.625  -0.625
 -0.609  -0.600  -0.584  -0.580  -0.572  -0.568  -0.542  -0.533
 -0.528  -0.523  -0.519  -0.513  -0.511  -0.505  -0.500  -0.497
 -0.486  -0.482  -0.474  -0.466  -0.456  -0.444  -0.436  -0.434
 -0.430  -0.425  -0.408  -0.392  -0.385  -0.373  -0.370  -0.368
 -0.366  -0.361  -0.345  -0.336  -0.323  -0.322  -0.271

          Ground-State Mulliken Net Atomic Charges

     Atom                 Charge (a.u.)
  ----------------------------------------
      1 C                    -0.070164
      2 C                    -0.101924
      3 N                    -0.154762
      4 C                    -0.157526
      5 C                    -0.092972
      6 C                     0.108605
      7 C                     0.044232
      8 C                    -0.104154
      9 C                     0.033416
     10 N                    -0.146004
     11 N                    -0.279795
     12 C                    -0.002629
     13 C                     0.035592
     14 S                     0.420204
     15 N                    -0.251996
     16 C                     0.000163
     17 S                     0.134992
     18 C                    -0.039407
     19 C                    -0.036175
     20 S                     0.064642
     21 C                     0.042527
     22 C                     0.037818
     23 C                    -0.148915
     24 C                    -0.168080
     25 N                    -0.186793
     26 S                     0.096779
     27 C                    -0.077229
     28 C                    -0.202472
     29 H                     0.124755
     30 H                     0.129568
     31 H                     0.133338
     32 H                     0.128725
     33 H                     0.136597
     34 H                     0.131921
     35 H                     0.144717
     36 H                     0.128949
     37 H                     0.143457
  ----------------------------------------
  Sum of atomic charges =     0.000000

                    Cartesian Multipole Moments
 -----------------------------------------------------------------
    Charge (ESU x 10^10)
                 0.0000
    Dipole Moment (Debye)
         X      -0.8516      Y       0.6319      Z       0.4655
       Tot       1.1582
    Quadrupole Moments (Debye-Ang)
        XX    -167.5731     XY      19.1988     YY    -172.8075
        XZ       3.7490     YZ       1.1134     ZZ    -187.9781

 Total job time:  7844.72s(wall), 118450.53s(cpu)
        *  Thank you very much for using Q-Chem.  Have a nice day.  *
