 Q-Chem 4.4, Q-Chem, Inc., Pleasanton, CA (2016)
 Q-Chem 4.4.2 for Intel X86 Linux

User input:
--------------------------------------------------------------
$comment
OPTIMIZATION
$end

$rem
JOBTYPE OPT
EXCHANGE omegaB97X-D
BASIS cc-pVTZ
$end

$molecule
0 1
C          0.00000        0.00000        0.00000
C          1.38508        0.00000        0.00000
N         -0.72771       -1.11322        0.00000
C          2.04720       -1.21160       -0.00386
C         -0.08136       -2.27149       -0.00595
C          1.30925       -2.38901       -0.00649
C          1.96927       -3.70493        0.02329
C          3.04486       -3.95576        0.82999
C          1.55200       -4.80802       -0.77739
N          3.72631       -5.12438        0.91627
N          0.54624       -4.84522       -1.65350
C          2.26335       -6.04410       -0.69858
C          3.37925       -6.16090        0.19241
S          0.53898       -6.32692       -2.28381
N          1.78433       -6.98642       -1.50573
C          4.16725       -7.35995        0.35676
S          5.84422       -7.41772        0.78130
C          3.69345       -8.64234        0.20118
C          5.89054       -9.13773        0.74650
S          2.14525       -9.29964       -0.20660
C          4.65656       -9.65993        0.41921
C          7.09911       -9.87774        1.04303
C          2.80274      -10.91755       -0.08143
C          4.10588      -10.97664        0.24544
N          7.15920      -11.17842        1.03787
S          8.60866       -9.10459        1.44189
C          8.41079      -11.61384        1.35743
C          9.33052      -10.65074        1.60941
H         -0.55134        0.93273        0.00000
H          1.92494        0.93597       -0.01293
H          3.12873       -1.25416       -0.02668
H         -0.69553       -3.16348       -0.00579
H          3.41622       -3.17720        1.48423
H          2.14956      -11.75746       -0.26064
H          4.68074      -11.87814        0.37272
H          8.61312      -12.67331        1.39626
H         10.36600      -10.76402        1.87846
$end

$opt
CONSTRAINT
tors 4 6 7 8 42.24575
tors 10 13 16 17 -30.00000
tors 17 19 22 25 179.21698
ENDCONSTRAINT
$end
--------------------------------------------------------------

   16   -2595.8921893453      6.25E-09 Convergence criterion met
 Total energy in the final basis set = -2595.8921893453
   14   -2595.8978521406      7.98E-09 Convergence criterion met
 Total energy in the final basis set = -2595.8978521406
   13   -2595.9005260609      4.12E-09 Convergence criterion met
 Total energy in the final basis set = -2595.9005260609
   12   -2595.9010167901      9.87E-09 Convergence criterion met
 Total energy in the final basis set = -2595.9010167901
   11   -2595.9010714274      4.64E-09 Convergence criterion met
 Total energy in the final basis set = -2595.9010714274
   11   -2595.9010946672      4.49E-09 Convergence criterion met
 Total energy in the final basis set = -2595.9010946672
   10   -2595.9011065350      6.20E-09 Convergence criterion met
 Total energy in the final basis set = -2595.9011065350
    9   -2595.9011097870      8.83E-09 Convergence criterion met
 Total energy in the final basis set = -2595.9011097870

             Standard Nuclear Orientation (Angstroms)
    I     Atom           X                Y                Z
 ----------------------------------------------------------------
    1      C       7.3736009653     1.7917504413    -0.3236183004
    2      C       6.4745965151     2.7190306203     0.1766545378
    3      N       7.0197182957     0.5732335881    -0.7212147169
    4      C       5.1414865503     2.3638628158     0.2666676682
    5      C       5.7390774084     0.2431818692    -0.6302716860
    6      C       4.7455990959     1.0983243783    -0.1512836416
    7      C       3.3326506555     0.6851517541    -0.1055730427
    8      C       2.3186307545     1.5201583724    -0.4885069860
    9      C       2.9112204236    -0.6012070713     0.3357058401
   10      N       0.9946441946     1.2253092448    -0.4915423876
   11      N       3.6759989855    -1.5914915627     0.7995650167
   12      C       1.5184384026    -0.9205306273     0.3496257530
   13      C       0.5671836077     0.0538967658    -0.0942675701
   14      S       2.6770481400    -2.7878612191     1.2045872645
   15      N       1.2582097227    -2.1339036501     0.8308477163
   16      C      -0.8671881617    -0.1904028933    -0.1304118736
   17      S      -1.9046093436     1.1723029930     0.0943451458
   18      C      -1.6242789052    -1.3236154932    -0.3160996982
   19      C      -3.3356148130     0.2391225305    -0.0712623208
   20      S      -1.2894519934    -2.9991866692    -0.6464063199
   21      C      -3.0292950876    -1.0835364195    -0.3099144635
   22      C      -4.6577513210     0.8219782776     0.0293761929
   23      C      -2.9981336341    -3.3285286978    -0.7913264255
   24      C      -3.7946476141    -2.2672447734    -0.5820730305
   25      N      -5.7568147494     0.1371282153    -0.1072942098
   26      S      -4.9185912397     2.5118460771     0.3532521247
   27      C      -6.8539178910     0.9323602708     0.0424407608
   28      C      -6.6100934125     2.2410496377     0.2964531764
   29      H       8.4266604310     2.0344049212    -0.4065196690
   30      H       6.8154239376     3.6924711092     0.4989910735
   31      H       4.4135802724     3.0553032320     0.6707561247
   32      H       5.4782906695    -0.7554520200    -0.9578390261
   33      H       2.5573318996     2.5124241205    -0.8515577223
   34      H      -3.3063377338    -4.3371522311    -1.0152643345
   35      H      -4.8709762945    -2.2839592421    -0.6152525341
   36      H      -7.8364441792     0.4939611743    -0.0429985696
   37      H      -7.3161468045     3.0372696869     0.4528382597
 ----------------------------------------------------------------

    9   -2595.9011106686      5.71E-09 Convergence criterion met
 Total energy in the final basis set = -2595.9011106686
 Final energy is   -2595.90111066864
 **  OPTIMIZATION CONVERGED  **

                    Orbital Energies (a.u.)
 --------------------------------------------------------------

 Alpha MOs
 -- Occupied --
-89.157 -89.091 -89.091 -89.076 -14.494 -14.489 -14.454 -14.444
-14.437 -10.373 -10.371 -10.364 -10.361 -10.343 -10.343 -10.341
-10.338 -10.329 -10.328 -10.327 -10.327 -10.326 -10.324 -10.320
-10.316 -10.314 -10.304 -10.296  -8.167  -8.107  -8.106  -8.090
 -6.117  -6.111  -6.111  -6.056  -6.056  -6.052  -6.052  -6.050
 -6.049  -6.040  -6.036  -6.032  -1.154  -1.082  -1.074  -1.056
 -1.024  -1.016  -0.959  -0.946  -0.913  -0.910  -0.907  -0.885
 -0.862  -0.845  -0.829  -0.807  -0.775  -0.754  -0.746  -0.731
 -0.720  -0.696  -0.688  -0.679  -0.650  -0.642  -0.625  -0.621
 -0.610  -0.602  -0.584  -0.576  -0.569  -0.567  -0.541  -0.535
 -0.527  -0.524  -0.518  -0.514  -0.511  -0.504  -0.498  -0.495
 -0.485  -0.481  -0.477  -0.465  -0.457  -0.447  -0.438  -0.435
 -0.426  -0.424  -0.405  -0.394  -0.384  -0.372  -0.371  -0.368
 -0.367  -0.359  -0.344  -0.336  -0.324  -0.321  -0.269

          Ground-State Mulliken Net Atomic Charges

     Atom                 Charge (a.u.)
  ----------------------------------------
      1 C                    -0.070615
      2 C                    -0.103032
      3 N                    -0.154739
      4 C                    -0.157893
      5 C                    -0.095496
      6 C                     0.109822
      7 C                     0.043132
      8 C                    -0.105404
      9 C                     0.028057
     10 N                    -0.172439
     11 N                    -0.277819
     12 C                     0.011922
     13 C                     0.055580
     14 S                     0.419763
     15 N                    -0.269036
     16 C                     0.008868
     17 S                     0.129190
     18 C                    -0.039103
     19 C                    -0.027460
     20 S                     0.075353
     21 C                     0.041260
     22 C                     0.034660
     23 C                    -0.155369
     24 C                    -0.167617
     25 N                    -0.185481
     26 S                     0.101309
     27 C                    -0.076712
     28 C                    -0.201878
     29 H                     0.124034
     30 H                     0.129439
     31 H                     0.131139
     32 H                     0.129645
     33 H                     0.135950
     34 H                     0.132439
     35 H                     0.145064
     36 H                     0.129322
     37 H                     0.144142
  ----------------------------------------
  Sum of atomic charges =     0.000000

                    Cartesian Multipole Moments
 -----------------------------------------------------------------
    Charge (ESU x 10^10)
                 0.0000
    Dipole Moment (Debye)
         X      -1.6826      Y       1.3964      Z       1.1604
       Tot       2.4754
    Quadrupole Moments (Debye-Ang)
        XX    -175.4259     XY       5.2853     YY    -164.8159
        XZ       4.6623     YZ       3.4820     ZZ    -189.1255

 Total job time:  8157.01s(wall), 123356.63s(cpu)
        *  Thank you very much for using Q-Chem.  Have a nice day.  *
