 Q-Chem 4.4, Q-Chem, Inc., Pleasanton, CA (2016)
 Q-Chem 4.4.2 for Intel X86 Linux

User input:
--------------------------------------------------------------
$comment
OPTIMIZATION
$end

$rem
JOBTYPE OPT
EXCHANGE omegaB97X-D
BASIS cc-pVTZ
$end

$molecule
0 1
C          0.00000        0.00000        0.00000
C          1.38508        0.00000        0.00000
N         -0.72771       -1.11322        0.00000
C          2.04720       -1.21160       -0.00386
C         -0.08136       -2.27149       -0.00595
C          1.30925       -2.38901       -0.00649
C          1.96927       -3.70493        0.02329
C          3.04486       -3.95576        0.82999
C          1.55200       -4.80802       -0.77739
N          3.72631       -5.12438        0.91627
N          0.54624       -4.84522       -1.65350
C          2.26335       -6.04410       -0.69858
C          3.37925       -6.16090        0.19241
S          0.53898       -6.32692       -2.28381
N          1.78433       -6.98642       -1.50573
C          4.16725       -7.35995        0.35676
S          4.45604       -8.55518       -0.86136
C          4.81125       -7.72754        1.51579
C          5.42458       -9.52120        0.18291
S          4.94464       -7.00880        3.08451
C          5.52808       -8.94818        1.43329
C          6.03079      -10.75863       -0.26146
C          5.95115       -8.34293        3.60667
C          6.18134       -9.28030        2.67027
N          6.77905      -11.50166        0.50237
S          5.82490      -11.38840       -1.87286
C          7.22470      -12.60229       -0.16709
C          6.82068      -12.72028       -1.45542
H         -0.55134        0.93273        0.00000
H          1.92494        0.93597       -0.01293
H          3.12873       -1.25416       -0.02668
H         -0.69553       -3.16348       -0.00579
H          3.41622       -3.17720        1.48423
H          6.32846       -8.34249        4.61753
H          6.77775      -10.16688        2.80306
H          7.86096      -13.31262        0.33841
H          7.04969      -13.49746       -2.16322
$end

$opt
CONSTRAINT
tors 4 6 7 8 42.24575
tors 10 13 16 17 -150.00000
tors 17 19 22 25 179.21698
ENDCONSTRAINT
$end
--------------------------------------------------------------

   16   -2595.9019090140      4.87E-09 Convergence criterion met
 Total energy in the final basis set = -2595.9019090140
   13   -2595.9027151940      3.88E-09 Convergence criterion met
 Total energy in the final basis set = -2595.9027151940
   12   -2595.9029682684      7.10E-09 Convergence criterion met
 Total energy in the final basis set = -2595.9029682684
   12   -2595.9031005563      9.20E-09 Convergence criterion met
 Total energy in the final basis set = -2595.9031005563
   12   -2595.9031416359      4.58E-09 Convergence criterion met
 Total energy in the final basis set = -2595.9031416359
   10   -2595.9031501694      6.29E-09 Convergence criterion met
 Total energy in the final basis set = -2595.9031501694
    9   -2595.9031515616      3.46E-09 Convergence criterion met
 Total energy in the final basis set = -2595.9031515616

             Standard Nuclear Orientation (Angstroms)
    I     Atom           X                Y                Z
 ----------------------------------------------------------------
    1      C      -7.5923553622     0.3366973152    -0.4908470364
    2      C      -6.8394889552     1.0018667523    -1.4441184685
    3      N      -7.0563466866    -0.3408961855     0.5198050467
    4      C      -5.4612820097     0.9585100215    -1.3445098022
    5      C      -5.7339392043    -0.3758263793     0.6055677948
    6      C      -4.8766393523     0.2590448033    -0.2944653728
    7      C      -3.4137350935     0.2090766328    -0.1320021301
    8      C      -2.6263944528     1.3137412221    -0.3102699746
    9      C      -2.7077834545    -0.9794625702     0.2139207415
   10      N      -1.2730259078     1.3598382609    -0.2158985979
   11      N      -3.2145532227    -2.1937668676     0.4345910622
   12      C      -1.2860049062    -0.9404836660     0.3366145072
   13      C      -0.5911108239     0.2924163049     0.1108181057
   14      S      -1.9668822012    -3.1555180403     0.7697859865
   15      N      -0.7457027052    -2.1151905022     0.6529437726
   16      C       0.8527869282     0.4132278304     0.1845342901
   17      S       1.9503314950    -0.8808703214    -0.1407568960
   18      C       1.5596730673     1.5826014994     0.3264205269
   19      C       3.3346891053     0.1325116120    -0.0315845056
   20      S       1.1073268648     3.2313067152     0.6063507553
   21      C       2.9689028128     1.4350982637     0.2380516668
   22      C       4.6790642723    -0.3775320318    -0.2023940340
   23      C       2.7957674608     3.6861490433     0.6583081350
   24      C       3.6594033171     2.6777017430     0.4440033093
   25      N       5.7409161507     0.3735811078    -0.1386672520
   26      S       5.0215069227    -2.0534713861    -0.5223948149
   27      C       6.8732574719    -0.3571129363    -0.3439660777
   28      C       6.6942821946    -1.6816098447    -0.5687505806
   29      H      -8.6750341026     0.3449151893    -0.5411361778
   30      H      -7.3237644697     1.5303934599    -2.2526860184
   31      H      -4.8405161075     1.4485860084    -2.0831230500
   32      H      -5.3239772854    -0.9324385403     1.4389193579
   33      H      -3.0902113301     2.2623559541    -0.5519528841
   34      H       3.0436085784     4.7204554101     0.8357453547
   35      H       4.7319850452     2.7737768637     0.4219934163
   36      H       7.8311770992     0.1392971694    -0.3200784690
   37      H       7.4354827461    -2.4385744104    -0.7549111718
 ----------------------------------------------------------------

    8   -2595.9031519120      8.18E-09 Convergence criterion met
 Total energy in the final basis set = -2595.9031519120
 Final energy is   -2595.90315191195
 **  OPTIMIZATION CONVERGED  **

                    Orbital Energies (a.u.)
 --------------------------------------------------------------

 Alpha MOs
 -- Occupied --
-89.157 -89.094 -89.092 -89.075 -14.495 -14.489 -14.454 -14.444
-14.437 -10.374 -10.370 -10.364 -10.361 -10.344 -10.341 -10.341
-10.334 -10.328 -10.328 -10.327 -10.327 -10.327 -10.324 -10.319
-10.316 -10.314 -10.303 -10.296  -8.167  -8.109  -8.108  -8.089
 -6.117  -6.111  -6.110  -6.058  -6.057  -6.055  -6.053  -6.052
 -6.051  -6.039  -6.035  -6.031  -1.154  -1.083  -1.074  -1.055
 -1.024  -1.016  -0.957  -0.947  -0.912  -0.911  -0.907  -0.884
 -0.862  -0.845  -0.829  -0.807  -0.776  -0.753  -0.745  -0.729
 -0.724  -0.695  -0.689  -0.679  -0.648  -0.641  -0.624  -0.622
 -0.609  -0.597  -0.585  -0.577  -0.570  -0.569  -0.541  -0.535
 -0.527  -0.523  -0.518  -0.514  -0.511  -0.504  -0.497  -0.493
 -0.488  -0.481  -0.477  -0.463  -0.457  -0.447  -0.437  -0.434
 -0.429  -0.425  -0.405  -0.396  -0.383  -0.372  -0.371  -0.370
 -0.365  -0.359  -0.343  -0.336  -0.326  -0.320  -0.269

          Ground-State Mulliken Net Atomic Charges

     Atom                 Charge (a.u.)
  ----------------------------------------
      1 C                    -0.071836
      2 C                    -0.102128
      3 N                    -0.154837
      4 C                    -0.158322
      5 C                    -0.095385
      6 C                     0.109396
      7 C                     0.034855
      8 C                    -0.094932
      9 C                     0.030345
     10 N                    -0.174801
     11 N                    -0.277829
     12 C                     0.016214
     13 C                     0.084272
     14 S                     0.415600
     15 N                    -0.274819
     16 C                    -0.032485
     17 S                     0.131810
     18 C                    -0.025802
     19 C                    -0.030106
     20 S                     0.084233
     21 C                     0.037139
     22 C                     0.036724
     23 C                    -0.158095
     24 C                    -0.163907
     25 N                    -0.184064
     26 S                     0.099824
     27 C                    -0.075693
     28 C                    -0.201726
     29 H                     0.124236
     30 H                     0.129016
     31 H                     0.132380
     32 H                     0.128896
     33 H                     0.134221
     34 H                     0.131274
     35 H                     0.143176
     36 H                     0.129136
     37 H                     0.144020
  ----------------------------------------
  Sum of atomic charges =     0.000000

                    Cartesian Multipole Moments
 -----------------------------------------------------------------
    Charge (ESU x 10^10)
                 0.0000
    Dipole Moment (Debye)
         X       1.7694      Y      -0.2327      Z      -1.5331
       Tot       2.3527
    Quadrupole Moments (Debye-Ang)
        XX    -171.5469     XY     -13.2425     YY    -173.0027
        XZ       9.6805     YZ      -0.6913     ZZ    -185.3958

 Total job time:  7136.58s(wall), 107948.60s(cpu)
        *  Thank you very much for using Q-Chem.  Have a nice day.  *
