 Q-Chem 4.4, Q-Chem, Inc., Pleasanton, CA (2016)
 Q-Chem 4.4.2 for Intel X86 Linux

User input:
--------------------------------------------------------------
$comment
OPTIMIZATION
$end

$rem
JOBTYPE OPT
EXCHANGE omegaB97X-D
BASIS cc-pVTZ
$end

$molecule
0 1
C          0.00000        0.00000        0.00000
C          1.38508        0.00000        0.00000
N         -0.72771       -1.11322        0.00000
C          2.04720       -1.21160       -0.00386
C         -0.08136       -2.27149       -0.00595
C          1.30925       -2.38901       -0.00649
C          1.96927       -3.70493        0.02329
C          3.04486       -3.95576        0.82999
C          1.55200       -4.80802       -0.77739
N          3.72631       -5.12438        0.91627
N          0.54624       -4.84522       -1.65350
C          2.26335       -6.04410       -0.69858
C          3.37925       -6.16090        0.19241
S          0.53898       -6.32692       -2.28381
N          1.78433       -6.98642       -1.50573
C          4.16725       -7.35995        0.35676
S          5.52053       -7.54288        1.42023
C          3.95212       -8.54275       -0.31250
C          5.77891       -9.18153        0.96217
S          2.79277       -9.05041       -1.49294
C          4.85558       -9.58389        0.01979
C          6.84015       -9.97998        1.53874
C          3.52773      -10.63921       -1.52682
C          4.58224      -10.79410       -0.70674
N          7.04965      -11.22528        1.22131
S          7.95451       -9.35860        2.72520
C          8.10468      -11.73855        1.91532
C          8.72211      -10.89096        2.77399
H         -0.55134        0.93273        0.00000
H          1.92494        0.93597       -0.01293
H          3.12873       -1.25416       -0.02668
H         -0.69553       -3.16348       -0.00579
H          3.41622       -3.17720        1.48423
H          3.10768      -11.39053       -2.17743
H          5.15725      -11.69659       -0.58741
H          8.39676      -12.76577        1.75906
H          9.56404      -11.08026        3.41646
$end

$opt
CONSTRAINT
tors 4 6 7 8 42.24575
tors 10 13 16 17 0.00000
tors 17 19 22 25 179.21698
ENDCONSTRAINT
$end
--------------------------------------------------------------

   16   -2595.8771904311      6.99E-09 Convergence criterion met
 Total energy in the final basis set = -2595.8771904311
   15   -2595.8987495446      6.80E-09 Convergence criterion met
 Total energy in the final basis set = -2595.8987495446
   13   -2595.9022494649      3.64E-09 Convergence criterion met
 Total energy in the final basis set = -2595.9022494649
   13   -2595.9031306210      4.22E-09 Convergence criterion met
 Total energy in the final basis set = -2595.9031306210
   11   -2595.9032068792      4.63E-09 Convergence criterion met
 Total energy in the final basis set = -2595.9032068792
   10   -2595.9032231588      6.17E-09 Convergence criterion met
 Total energy in the final basis set = -2595.9032231588
    9   -2595.9032242528      5.96E-09 Convergence criterion met
 Total energy in the final basis set = -2595.9032242528

             Standard Nuclear Orientation (Angstroms)
    I     Atom           X                Y                Z
 ----------------------------------------------------------------
    1      C       7.3029517467     2.0169013168    -0.1288215836
    2      C       6.4164979340     2.6903783052     0.6948029047
    3      N       6.9574703728     0.9676873227    -0.8689942428
    4      C       5.1065873959     2.2519365110     0.7533775235
    5      C       5.6986409757     0.5564703258    -0.8064317285
    6      C       4.7190615569     1.1610709261    -0.0170966511
    7      C       3.3263188875     0.6832649200    -0.0122803375
    8      C       2.2639910840     1.5453417657    -0.0460387572
    9      C       2.9701079755    -0.6942948361     0.0230286437
   10      N       0.9557077686     1.2016922848    -0.0333121303
   11      N       3.7934158824    -1.7426470379     0.0682496744
   12      C       1.5890461451    -1.0699423390     0.0330037261
   13      C       0.5790455779    -0.0537835954     0.0028760460
   14      S       2.8633244330    -3.0566746659     0.1116521305
   15      N       1.4037677556    -2.3849232014     0.0814201021
   16      C      -0.8512668439    -0.3019577210     0.0112521082
   17      S      -1.8443100706     1.1193780712    -0.0284369141
   18      C      -1.6505764439    -1.4280977880     0.0389597428
   19      C      -3.3030211868     0.2194372944    -0.0061257655
   20      S      -1.4021186870    -3.1534593813     0.0801359944
   21      C      -3.0473908939    -1.1335028058     0.0288624542
   22      C      -4.6035473500     0.8571151593    -0.0279750188
   23      C      -3.1268607381    -3.4238051406     0.0825446439
   24      C      -3.8717275092    -2.3077694096     0.0548596592
   25      N      -5.7283766672     0.2007351824    -0.0266884240
   26      S      -4.7999166989     2.5860028844    -0.0591359550
   27      C      -6.7941978744     1.0495698592    -0.0510703538
   28      C      -6.5000445683     2.3728066914    -0.0714790440
   29      H       8.3383183263     2.3301595715    -0.1964714119
   30      H       6.7488213490     3.5329350408     1.2841288583
   31      H       4.3918333178     2.7409386442     1.4022731077
   32      H       5.4444012038    -0.2977813287    -1.4212253199
   33      H       2.4471662155     2.6116836590    -0.1029868661
   34      H      -3.4855254281    -4.4405487859     0.1053113346
   35      H      -4.9482532971    -2.2760931168     0.0508637828
   36      H      -7.7924016594     0.6392919745    -0.0533678239
   37      H      -7.1730170867     3.2116615644    -0.0930641825
 ----------------------------------------------------------------

    8   -2595.9032244940      8.48E-09 Convergence criterion met
 Total energy in the final basis set = -2595.9032244940
 Final energy is   -2595.90322449397
 **  OPTIMIZATION CONVERGED  **

                    Orbital Energies (a.u.)
 --------------------------------------------------------------

 Alpha MOs
 -- Occupied --
-89.156 -89.092 -89.089 -89.076 -14.495 -14.487 -14.452 -14.445
-14.436 -10.374 -10.372 -10.363 -10.362 -10.344 -10.343 -10.342
-10.340 -10.328 -10.327 -10.327 -10.326 -10.326 -10.322 -10.319
-10.315 -10.314 -10.303 -10.295  -8.166  -8.108  -8.104  -8.090
 -6.116  -6.110  -6.110  -6.057  -6.053  -6.053  -6.051  -6.050
 -6.047  -6.040  -6.036  -6.032  -1.153  -1.084  -1.074  -1.055
 -1.023  -1.015  -0.958  -0.944  -0.912  -0.911  -0.906  -0.884
 -0.862  -0.845  -0.828  -0.807  -0.775  -0.753  -0.745  -0.730
 -0.720  -0.696  -0.689  -0.678  -0.650  -0.642  -0.624  -0.620
 -0.609  -0.601  -0.582  -0.575  -0.569  -0.566  -0.541  -0.536
 -0.526  -0.524  -0.517  -0.514  -0.511  -0.503  -0.497  -0.491
 -0.490  -0.481  -0.478  -0.464  -0.458  -0.447  -0.442  -0.434
 -0.428  -0.421  -0.398  -0.396  -0.383  -0.372  -0.371  -0.369
 -0.365  -0.358  -0.343  -0.337  -0.325  -0.322  -0.266

          Ground-State Mulliken Net Atomic Charges

     Atom                 Charge (a.u.)
  ----------------------------------------
      1 C                    -0.072017
      2 C                    -0.102635
      3 N                    -0.155392
      4 C                    -0.159191
      5 C                    -0.095122
      6 C                     0.110151
      7 C                     0.034667
      8 C                    -0.108795
      9 C                     0.023182
     10 N                    -0.176361
     11 N                    -0.277303
     12 C                     0.037333
     13 C                     0.084113
     14 S                     0.413755
     15 N                    -0.283884
     16 C                    -0.021426
     17 S                     0.119587
     18 C                    -0.028828
     19 C                    -0.011527
     20 S                     0.091135
     21 C                     0.029143
     22 C                     0.035911
     23 C                    -0.164425
     24 C                    -0.165409
     25 N                    -0.185373
     26 S                     0.104307
     27 C                    -0.076251
     28 C                    -0.201478
     29 H                     0.123873
     30 H                     0.129290
     31 H                     0.132088
     32 H                     0.129058
     33 H                     0.134943
     34 H                     0.132710
     35 H                     0.145279
     36 H                     0.129698
     37 H                     0.145194
  ----------------------------------------
  Sum of atomic charges =     0.000000

                    Cartesian Multipole Moments
 -----------------------------------------------------------------
    Charge (ESU x 10^10)
                 0.0000
    Dipole Moment (Debye)
         X      -1.9489      Y       1.0892      Z       1.2199
       Tot       2.5441
    Quadrupole Moments (Debye-Ang)
        XX    -176.0691     XY       1.6331     YY    -165.0363
        XZ       8.9809     YZ       3.4337     ZZ    -188.8586

 Total job time:  7478.01s(wall), 113201.83s(cpu)
        *  Thank you very much for using Q-Chem.  Have a nice day.  *
