 Q-Chem 4.4, Q-Chem, Inc., Pleasanton, CA (2016)
 Q-Chem 4.4.2 for Intel X86 Linux

User input:
--------------------------------------------------------------
$comment
OPTIMIZATION
$end

$rem
JOBTYPE OPT
EXCHANGE omegaB97X-D
BASIS cc-pVTZ
$end

$molecule
0 1
C          0.00000        0.00000        0.00000
C          1.38508        0.00000        0.00000
N         -0.72771       -1.11322        0.00000
C          2.04720       -1.21160       -0.00386
C         -0.08136       -2.27149       -0.00595
C          1.30925       -2.38901       -0.00649
C          1.96927       -3.70493        0.02329
C          3.04486       -3.95576        0.82999
C          1.55200       -4.80802       -0.77739
N          3.72631       -5.12438        0.91627
N          0.54624       -4.84522       -1.65350
C          2.26335       -6.04410       -0.69858
C          3.37925       -6.16090        0.19241
S          0.53898       -6.32692       -2.28381
N          1.78433       -6.98642       -1.50573
C          4.16725       -7.35995        0.35676
S          5.06496       -8.15878       -0.88894
C          4.32237       -8.04556        1.53959
C          5.63115       -9.38639        0.17604
S          3.72053       -7.80508        3.14433
C          5.14886       -9.19456        1.45397
C          6.50661      -10.44775       -0.27480
C          4.57681       -9.23656        3.67656
C          5.27651       -9.86847        2.71759
N          6.96111      -11.38075        0.51157
S          7.04969      -10.59051       -1.92413
C          7.76660      -12.24615       -0.16700
C          7.93858      -11.98989       -1.48674
H         -0.55134        0.93273        0.00000
H          1.92494        0.93597       -0.01293
H          3.12873       -1.25416       -0.02668
H         -0.69553       -3.16348       -0.00579
H          3.41622       -3.17720        1.48423
H          4.50734       -9.52615        4.71363
H          5.86703      -10.75832        2.85472
H          8.22089      -13.07363        0.35627
H          8.52538      -12.53353       -2.20616
$end

$opt
CONSTRAINT
tors 4 6 7 8 42.24575
tors 10 13 16 17 -120.00000
tors 17 19 22 25 179.21698
ENDCONSTRAINT
$end
--------------------------------------------------------------

   16   -2595.8941492714      4.46E-09 Convergence criterion met
 Total energy in the final basis set = -2595.8941492714
   13   -2595.8956809971      4.14E-09 Convergence criterion met
 Total energy in the final basis set = -2595.8956809971
   12   -2595.8959699538      7.75E-09 Convergence criterion met
 Total energy in the final basis set = -2595.8959699538
   12   -2595.8960844199      6.01E-09 Convergence criterion met
 Total energy in the final basis set = -2595.8960844199
   12   -2595.8962028996      8.99E-09 Convergence criterion met
 Total energy in the final basis set = -2595.8962028996
   12   -2595.8962501097      6.65E-09 Convergence criterion met
 Total energy in the final basis set = -2595.8962501097
   10   -2595.8962573631      7.02E-09 Convergence criterion met
 Total energy in the final basis set = -2595.8962573631

             Standard Nuclear Orientation (Angstroms)
    I     Atom           X                Y                Z
 ----------------------------------------------------------------
    1      C      -7.5525597753     0.1644902575    -0.9428796969
    2      C      -6.7351724225     0.4455303712    -2.0250752650
    3      N      -7.0870090063    -0.1145078285     0.2707580480
    4      C      -5.3657618148     0.4350518365    -1.8371924788
    5      C      -5.7721255447    -0.1219002430     0.4400106508
    6      C      -4.8547335042     0.1519732045    -0.5752363494
    7      C      -3.4029248923     0.1581509798    -0.3250725600
    8      C      -2.5858577658     1.1262191071    -0.8414291859
    9      C      -2.7427135308    -0.8305903495     0.4601845796
   10      N      -1.2344118697     1.1966366577    -0.7023233384
   11      N      -3.2861483081    -1.8823197826     1.0768207322
   12      C      -1.3288673194    -0.7508295719     0.6365732536
   13      C      -0.6020781302     0.3166922568     0.0223433599
   14      S      -2.0745005224    -2.6555180780     1.8034810709
   15      N      -0.8271260911    -1.7326199100     1.3865102628
   16      C       0.8560177652     0.4224044689     0.1338677722
   17      S       1.9120809947    -0.8390329204    -0.3789486893
   18      C       1.5898448290     1.5351601692     0.4352077111
   19      C       3.3297738460     0.1063981039    -0.1353830078
   20      S       1.1858786692     3.1406259266     0.9662692409
   21      C       2.9967746770     1.3658506447     0.3130511257
   22      C       4.6602970222    -0.4128072115    -0.3731357811
   23      C       2.8863382170     3.5417767894     1.0477400956
   24      C       3.7192089571     2.5512015691     0.6829491999
   25      N       5.7415604401     0.2931997509    -0.2080616872
   26      S       4.9588043237    -2.0436351538    -0.9033389657
   27      C       6.8552318694    -0.4373008638    -0.5015209296
   28      C       6.6425295451    -1.7159656119    -0.8955124545
   29      H      -8.6306135376     0.1589834816    -1.0547925480
   30      H      -7.1634327549     0.6567420404    -2.9944217459
   31      H      -4.6936512983     0.6285894781    -2.6628463098
   32      H      -5.4212458261    -0.3547164603     1.4375934154
   33      H      -3.0174540502     1.9298005932    -1.4252112903
   34      H       3.1640122488     4.5342637064     1.3641398296
   35      H       4.7937125080     2.6240563305     0.6622100787
   36      H       7.8262282240     0.0252062265    -0.4112258605
   37      H       7.3647037952    -2.4643343081    -1.1696781988
 ----------------------------------------------------------------

    9   -2595.8962584130      4.80E-09 Convergence criterion met
 Total energy in the final basis set = -2595.8962584130
 Final energy is   -2595.89625841296
 **  OPTIMIZATION CONVERGED  **

                    Orbital Energies (a.u.)
 --------------------------------------------------------------

 Alpha MOs
 -- Occupied --
-89.158 -89.094 -89.090 -89.074 -14.496 -14.491 -14.458 -14.442
-14.439 -10.373 -10.371 -10.365 -10.361 -10.342 -10.341 -10.341
-10.333 -10.333 -10.330 -10.329 -10.326 -10.326 -10.325 -10.322
-10.318 -10.313 -10.305 -10.296  -8.168  -8.108  -8.106  -8.089
 -6.118  -6.113  -6.112  -6.058  -6.055  -6.054  -6.051  -6.051
 -6.049  -6.039  -6.035  -6.031  -1.155  -1.081  -1.076  -1.057
 -1.024  -1.017  -0.957  -0.949  -0.913  -0.910  -0.906  -0.886
 -0.863  -0.845  -0.829  -0.807  -0.776  -0.755  -0.747  -0.731
 -0.723  -0.695  -0.688  -0.679  -0.648  -0.641  -0.625  -0.625
 -0.608  -0.600  -0.586  -0.578  -0.571  -0.569  -0.542  -0.532
 -0.528  -0.523  -0.519  -0.513  -0.510  -0.505  -0.500  -0.497
 -0.486  -0.482  -0.475  -0.465  -0.456  -0.443  -0.436  -0.434
 -0.430  -0.425  -0.408  -0.392  -0.385  -0.373  -0.370  -0.368
 -0.366  -0.361  -0.345  -0.336  -0.324  -0.322  -0.271

          Ground-State Mulliken Net Atomic Charges

     Atom                 Charge (a.u.)
  ----------------------------------------
      1 C                    -0.069833
      2 C                    -0.102952
      3 N                    -0.154671
      4 C                    -0.156354
      5 C                    -0.095851
      6 C                     0.108393
      7 C                     0.042930
      8 C                    -0.104059
      9 C                     0.035258
     10 N                    -0.145928
     11 N                    -0.280116
     12 C                    -0.001405
     13 C                     0.036023
     14 S                     0.419907
     15 N                    -0.252343
     16 C                    -0.000426
     17 S                     0.134039
     18 C                    -0.041392
     19 C                    -0.035914
     20 S                     0.067374
     21 C                     0.042630
     22 C                     0.037847
     23 C                    -0.148994
     24 C                    -0.168313
     25 N                    -0.186725
     26 S                     0.096349
     27 C                    -0.077220
     28 C                    -0.202488
     29 H                     0.124641
     30 H                     0.130578
     31 H                     0.132897
     32 H                     0.130873
     33 H                     0.136089
     34 H                     0.132027
     35 H                     0.144811
     36 H                     0.128907
     37 H                     0.143410
  ----------------------------------------
  Sum of atomic charges =     0.000000

                    Cartesian Multipole Moments
 -----------------------------------------------------------------
    Charge (ESU x 10^10)
                 0.0000
    Dipole Moment (Debye)
         X       1.1957      Y      -0.7674      Z      -1.5312
       Tot       2.0889
    Quadrupole Moments (Debye-Ang)
        XX    -172.9294     XY      -7.8329     YY    -176.0419
        XZ      11.0952     YZ       1.4614     ZZ    -180.9241

 Total job time:  7223.56s(wall), 109065.69s(cpu)
        *  Thank you very much for using Q-Chem.  Have a nice day.  *
