 Q-Chem 4.4, Q-Chem, Inc., Pleasanton, CA (2016)
 Q-Chem 4.4.2 for Intel X86 Linux

User input:
--------------------------------------------------------------
$comment
SP
$end

$rem
MEM_STATIC 5000
MEM_TOTAL 20000
JOBTYPE SP
EXCHANGE B3LYP
BASIS 6-31g(d,p)
$end

$molecule
0 1
C         -21.413000    -13.489000     -3.929000
C         -20.775000    -12.636000     -3.030000
N         -22.744000    -13.641000     -3.931000
C         -21.570000    -11.980000     -2.041000
C         -23.429000    -12.960000     -3.030000
C         -22.984000    -12.057000     -2.045000
C         -23.873000    -11.417000     -1.050000
C         -25.060000    -12.120000     -0.701000
C         -23.664000    -10.226000     -0.321000
N         -26.021000    -11.603000      0.095000
N         -22.519000     -9.506000     -0.427000
C         -24.604000     -9.647000      0.528000
C         -25.867000    -10.308000      0.661000
S         -22.664000     -8.139000      0.583000
N         -24.176000     -8.498000      1.114000
C         -27.091000     -9.625000      1.137000
S         -27.230000     -7.879000      1.648000
C         -28.260000    -10.261000      1.488000
C         -28.780000     -8.103000      2.431000
S         -28.732000    -11.937000      1.158000
C         -29.136000     -9.415000      2.190000
C         -29.310000     -7.063000      3.266000
C         -30.192000    -11.597000      2.035000
C         -30.252000    -10.272000      2.551000
N         -30.243000     -7.305000      4.246000
S         -28.648000     -5.446000      3.224000
C         -30.588000     -6.065000      4.763000
C         -29.928000     -4.980000      4.203000
C         -20.712000    -14.209000     -5.069000
H         -19.692000    -12.624000     -2.950000
H         -21.038000    -11.433000     -1.269000
H         -24.501000    -13.137000     -3.102000
H         -25.219000    -13.088000     -1.173000
H         -30.879000    -12.421000      2.179000
H         -31.043000     -9.807000      3.128000
H         -31.379000     -6.032000      5.500000
H         -30.054000     -3.924000      4.402000
H         -19.619000    -14.115000     -5.058000
C         -21.247000    -13.733000     -6.464000
H         -20.889000    -15.289000     -4.996000
H         -21.144000    -12.645000     -6.558000
H         -22.334000    -13.798000     -6.592000
C         -20.512000    -14.331000     -7.617000
H         -19.425000    -14.231000     -7.507000
C         -20.992000    -13.647000     -8.908000
H         -20.810000    -15.386000     -7.610000
H         -20.622000    -12.614000     -8.945000
H         -22.080000    -13.540000     -9.001000
C         -20.408000    -14.307000    -10.238000
H         -20.550000    -15.385000    -10.091000
C         -18.913000    -14.041000    -10.467000
H         -20.987000    -13.984000    -11.112000
H         -18.335000    -14.363000     -9.593000
H         -18.713000    -12.993000    -10.721000
H         -18.613000    -14.622000    -11.348000
C         -20.506000    -11.784000      2.496000
C         -19.964000    -13.018000      3.014000
N         -21.688000    -11.732000      1.870000
C         -20.682000    -14.237000      3.007000
C         -22.360000    -12.887000      1.793000
C         -21.816000    -14.162000      2.161000
C         -22.487000    -15.428000      1.741000
C         -23.079000    -16.293000      2.650000
C         -22.548000    -15.836000      0.397000
N         -23.661000    -17.424000      2.351000
N         -22.150000    -15.047000     -0.602000
C         -23.138000    -17.028000      0.005000
C         -23.713000    -17.828000      1.070000
S         -22.302000    -15.964000     -1.984000
N         -23.194000    -17.220000     -1.343000
C         -24.216000    -19.193000      0.777000
S         -23.878000    -20.143000     -0.713000
C         -24.902000    -19.958000      1.632000
C         -24.674000    -21.544000     -0.070000
S         -25.464000    -19.608000      3.246000
C         -25.185000    -21.241000      1.146000
C         -24.815000    -22.825000     -0.790000
C         -26.307000    -21.222000      3.228000
C         -26.028000    -21.961000      2.083000
N         -25.340000    -23.914000     -0.210000
S         -24.415000    -23.044000     -2.481000
C         -25.552000    -24.952000     -1.079000
C         -24.994000    -24.739000     -2.287000
C         -19.652000    -10.488000      2.466000
H         -18.962000    -13.064000      3.431000
H         -20.237000    -15.172000      3.332000
H         -23.280000    -12.783000      1.220000
H         -22.964000    -16.078000      3.711000
H         -26.886000    -21.509000      4.096000
H         -26.297000    -22.986000      1.857000
H         -25.981000    -25.910000     -0.819000
H         -24.881000    -25.371000     -3.158000
H         -20.351000     -9.645000      2.525000
C         -18.997000    -10.341000      0.994000
H         -19.008000    -10.387000      3.348000
H         -19.814000    -10.418000      0.266000
H         -18.324000    -11.165000      0.727000
C         -18.230000     -8.971000      0.864000
H         -17.771000     -9.021000     -0.131000
C         -17.185000     -8.776000      1.932000
H         -18.975000     -8.166000      0.837000
H         -16.547000     -9.660000      1.810000
H         -17.712000     -8.665000      2.887000
C         -16.315000     -7.553000      1.587000
H         -16.513000     -7.315000      0.535000
C         -14.826000     -7.674000      1.758000
H         -16.735000     -6.673000      2.090000
H         -14.325000     -8.286000      0.998000
H         -14.706000     -8.324000      2.633000
H         -14.370000     -6.681000      1.860000
$end

--------------------------------------------------------------

             Standard Nuclear Orientation (Angstroms)
    I     Atom           X                Y                Z
 ----------------------------------------------------------------
    1      C       1.2804944314     4.0981937307    -1.6310194879
    2      C       0.3107668211     4.3336209535    -0.6578512678
    3      N       1.2431667374     3.0110050130    -2.4128739086
    4      C      -0.6924931971     3.3383883473    -0.4493725029
    5      C       0.2551661475     2.1578804546    -2.2108335107
    6      C      -0.8120899773     2.2074145613    -1.2931354470
    7      C      -1.8146450600     1.1305645812    -1.1343165990
    8      C      -1.4031017335    -0.1877634624    -1.4772776170
    9      C      -3.1188121953     1.2146910838    -0.5998319736
   10      N      -2.2441828556    -1.2443766878    -1.5012992290
   11      N      -3.6185109494     2.3698943143    -0.0934056200
   12      C      -4.0304962000     0.1620743167    -0.5781014131
   13      C      -3.6105322432    -1.0848722685    -1.1424891241
   14      S      -5.2154180313     2.0676462068     0.4246174039
   15      N      -5.2256569925     0.4863196171    -0.0184259130
   16      C      -4.5586075783    -2.1258264146    -1.5994449477
   17      S      -6.3796806271    -2.0436697334    -1.5226254798
   18      C      -4.2089460507    -3.4128856784    -1.9392585252
   19      C      -6.5923541436    -3.7578773464    -1.8090294514
   20      S      -2.5876843346    -4.0569606330    -2.2512487509
   21      C      -5.3260744834    -4.2610657684    -2.0315114375
   22      C      -7.8829957385    -4.3548712661    -1.6152059920
   23      C      -3.3507374217    -5.5991209847    -2.4875122388
   24      C      -4.7613982086    -5.5720733268    -2.3010033419
   25      N      -8.0475384097    -5.6978503805    -1.3727481447
   26      S      -9.3206518327    -3.3711624313    -1.4732240104
   27      C      -9.4166280049    -5.9186515429    -1.3452794887
   28      C     -10.2067904584    -4.7940176808    -1.5383260460
   29      C       2.3729446603     5.0857917747    -2.0059909546
   30      H       0.4261433344     5.1444234703     0.0553952105
   31      H      -1.3507496091     3.4776322495     0.4024060080
   32      H       0.2962553982     1.3064287069    -2.8883573809
   33      H      -0.3744626078    -0.3143929146    -1.8103774982
   34      H      -2.6995053638    -6.4434066746    -2.6739511852
   35      H      -5.4699675460    -6.3876987975    -2.3877188852
   36      H      -9.7573771536    -6.9404449022    -1.2464495916
   37      H     -11.2839646468    -4.7162992535    -1.6036606756
   38      H       2.4303998005     5.9650088599    -1.3523226718
   39      C       2.2262762992     5.5677312823    -3.4909315941
   40      H       3.3572964550     4.6124204777    -1.9058452641
   41      H       1.2298733908     5.9967111224    -3.6532477697
   42      H       2.1739020096     4.7659799899    -4.2370078630
   43      C       3.2107480485     6.6224548079    -3.8725225523
   44      H       3.2346943791     7.4437018647    -3.1454401327
   45      C       2.8452060600     7.1465631149    -5.2713172252
   46      H       4.1726698137     6.0972908171    -3.9005814273
   47      H       1.9222881470     7.7390109894    -5.2204640850
   48      H       2.6193568473     6.3713928914    -6.0142474088
   49      C       3.9162257290     8.1637731234    -5.8744396566
   50      H       4.8833147170     7.6774538200    -5.6953044437
   51      C       3.9304229185     9.5390212033    -5.1912755779
   52      H       3.7672869972     8.2806751309    -6.9549937620
   53      H       4.0782721000     9.4216045160    -4.1114617323
   54      H       3.0290133780    10.1221225752    -5.4154933972
   55      H       4.7649144901    10.1054093250    -5.6231902831
   56      C      -1.9692168195     1.7134824376     3.7320792279
   57      C      -0.8607855033     1.5171096223     4.6363257290
   58      N      -2.0103749956     1.1448916524     2.5209993282
   59      C       0.2035053236     0.6247394248     4.3670777643
   60      C      -0.9816513945     0.3449134357     2.2155478506
   61      C       0.2069661691     0.2221195371     3.0087029086
   62      C       1.4349833635    -0.4171087371     2.4494552142
   63      C       1.9298801952    -1.6219039068     2.9274883982
   64      C       2.1813264938     0.1690289714     1.4121820976
   65      N       3.0085782288    -2.2214933511     2.4983158796
   66      N       1.7567080136     1.2504503125     0.7570843725
   67      C       3.3423563954    -0.4018846769     0.9134886309
   68      C       3.7351832168    -1.6621134302     1.5154525649
   69      S       2.9856582409     1.6476654686    -0.2944946586
   70      N       3.8847700877     0.2491383818    -0.1537790785
   71      C       5.0459336555    -2.2665170698     1.1709057207
   72      S       6.4029680299    -1.4329697585     0.3339465900
   73      C       5.4474104520    -3.4881250124     1.5360583144
   74      C       7.4527964478    -2.7965204251     0.5540735372
   75      S       4.5972617501    -4.7297643836     2.4186221117
   76      C       6.7628363662    -3.7901869173     1.1608420170
   77      C       8.8495525118    -2.8566202234     0.0800455719
   78      C       6.0235719661    -5.8217703884     2.1200738693
   79      C       7.0775757052    -5.1685125036     1.4897428024
   80      N       9.6565990458    -3.8872379418     0.3706466911
   81      S       9.5736944110    -1.6641025731    -0.9787094345
   82      C      10.8527881865    -3.8545095256    -0.2968931132
   83      C      11.0556106882    -2.6879965707    -0.9404050082
   84      C      -3.0780967743     2.7542796630     4.0434606364
   85      H      -0.7930995302     2.0616057061     5.5738499280
   86      H       1.0664585704     0.5403627495     5.0198160506
   87      H      -1.0508211604    -0.0328293396     1.1966901867
   88      H       1.4518482926    -2.0611611314     3.8013931932
   89      H       5.9809705449    -6.8364406349     2.4937895499
   90      H       8.0783848183    -5.5335408431     1.2917593930
   91      H      11.6354312013    -4.5965957551    -0.2182614450
   92      H      11.9102886643    -2.2881143653    -1.4699838775
   93      H      -3.9929032255     2.4009676163     3.5525118055
   94      C      -2.7271863823     4.1254979734     3.2598534377
   95      H      -3.3262106206     2.7993662158     5.1108254859
   96      H      -2.5676218930     3.8654836844     2.2061296868
   97      H      -1.7773744560     4.5788324279     3.5689475611
   98      C      -3.8912328609     5.1734193933     3.4299871896
   99      H      -3.5095586852     6.0724643649     2.9307387919
  100      C      -4.2245186318     5.4563818265     4.8720436573
  101      H      -4.7527323463     4.8212659541     2.8489660265
  102      H      -3.2618724734     5.7854873564     5.2823921969
  103      H      -4.6627182779     4.5426097040     5.2904651892
  104      C      -5.1758640174     6.6645388274     4.9554260198
  105      H      -5.1430822263     7.1566990546     3.9760100382
  106      C      -4.9029106404     7.7080887015     6.0030438482
  107      H      -6.2085882139     6.2946122084     4.9764980492
  108      H      -4.0442822785     8.3570760732     5.7915781829
  109      H      -4.5058093979     7.1406645230     6.8532587651
  110      H      -5.8138039106     8.2802509264     6.2205130152
 ----------------------------------------------------------------

    9   -5663.4997636170      7.45E-06 Convergence criterion met
 Total energy in the final basis set = -5663.4997636170

                    Orbital Energies (a.u.)
 --------------------------------------------------------------

 Alpha MOs
 -- Occupied --
-88.985 -88.979 -88.930 -88.922 -88.922 -88.920 -88.912 -88.903
-14.383 -14.381 -14.373 -14.372 -14.354 -14.351 -14.346 -14.341
-14.333 -14.327 -10.274 -10.273 -10.271 -10.264 -10.253 -10.249
-10.249 -10.247 -10.246 -10.244 -10.240 -10.238 -10.234 -10.233
-10.232 -10.230 -10.230 -10.230 -10.228 -10.228 -10.228 -10.224
-10.224 -10.223 -10.223 -10.223 -10.219 -10.217 -10.216 -10.214
-10.213 -10.212 -10.208 -10.204 -10.202 -10.200 -10.198 -10.194
-10.193 -10.188 -10.188 -10.180 -10.179 -10.177 -10.176 -10.176
-10.175 -10.174 -10.174 -10.172  -8.039  -8.034  -7.992  -7.983
 -7.981  -7.979  -7.971  -7.962  -6.004  -5.999  -5.999  -5.997
 -5.993  -5.991  -5.956  -5.953  -5.949  -5.947  -5.946  -5.943
 -5.943  -5.942  -5.940  -5.940  -5.938  -5.936  -5.935  -5.932
 -5.927  -5.927  -5.924  -5.918  -1.023  -1.015  -0.963  -0.962
 -0.961  -0.948  -0.941  -0.938  -0.912  -0.909  -0.893  -0.884
 -0.843  -0.834  -0.829  -0.824  -0.819  -0.809  -0.807  -0.805
 -0.804  -0.796  -0.791  -0.790  -0.781  -0.778  -0.765  -0.763
 -0.749  -0.748  -0.740  -0.737  -0.721  -0.720  -0.707  -0.705
 -0.691  -0.689  -0.673  -0.672  -0.656  -0.651  -0.641  -0.636
 -0.633  -0.632  -0.624  -0.617  -0.608  -0.607  -0.593  -0.592
 -0.591  -0.588  -0.587  -0.584  -0.581  -0.578  -0.566  -0.565
 -0.551  -0.548  -0.538  -0.533  -0.521  -0.517  -0.516  -0.507
 -0.506  -0.502  -0.494  -0.492  -0.487  -0.486  -0.480  -0.473
 -0.471  -0.468  -0.466  -0.463  -0.459  -0.455  -0.448  -0.446
 -0.445  -0.444  -0.438  -0.434  -0.433  -0.430  -0.429  -0.427
 -0.426  -0.426  -0.424  -0.422  -0.422  -0.416  -0.415  -0.412
 -0.410  -0.407  -0.405  -0.402  -0.400  -0.397  -0.397  -0.395
 -0.394  -0.392  -0.389  -0.387  -0.385  -0.382  -0.381  -0.378
 -0.376  -0.374  -0.374  -0.370  -0.366  -0.364  -0.357  -0.354
 -0.351  -0.346  -0.346  -0.344  -0.341  -0.340  -0.339  -0.338
 -0.335  -0.332  -0.332  -0.330  -0.328  -0.325  -0.323  -0.318
 -0.314  -0.314  -0.306  -0.303  -0.301  -0.299  -0.298  -0.296
 -0.294  -0.292  -0.291  -0.289  -0.287  -0.285  -0.278  -0.274
 -0.271  -0.270  -0.265  -0.259  -0.256  -0.254  -0.253  -0.249
 -0.243  -0.241  -0.230  -0.224  -0.195  -0.190

          Ground-State Mulliken Net Atomic Charges

     Atom                 Charge (a.u.)
  ----------------------------------------
      1 C                     0.235063
      2 C                    -0.112581
      3 N                    -0.465243
      4 C                    -0.076398
      5 C                     0.035868
      6 C                     0.103143
      7 C                     0.041035
      8 C                     0.059932
      9 C                     0.273705
     10 N                    -0.518328
     11 N                    -0.597316
     12 C                     0.228739
     13 C                     0.272545
     14 S                     0.597258
     15 N                    -0.570581
     16 C                    -0.220707
     17 S                     0.307434
     18 C                    -0.117653
     19 C                    -0.224867
     20 S                     0.317716
     21 C                     0.171958
     22 C                     0.055134
     23 C                    -0.308683
     24 C                    -0.086786
     25 N                    -0.430537
     26 S                     0.298853
     27 C                     0.112905
     28 C                    -0.301039
     29 C                    -0.222770
     30 H                     0.091377
     31 H                     0.126344
     32 H                     0.088908
     33 H                     0.121933
     34 H                     0.133636
     35 H                     0.113590
     36 H                     0.114737
     37 H                     0.135942
     38 H                     0.091344
     39 C                    -0.175150
     40 H                     0.110039
     41 H                     0.089266
     42 H                     0.119111
     43 C                    -0.164175
     44 H                     0.092670
     45 C                    -0.186206
     46 H                     0.094321
     47 H                     0.090394
     48 H                     0.091996
     49 C                    -0.182034
     50 H                     0.092002
     51 C                    -0.314971
     52 H                     0.088415
     53 H                     0.103868
     54 H                     0.102520
     55 H                     0.101311
     56 C                     0.249220
     57 C                    -0.120322
     58 N                    -0.456626
     59 C                    -0.065566
     60 C                     0.097124
     61 C                     0.010160
     62 C                    -0.003626
     63 C                     0.068493
     64 C                     0.241167
     65 N                    -0.503674
     66 N                    -0.568654
     67 C                     0.210659
     68 C                     0.293427
     69 S                     0.619706
     70 N                    -0.570095
     71 C                    -0.224568
     72 S                     0.312380
     73 C                    -0.095331
     74 C                    -0.235839
     75 S                     0.270951
     76 C                     0.157921
     77 C                     0.068119
     78 C                    -0.319343
     79 C                    -0.042837
     80 N                    -0.451813
     81 S                     0.247457
     82 C                     0.141817
     83 C                    -0.302741
     84 C                    -0.227239
     85 H                     0.086954
     86 H                     0.112014
     87 H                     0.102887
     88 H                     0.105142
     89 H                     0.127782
     90 H                     0.127102
     91 H                     0.121837
     92 H                     0.130603
     93 H                     0.115095
     94 C                    -0.208285
     95 H                     0.102572
     96 H                     0.135653
     97 H                     0.090915
     98 C                    -0.191205
     99 H                     0.092829
    100 C                    -0.163543
    101 H                     0.089450
    102 H                     0.093247
    103 H                     0.101519
    104 C                    -0.179039
    105 H                     0.094191
    106 C                    -0.320447
    107 H                     0.091930
    108 H                     0.103466
    109 H                     0.101849
    110 H                     0.106169
  ----------------------------------------
  Sum of atomic charges =     0.000000

                    Cartesian Multipole Moments
 -----------------------------------------------------------------
    Charge (ESU x 10^10)
                 0.0000
    Dipole Moment (Debye)
         X      -1.0021      Y       2.2072      Z       1.3717
       Tot       2.7853
    Quadrupole Moments (Debye-Ang)
        XX    -378.7992     XY       2.6584     YY    -425.0024
        XZ      -8.4902     YZ      11.4167     ZZ    -441.4564

 Total job time:  88.00s(wall), 1057.05s(cpu)
        *  Thank you very much for using Q-Chem.  Have a nice day.  *
