 Q-Chem 4.4, Q-Chem, Inc., Pleasanton, CA (2016)
 Q-Chem 4.4.2 for Intel X86 Linux

User input:
--------------------------------------------------------------
$comment
SP
$end

$rem
MEM_STATIC 5000
MEM_TOTAL 20000
JOBTYPE SP
EXCHANGE B3LYP
BASIS 6-31g(d,p)
$end

$molecule
0 1
C          -3.002000    -13.483000    -13.705000
C          -2.301000    -12.609000    -14.527000
N          -2.973000    -13.382000    -12.377000
C          -1.430000    -11.731000    -13.860000
C          -2.202000    -12.487000    -11.787000
C          -1.337000    -11.685000    -12.460000
C          -0.511000    -10.679000    -11.692000
C          -1.122000     -9.776000    -10.714000
C           0.845000    -10.426000    -11.887000
N          -0.458000     -8.948000     -9.903000
N           1.625000    -11.053000    -12.786000
C           1.570000     -9.617000    -11.006000
C           0.890000     -8.905000     -9.990000
S           3.107000    -10.161000    -12.758000
N           2.938000     -9.557000    -11.263000
C           1.494000     -8.186000     -8.833000
S           0.682000     -6.828000     -7.995000
C           2.590000     -8.554000     -8.148000
C           1.866000     -6.899000     -6.669000
S           3.706000     -9.936000     -8.372000
C           2.811000     -7.859000     -6.930000
C           1.675000     -6.273000     -5.347000
C           4.504000     -9.389000     -6.865000
C           3.915000     -8.410000     -6.188000
N           2.680000     -5.790000     -4.629000
S           0.081000     -6.084000     -4.604000
C           2.218000     -5.302000     -3.416000
C           0.850000     -5.373000     -3.179000
C          -3.915000    -14.527000    -14.380000
H          -2.104000    -12.807000    -15.576000
H          -0.822000    -11.034000    -14.429000
H          -2.105000    -12.511000    -10.703000
H          -2.205000     -9.700000    -10.621000
H           5.368000     -9.908000     -6.472000
H           4.138000     -8.072000     -5.182000
H           2.959000     -4.893000     -2.742000
H           0.296000     -5.225000     -2.262000
H          -3.356000    -15.127000    -15.109000
C          -5.114000    -13.844000    -15.054000
H          -4.224000    -15.203000    -13.573000
H          -4.785000    -13.176000    -15.859000
H          -5.626000    -13.270000    -14.271000
C          -6.179000    -14.875000    -15.519000
H          -5.766000    -15.862000    -15.762000
C          -7.116000    -14.323000    -16.631000
H          -6.739000    -15.287000    -14.670000
H          -7.516000    -13.408000    -16.177000
H          -8.035000    -14.918000    -16.714000
C          -6.445000    -14.171000    -18.001000
H          -5.883000    -13.240000    -17.856000
C          -7.443000    -13.993000    -19.148000
H          -5.642000    -14.905000    -18.142000
H          -6.884000    -14.113000    -20.084000
H          -7.825000    -12.965000    -19.148000
H          -8.232000    -14.755000    -19.138000
C           6.713000    -14.123000    -17.684000
C           7.295000    -13.117000    -16.845000
N           5.706000    -14.860000    -17.321000
C           6.877000    -13.000000    -15.565000
C           5.291000    -14.740000    -16.052000
C           5.832000    -13.885000    -15.127000
C           5.375000    -13.739000    -13.696000
C           6.270000    -13.693000    -12.655000
C           4.028000    -13.936000    -13.252000
N           5.975000    -13.628000    -11.324000
N           2.969000    -13.992000    -14.114000
C           3.654000    -13.897000    -11.901000
C           4.663000    -13.672000    -10.962000
S           1.583000    -14.085000    -13.119000
N           2.314000    -13.933000    -11.692000
C           4.254000    -13.690000     -9.565000
S           2.598000    -14.048000     -8.824000
C           5.064000    -13.254000     -8.506000
C           3.150000    -13.601000     -7.196000
S           6.770000    -12.907000     -8.596000
C           4.497000    -13.267000     -7.239000
C           2.371000    -13.736000     -6.016000
C           6.772000    -12.705000     -6.819000
C           5.483000    -12.858000     -6.296000
N           1.091000    -14.145000     -6.142000
S           2.897000    -13.617000     -4.350000
C           0.520000    -14.351000     -4.925000
C           1.348000    -14.168000     -3.891000
C           7.118000    -14.166000    -19.177000
H           7.919000    -12.319000    -17.238000
H           7.165000    -12.155000    -14.947000
H           4.544000    -15.478000    -15.764000
H           7.351000    -13.698000    -12.788000
H           7.658000    -12.510000     -6.231000
H           5.328000    -12.652000     -5.243000
H          -0.513000    -14.675000     -4.931000
H           1.034000    -14.133000     -2.856000
H           6.413000    -13.568000    -19.768000
C           7.344000    -15.577000    -19.778000
H           8.041000    -13.575000    -19.217000
H           6.365000    -16.064000    -19.864000
H           7.889000    -16.296000    -19.153000
C           8.080000    -15.701000    -21.124000
H           9.151000    -15.467000    -21.166000
C           7.433000    -14.842000    -22.167000
H           8.026000    -16.695000    -21.586000
H           7.639000    -13.821000    -21.821000
H           6.347000    -14.970000    -22.246000
C           8.126000    -15.058000    -23.595000
H           9.187000    -14.794000    -23.693000
C           7.292000    -14.225000    -24.640000
H           8.021000    -16.133000    -23.786000
H           6.207000    -14.384000    -24.598000
H           7.660000    -14.562000    -25.617000
H           7.499000    -13.176000    -24.397000
$end

--------------------------------------------------------------

             Standard Nuclear Orientation (Angstroms)
    I     Atom           X                Y                Z
 ----------------------------------------------------------------
    1      C       1.9366016657     5.5227702521    -0.9412233054
    2      C       2.4571423336     4.9635734194     0.2195080654
    3      N       0.6815909524     5.3039624574    -1.3307066279
    4      C       1.6286692449     4.0210798103     0.8517676151
    5      C      -0.0951577760     4.4718329724    -0.6615370432
    6      C       0.3360592805     3.7275710185     0.3894072912
    7      C      -0.6386031340     2.8172783966     1.1004182056
    8      C      -1.9515120863     3.2964923800     1.5384114031
    9      C      -0.3802347987     1.5084084789     1.5015108902
   10      N      -2.9202412547     2.5370937518     2.0571391948
   11      N       0.7790272532     0.8554873608     1.3026755095
   12      C      -1.3984860562     0.6782061296     1.9812977552
   13      C      -2.6841621808     1.2167965710     2.2232837862
   14      S       0.6109381209    -0.5989022201     2.2242334245
   15      N      -1.0098467575    -0.6370084077     2.2267426905
   16      C      -3.9382089465     0.4648186469     2.5102017381
   17      S      -5.3171311249     1.1712140732     3.4076041715
   18      C      -4.2914517864    -0.7250371582     1.9951020787
   19      C      -6.3589572052    -0.1930548158     2.9401196082
   20      S      -3.4294181609    -1.8213505718     0.8723594869
   21      C      -5.6415582566    -1.1073387693     2.2106200530
   22      C      -7.8316422286    -0.1840034916     3.0247239534
   23      C      -4.9166270546    -2.8188993786     0.8853242245
   24      C      -5.9781848142    -2.3166010075     1.5053907286
   25      N      -8.5431114264    -1.2734638795     3.2810940840
   26      S      -8.7885728863     1.2889975549     2.8169797995
   27      C      -9.8988682657    -0.9830028582     3.2584492698
   28      C     -10.2650283100     0.3349063123     3.0101022541
   29      C       2.8287626351     6.5050202430    -1.7275843929
   30      H       3.5204911839     4.9167455562     0.4328396705
   31      H       1.9704708856     3.5141823894     1.7492422070
   32      H      -1.0706611989     4.2187879837    -1.0731221566
   33      H      -2.2035092674     4.3558628480     1.4990968728
   34      H      -4.9748528481    -3.7397152132     0.3205110202
   35      H      -7.0004136423    -2.6765934479     1.4671459145
   36      H     -10.5760722123    -1.8062341129     3.4437142587
   37      H     -11.2339803862     0.7531161594     2.7735829146
   38      H       3.7934567953     6.0466569380    -1.9789611181
   39      C       3.0416768433     7.8007906823    -0.9313353687
   40      H       2.2984652662     6.6820834877    -2.6715861450
   41      H       3.5756609978     7.6035092785     0.0059111146
   42      H       2.0429880949     8.2043887873    -0.7205313047
   43      C       3.7164975673     8.9033043245    -1.7930149259
   44      H       4.3594745816     8.5122695059    -2.5914254279
   45      C       4.4143057117    10.0008337905    -0.9399558043
   46      H       3.0174282064     9.3273181055    -2.5249024460
   47      H       3.6057187840    10.3472345020    -0.2845668148
   48      H       4.5944545319    10.9114532335    -1.5262949831
   49      C       5.7032605737     9.5376702828    -0.2512469189
   50      H       5.2956606957     8.9772619312     0.5993027969
   51      C       6.5644607192    10.6939564399     0.2631786173
   52      H       6.2081968041     8.7505506785    -0.8247694832
   53      H       7.5411167241    10.2740435706     0.5329808232
   54      H       6.1336565325    11.0901673776     1.1906119818
   55      H       6.7377473941    11.4595516724    -0.5030463290
   56      C       7.0733993943    -3.5250632173     0.5993235473
   57      C       6.0023041739    -4.2042165317     1.2672957057
   58      N       6.8849647674    -2.5943596144    -0.2879589302
   59      C       4.7284313536    -3.9735668008     0.8788864633
   60      C       5.6204751127    -2.3650349201    -0.6693538670
   61      C       4.5211821060    -3.0187386417    -0.1758385890
   62      C       3.0927001250    -2.7708102314    -0.5952390342
   63      C       2.2325791934    -3.8058920916    -0.8702290807
   64      C       2.5856980870    -1.5058321933    -1.0347085970
   65      N       0.9468336971    -3.7052264802    -1.3169235549
   66      N       3.2640012039    -0.3345436974    -0.8458987957
   67      C       1.2811405108    -1.3303611150    -1.5183793850
   68      C       0.4628420865    -2.4603044597    -1.5819618236
   69      S       2.2066927220     0.8912416875    -1.3929079036
   70      N       0.9312946659    -0.0354847552    -1.7220460188
   71      C      -0.8672991759    -2.2578676458    -2.1378013312
   72      S      -1.6270172476    -0.7329661066    -2.8568873813
   73      C      -1.8997611595    -3.2045208433    -2.0633233056
   74      C      -3.2197282566    -1.5064009528    -2.9981926548
   75      S      -1.7282070966    -4.8731630046    -1.5888261603
   76      C      -3.1323847451    -2.8268922331    -2.5780880373
   77      C      -4.3540695138    -0.9086286280    -3.6092607033
   78      C      -3.4370824703    -5.1283486141    -2.0505211481
   79      C      -4.0256788844    -3.9313864961    -2.4739534913
   80      N      -4.2495824289     0.3686655362    -4.0325325629
   81      S      -5.8631445182    -1.6676651670    -4.0707248553
   82      C      -5.3650120087     0.7540448627    -4.7084509213
   83      C      -6.2781625362    -0.2113030225    -4.8584128322
   84      C       8.5139779692    -3.7107542476     1.1333415346
   85      H       6.1467697164    -4.7505815219     2.1953280351
   86      H       3.8828671321    -4.3327791215     1.4575752017
   87      H       5.5345654037    -1.6807398470    -1.5119431945
   88      H       2.4947170808    -4.8562407022    -0.7505356217
   89      H      -3.9371655251    -6.0864122760    -2.0223084170
   90      H      -5.0903182461    -3.9265468231    -2.6783785562
   91      H      -5.3709346972     1.7711413755    -5.0793695180
   92      H      -7.2829940113    -0.0495976160    -5.2261234088
   93      H       8.7452118711    -2.9172254989     1.8549737177
   94      C       9.6198645375    -3.8725867002     0.0590868370
   95      H       8.4489322326    -4.6076271222     1.7611935068
   96      H       9.7549765555    -2.9002524690    -0.4301134138
   97      H       9.3819117243    -4.5148858425    -0.7984918886
   98      C      10.9976191507    -4.4084341798     0.4873947922
   99      H      11.0859786510    -5.4577896683     0.7949767444
  100      C      11.5548995191    -3.6023259343     1.6205175073
  101      H      11.7849738721    -4.3059219493    -0.2702065444
  102      H      10.8835807356    -3.8379746640     2.4562170749
  103      H      11.5364984290    -2.5187591526     1.4544891077
  104      C      13.0367605024    -4.0854177302     1.9903814591
  105      H      13.1641898074    -5.1162535523     2.3455719433
  106      C      13.5816740789    -3.0944756806     3.0870003758
  107      H      13.5985075118    -3.9730524725     1.0549963265
  108      H      13.4636546247    -2.0299355944     2.8480530733
  109      H      14.6522988498    -3.3233581026     3.1569820643
  110      H      12.9947917657    -3.3157309834     3.9863969743
 ----------------------------------------------------------------

   10   -5663.4960285280      5.03E-06 Convergence criterion met
 Total energy in the final basis set = -5663.4960285280

                    Orbital Energies (a.u.)
 --------------------------------------------------------------

 Alpha MOs
 -- Occupied --
-88.991 -88.982 -88.930 -88.925 -88.922 -88.920 -88.912 -88.904
-14.394 -14.381 -14.381 -14.374 -14.352 -14.349 -14.343 -14.339
-14.327 -14.326 -10.272 -10.267 -10.266 -10.261 -10.258 -10.256
-10.250 -10.247 -10.246 -10.243 -10.241 -10.238 -10.236 -10.235
-10.232 -10.232 -10.232 -10.231 -10.231 -10.231 -10.230 -10.226
-10.223 -10.223 -10.222 -10.221 -10.219 -10.217 -10.213 -10.213
-10.212 -10.211 -10.208 -10.208 -10.207 -10.200 -10.197 -10.191
-10.188 -10.186 -10.186 -10.180 -10.179 -10.178 -10.178 -10.176
-10.176 -10.171 -10.170 -10.170  -8.046  -8.037  -7.992  -7.983
 -7.981  -7.978  -7.971  -7.964  -6.011  -6.006  -6.003  -6.002
 -5.996  -5.994  -5.956  -5.952  -5.949  -5.947  -5.946  -5.943
 -5.943  -5.942  -5.940  -5.939  -5.938  -5.936  -5.935  -5.932
 -5.928  -5.928  -5.925  -5.919  -1.027  -1.020  -0.969  -0.961
 -0.959  -0.952  -0.951  -0.949  -0.909  -0.907  -0.897  -0.889
 -0.839  -0.838  -0.828  -0.828  -0.810  -0.810  -0.809  -0.807
 -0.803  -0.798  -0.797  -0.794  -0.788  -0.781  -0.766  -0.766
 -0.749  -0.749  -0.740  -0.738  -0.721  -0.721  -0.712  -0.710
 -0.696  -0.696  -0.675  -0.673  -0.654  -0.652  -0.645  -0.643
 -0.633  -0.631  -0.628  -0.626  -0.613  -0.608  -0.599  -0.599
 -0.594  -0.589  -0.587  -0.584  -0.577  -0.572  -0.569  -0.561
 -0.549  -0.541  -0.539  -0.538  -0.522  -0.520  -0.515  -0.511
 -0.510  -0.508  -0.501  -0.495  -0.491  -0.485  -0.474  -0.474
 -0.472  -0.470  -0.468  -0.464  -0.459  -0.457  -0.454  -0.447
 -0.447  -0.440  -0.439  -0.437  -0.435  -0.433  -0.432  -0.428
 -0.427  -0.425  -0.424  -0.419  -0.417  -0.416  -0.415  -0.412
 -0.409  -0.408  -0.407  -0.406  -0.404  -0.398  -0.396  -0.395
 -0.395  -0.393  -0.391  -0.387  -0.385  -0.383  -0.382  -0.379
 -0.377  -0.377  -0.375  -0.367  -0.366  -0.362  -0.358  -0.356
 -0.355  -0.350  -0.348  -0.347  -0.347  -0.342  -0.341  -0.341
 -0.338  -0.336  -0.336  -0.334  -0.328  -0.327  -0.318  -0.317
 -0.312  -0.308  -0.307  -0.300  -0.300  -0.298  -0.295  -0.293
 -0.292  -0.291  -0.287  -0.284  -0.283  -0.281  -0.281  -0.279
 -0.278  -0.277  -0.270  -0.269  -0.256  -0.255  -0.250  -0.247
 -0.246  -0.242  -0.238  -0.233  -0.198  -0.193

          Ground-State Mulliken Net Atomic Charges

     Atom                 Charge (a.u.)
  ----------------------------------------
      1 C                     0.253810
      2 C                    -0.108201
      3 N                    -0.475134
      4 C                    -0.075441
      5 C                     0.067357
      6 C                     0.056879
      7 C                    -0.012076
      8 C                     0.064920
      9 C                     0.286134
     10 N                    -0.474238
     11 N                    -0.595193
     12 C                     0.185830
     13 C                     0.258920
     14 S                     0.597954
     15 N                    -0.516699
     16 C                    -0.222374
     17 S                     0.300834
     18 C                    -0.098045
     19 C                    -0.234785
     20 S                     0.283601
     21 C                     0.151024
     22 C                     0.028810
     23 C                    -0.311919
     24 C                    -0.030080
     25 N                    -0.409368
     26 S                     0.265138
     27 C                     0.109591
     28 C                    -0.307400
     29 C                    -0.230358
     30 H                     0.102747
     31 H                     0.102323
     32 H                     0.109142
     33 H                     0.119251
     34 H                     0.122860
     35 H                     0.120066
     36 H                     0.111691
     37 H                     0.140560
     38 H                     0.103863
     39 C                    -0.173872
     40 H                     0.116433
     41 H                     0.101157
     42 H                     0.112849
     43 C                    -0.195217
     44 H                     0.086057
     45 C                    -0.179092
     46 H                     0.091311
     47 H                     0.092375
     48 H                     0.083610
     49 C                    -0.172829
     50 H                     0.095356
     51 C                    -0.318548
     52 H                     0.096877
     53 H                     0.101103
     54 H                     0.109709
     55 H                     0.107014
     56 C                     0.268229
     57 C                    -0.121125
     58 N                    -0.467605
     59 C                    -0.074086
     60 C                     0.081001
     61 C                     0.042652
     62 C                     0.046582
     63 C                     0.047123
     64 C                     0.191164
     65 N                    -0.522864
     66 N                    -0.575458
     67 C                     0.224956
     68 C                     0.303535
     69 S                     0.640679
     70 N                    -0.568275
     71 C                    -0.211745
     72 S                     0.369311
     73 C                    -0.160902
     74 C                    -0.222739
     75 S                     0.296999
     76 C                     0.181907
     77 C                     0.057285
     78 C                    -0.306955
     79 C                    -0.111463
     80 N                    -0.432869
     81 S                     0.286498
     82 C                     0.134060
     83 C                    -0.313688
     84 C                    -0.226764
     85 H                     0.092602
     86 H                     0.104046
     87 H                     0.107648
     88 H                     0.110882
     89 H                     0.130615
     90 H                     0.111972
     91 H                     0.117242
     92 H                     0.131942
     93 H                     0.123702
     94 C                    -0.174763
     95 H                     0.092109
     96 H                     0.115860
     97 H                     0.093042
     98 C                    -0.182659
     99 H                     0.088357
    100 C                    -0.165670
    101 H                     0.087483
    102 H                     0.088291
    103 H                     0.091442
    104 C                    -0.193219
    105 H                     0.095399
    106 C                    -0.314845
    107 H                     0.091874
    108 H                     0.102902
    109 H                     0.096649
    110 H                     0.105370
  ----------------------------------------
  Sum of atomic charges =     0.000000

                    Cartesian Multipole Moments
 -----------------------------------------------------------------
    Charge (ESU x 10^10)
                 0.0000
    Dipole Moment (Debye)
         X      -2.0129      Y      -0.5855      Z       0.4543
       Tot       2.1450
    Quadrupole Moments (Debye-Ang)
        XX    -397.4513     XY       8.1349     YY    -426.7540
        XZ      27.3008     YZ       0.3679     ZZ    -449.1719

 Total job time:  94.28s(wall), 1122.13s(cpu)
        *  Thank you very much for using Q-Chem.  Have a nice day.  *
