 Q-Chem 4.4, Q-Chem, Inc., Pleasanton, CA (2016)
 Q-Chem 4.4.2 for Intel X86 Linux

User input:
--------------------------------------------------------------
$comment
SP
$end

$rem
MEM_STATIC 5000
MEM_TOTAL 20000
JOBTYPE SP
EXCHANGE B3LYP
BASIS 6-31g(d,p)
$end

$molecule
0 1
C          10.404000     23.563000      2.597000
C          11.311000     23.987000      3.548000
N           9.295000     22.853000      2.887000
C          11.186000     23.472000      4.865000
C           9.156000     22.401000      4.212000
C          10.069000     22.712000      5.243000
C           9.967000     22.329000      6.729000
C          10.557000     23.159000      7.686000
C           9.207000     21.243000      7.188000
N          10.432000     22.887000      8.991000
N           8.476000     20.459000      6.376000
C           9.153000     20.929000      8.557000
C           9.818000     21.749000      9.456000
S           7.737000     19.400000      7.382000
N           8.497000     19.839000      8.815000
C           9.663000     21.599000     10.862000
S           8.195000     21.045000     11.685000
C          10.484000     22.199000     11.847000
C           8.987000     21.347000     13.300000
S          11.928000     23.130000     11.624000
C          10.084000     22.095000     13.184000
C           8.272000     21.179000     14.576000
C          11.945000     23.422000     13.359000
C          10.916000     22.801000     14.074000
N           8.831000     21.515000     15.673000
S           6.708000     20.347000     14.684000
C           7.944000     21.354000     16.693000
C           6.747000     20.773000     16.366000
C          10.648000     23.945000      1.175000
H          12.145000     24.561000      3.156000
H          11.988000     23.568000      5.590000
H           8.203000     21.899000      4.371000
H          11.234000     23.981000      7.454000
H          12.829000     23.955000     13.685000
H          10.766000     22.850000     15.146000
H           8.208000     21.655000     17.698000
H           5.875000     20.624000     16.989000
H          11.622000     24.434000      1.046000
C           9.466000     24.800000      0.538000
H          10.852000     23.028000      0.609000
H           9.405000     25.807000      0.970000
H           8.500000     24.329000      0.757000
C           9.518000     24.962000     -0.998000
H          10.321000     25.676000     -1.219000
C           8.110000     25.433000     -1.516000
H           9.902000     24.095000     -1.551000
H           7.834000     26.377000     -1.031000
H           7.358000     24.650000     -1.360000
C           8.071000     25.741000     -3.041000
H           7.183000     26.383000     -3.105000
C           7.970000     24.493000     -3.918000
H           8.918000     26.408000     -3.242000
H           7.962000     24.730000     -4.989000
H           7.126000     23.831000     -3.687000
H           8.837000     23.881000     -3.643000
C          12.537000     30.540000      5.572000
C          12.637000     29.338000      4.853000
N          11.727000     30.564000      6.629000
C          11.945000     28.145000      5.183000
C          11.086000     29.408000      7.000000
C          11.075000     28.198000      6.301000
C          10.155000     27.042000      6.651000
C           9.458000     26.363000      5.615000
C           9.848000     26.642000      7.988000
N           8.452000     25.533000      5.886000
N          10.383000     27.246000      9.099000
C           8.851000     25.768000      8.232000
C           8.100000     25.175000      7.147000
S           9.702000     26.472000     10.377000
N           8.653000     25.525000      9.556000
C           7.090000     24.136000      7.362000
S           6.711000     23.145000      8.798000
C           6.311000     23.638000      6.268000
C           5.445000     22.238000      7.924000
S           6.112000     24.190000      4.631000
C           5.394000     22.645000      6.607000
C           4.543000     21.267000      8.582000
C           4.880000     22.966000      4.419000
C           4.588000     22.242000      5.528000
N           3.393000     21.005000      7.992000
S           4.995000     20.274000      9.982000
C           2.785000     19.956000      8.658000
C           3.482000     19.483000      9.732000
C          13.221000     31.775000      5.086000
H          13.400000     29.268000      4.083000
H          12.060000     27.279000      4.538000
H          10.579000     29.526000      7.957000
H           9.695000     26.590000      4.577000
H           4.500000     22.749000      3.429000
H           3.850000     21.448000      5.545000
H           1.864000     19.584000      8.229000
H           3.230000     18.717000     10.453000
H          13.305000     32.526000      5.880000
C          12.623000     32.321000      3.832000
H          14.269000     31.532000      4.871000
H          12.655000     31.611000      2.997000
H          13.232000     33.194000      3.571000
C          11.136000     32.738000      3.915000
H          10.788000     32.942000      2.895000
C          10.928000     33.876000      4.881000
H          10.695000     31.823000      4.328000
H          11.448000     33.674000      5.826000
H           9.875000     34.008000      5.158000
C          11.386000     35.228000      4.307000
H          12.468000     35.277000      4.130000
C          10.893000     36.394000      5.242000
H          10.855000     35.221000      3.347000
H          11.395000     36.413000      6.217000
H           9.813000     36.337000      5.420000
H          11.202000     37.378000      4.868000
$end

--------------------------------------------------------------

             Standard Nuclear Orientation (Angstroms)
    I     Atom           X                Y                Z
 ----------------------------------------------------------------
    1      C       3.3737653970     3.0761697723    -2.3572759225
    2      C       3.1721622470     1.7931445143    -2.8263477264
    3      N       2.4414199695     3.7802307048    -1.6841405667
    4      C       1.8536860477     1.2683410969    -2.7870936188
    5      C       1.1544190988     3.2179677205    -1.6020485722
    6      C       0.8232753792     1.9465911855    -2.1189591478
    7      C      -0.5273862263     1.2183332718    -2.0157959829
    8      C      -0.5470251368    -0.1789721755    -2.0166904125
    9      C      -1.7418610784     1.8868890481    -1.8018777563
   10      N      -1.7001133789    -0.8422955181    -1.8649549554
   11      N      -1.8314499893     3.2185279282    -1.6373398575
   12      C      -2.9516221216     1.1755451504    -1.7235127285
   13      C      -2.9177276518    -0.2084674176    -1.8021662513
   14      S      -3.4208685854     3.4927717355    -1.3577386047
   15      N      -3.9979162873     1.9379390227    -1.6285174537
   16      C      -4.0726654601    -1.0008012839    -1.5537981709
   17      S      -5.3770469613    -0.5979291269    -0.4243948222
   18      C      -4.2059595608    -2.3764079754    -1.8607263597
   19      C      -6.1670157534    -2.2065089924    -0.7636780721
   20      S      -3.1000732338    -3.4014052230    -2.7139684555
   21      C      -5.3394224108    -3.0458062180    -1.3858021967
   22      C      -7.3723947238    -2.6622479530    -0.0516467966
   23      C      -4.1680952862    -4.7555271394    -2.3654562878
   24      C      -5.3327471719    -4.4259421024    -1.6649802436
   25      N      -7.8196090745    -3.8427833743    -0.2390539569
   26      S      -8.3594721983    -1.5683825521     0.9378584051
   27      C      -8.8754454361    -4.0569017786     0.5930835837
   28      C      -9.2973639359    -2.9769431740     1.3231337134
   29      C       4.7110851195     3.7014923502    -2.5765739693
   30      H       4.0254728384     1.3568491849    -3.3364491086
   31      H       1.5797911058     0.3803431174    -3.3478842652
   32      H       0.4884644794     3.8186190524    -0.9846213113
   33      H       0.3125904646    -0.8061343162    -2.2524141221
   34      H      -3.8508860858    -5.6728161237    -2.8448102722
   35      H      -6.1155697443    -5.1150992441    -1.3711499284
   36      H      -9.3486000298    -5.0288583033     0.6348836390
   37      H     -10.0535067956    -2.9367962388     2.0960180509
   38      H       5.3518633226     3.0795162596    -3.2145293260
   39      C       5.4437667663     4.1178236779    -1.2261059652
   40      H       4.5795612115     4.5499863677    -3.2589377754
   41      H       5.7646880549     3.2446664761    -0.6438688766
   42      H       4.7511202857     4.6648103158    -0.5749497082
   43      C       6.6763632763     5.0344142275    -1.3958457891
   44      H       7.4883424953     4.4114394339    -1.7908624401
   45      C       7.0212387355     5.6981960081    -0.0127031119
   46      H       6.6104695509     5.7674633317    -2.2102480409
   47      H       7.2118754776     4.9186689891     0.7346470464
   48      H       6.2241267831     6.3849860610     0.2969110974
   49      C       8.3183198450     6.5579506938    -0.0330126142
   50      H       8.5674032667     6.5912008255     1.0354703654
   51      C       8.1267188511     7.9456423754    -0.6449234377
   52      H       9.0959393465     5.9311374795    -0.4859056537
   53      H       9.0556084954     8.5287173486    -0.6664084133
   54      H       7.3312445145     8.5479207922    -0.1883905381
   55      H       7.7387062428     7.7608418455    -1.6534634617
   56      C       6.2186216369    -4.0474942999    -0.5575408975
   57      C       5.9897392609    -2.8796003511    -1.3027935944
   58      N       5.2735087709    -4.4309280947     0.2990016850
   59      C       4.8161679707    -2.0883421383    -1.2153072099
   60      C       4.1061467795    -3.7113359742     0.3646611178
   61      C       3.8311622017    -2.5049323956    -0.2847970313
   62      C       2.6126579599    -1.6525877040     0.0217840177
   63      C       2.7615748310    -0.2476057891     0.1766890987
   64      C       1.3104854282    -2.1829181604     0.2765668758
   65      N       1.7901750608     0.4979013658     0.7010730882
   66      N       1.0201790780    -3.5244007708     0.2377258009
   67      C       0.3324723066    -1.3964696854     0.7689185084
   68      C       0.5595798472     0.0126379236     1.0049543348
   69      S      -0.5692716603    -3.6303025040     0.6359119051
   70      N      -0.8330931555    -2.0590840738     1.0004964127
   71      C      -0.5068425161     0.9237347022     1.4274374740
   72      S      -2.2791041574     0.7137918438     1.4806415237
   73      C      -0.2186107638     2.2934965017     1.7313388883
   74      C      -2.5302782649     2.3888691009     2.0465997825
   75      S       1.2790674662     3.1496085691     1.9506697970
   76      C      -1.3233184387     3.0536404233     2.1103654988
   77      C      -3.8489585356     2.9141140976     2.4644622446
   78      C       0.3507162446     4.5548074064     2.4245096822
   79      C      -0.9911584634     4.3674370632     2.4843897492
   80      N      -3.8629736720     3.9590865867     3.2688751194
   81      S      -5.3985956611     2.3764719961     1.7862891474
   82      C      -5.1677880093     4.4010378069     3.3944126208
   83      C      -6.0870451260     3.6654884764     2.7037987375
   84      C       7.5306888148    -4.7554304213    -0.6386776255
   85      H       6.6855278596    -2.6420927255    -2.1024418631
   86      H       4.7537320482    -1.1794858899    -1.8063131958
   87      H       3.3663892330    -4.2127926841     0.9876554521
   88      H       3.7183509877     0.2151039952    -0.0591520378
   89      H       0.8395265626     5.5152631637     2.5253968045
   90      H      -1.6910590219     5.1487058466     2.7584833395
   91      H      -5.3151791739     5.3064120657     3.9682063957
   92      H      -7.1646302930     3.7482665008     2.6584224605
   93      H       7.4581025524    -5.7800201153    -0.2560025763
   94      C       8.6513266947    -3.9845468046    -0.0237425137
   95      H       7.7796022891    -4.9091675060    -1.6960257192
   96      H       8.8077360982    -3.0063328051    -0.4938302393
   97      H       9.5487071308    -4.5940104549    -0.1799264176
   98      C       8.5060101194    -3.6601391558     1.4814451060
   99      H       9.2956623949    -2.9470569704     1.7480592104
  100      C       8.4885026877    -4.9101815621     2.3232001014
  101      H       7.5111165755    -3.1993028662     1.4910237526
  102      H       7.7955539461    -5.6469678601     1.8975277008
  103      H       8.1217957930    -4.7291814399     3.3409068416
  104      C       9.8861446675    -5.5332758045     2.4828699531
  105      H      10.3038088029    -5.9032866685     1.5378288797
  106      C       9.8413838702    -6.6581619930     3.5826233501
  107      H      10.4526219085    -4.6555899956     2.8181029410
  108      H       9.2648457578    -7.5408838202     3.2803056685
  109      H       9.4183113913    -6.2848490465     4.5222935697
  110      H      10.8210204082    -7.1308425034     3.7257959333
 ----------------------------------------------------------------

   10   -5663.5222419897      4.40E-06 Convergence criterion met
 Total energy in the final basis set = -5663.5222419897

                    Orbital Energies (a.u.)
 --------------------------------------------------------------

 Alpha MOs
 -- Occupied --
-88.984 -88.984 -88.930 -88.930 -88.925 -88.924 -88.909 -88.906
-14.382 -14.381 -14.377 -14.374 -14.347 -14.346 -14.345 -14.343
-14.327 -14.325 -10.274 -10.269 -10.264 -10.256 -10.250 -10.247
-10.246 -10.246 -10.244 -10.244 -10.240 -10.239 -10.239 -10.238
-10.231 -10.230 -10.230 -10.230 -10.229 -10.229 -10.229 -10.225
-10.225 -10.224 -10.223 -10.222 -10.220 -10.216 -10.215 -10.215
-10.213 -10.211 -10.205 -10.205 -10.200 -10.197 -10.195 -10.189
-10.186 -10.182 -10.180 -10.177 -10.177 -10.176 -10.175 -10.175
-10.172 -10.170 -10.169 -10.164  -8.039  -8.039  -7.991  -7.987
 -7.985  -7.984  -7.970  -7.966  -6.004  -6.004  -5.998  -5.998
 -5.997  -5.996  -5.954  -5.952  -5.951  -5.949  -5.948  -5.948
 -5.948  -5.946  -5.945  -5.944  -5.942  -5.940  -5.934  -5.931
 -5.930  -5.927  -5.926  -5.922  -1.038  -1.027  -0.987  -0.971
 -0.955  -0.952  -0.933  -0.924  -0.915  -0.910  -0.909  -0.887
 -0.844  -0.844  -0.828  -0.827  -0.813  -0.813  -0.812  -0.809
 -0.804  -0.798  -0.794  -0.791  -0.781  -0.778  -0.764  -0.761
 -0.748  -0.745  -0.742  -0.738  -0.723  -0.722  -0.708  -0.708
 -0.693  -0.691  -0.676  -0.669  -0.656  -0.650  -0.648  -0.639
 -0.638  -0.632  -0.627  -0.621  -0.612  -0.607  -0.597  -0.595
 -0.593  -0.591  -0.586  -0.584  -0.578  -0.576  -0.563  -0.554
 -0.553  -0.547  -0.540  -0.536  -0.527  -0.522  -0.514  -0.513
 -0.505  -0.500  -0.497  -0.496  -0.486  -0.482  -0.480  -0.474
 -0.472  -0.469  -0.466  -0.464  -0.460  -0.455  -0.451  -0.447
 -0.444  -0.440  -0.438  -0.435  -0.434  -0.433  -0.431  -0.429
 -0.427  -0.426  -0.424  -0.421  -0.418  -0.414  -0.413  -0.412
 -0.410  -0.409  -0.403  -0.402  -0.400  -0.399  -0.398  -0.396
 -0.394  -0.392  -0.390  -0.389  -0.388  -0.385  -0.382  -0.377
 -0.376  -0.376  -0.374  -0.372  -0.367  -0.362  -0.356  -0.355
 -0.353  -0.350  -0.349  -0.347  -0.345  -0.343  -0.342  -0.339
 -0.338  -0.337  -0.335  -0.334  -0.330  -0.325  -0.316  -0.312
 -0.311  -0.310  -0.309  -0.304  -0.302  -0.301  -0.299  -0.296
 -0.295  -0.295  -0.292  -0.291  -0.287  -0.286  -0.281  -0.277
 -0.270  -0.267  -0.264  -0.258  -0.254  -0.252  -0.250  -0.247
 -0.244  -0.243  -0.234  -0.229  -0.194  -0.192

          Ground-State Mulliken Net Atomic Charges

     Atom                 Charge (a.u.)
  ----------------------------------------
      1 C                     0.296423
      2 C                    -0.125548
      3 N                    -0.501595
      4 C                    -0.107433
      5 C                     0.078265
      6 C                     0.076486
      7 C                     0.049349
      8 C                     0.040574
      9 C                     0.225470
     10 N                    -0.511494
     11 N                    -0.556072
     12 C                     0.250051
     13 C                     0.273769
     14 S                     0.593764
     15 N                    -0.589698
     16 C                    -0.193561
     17 S                     0.332983
     18 C                    -0.125738
     19 C                    -0.277673
     20 S                     0.276129
     21 C                     0.191004
     22 C                     0.081227
     23 C                    -0.319227
     24 C                    -0.040703
     25 N                    -0.432948
     26 S                     0.250235
     27 C                     0.122775
     28 C                    -0.307963
     29 C                    -0.238216
     30 H                     0.086100
     31 H                     0.100538
     32 H                     0.134276
     33 H                     0.119042
     34 H                     0.132403
     35 H                     0.132388
     36 H                     0.110431
     37 H                     0.135074
     38 H                     0.086835
     39 C                    -0.173068
     40 H                     0.118447
     41 H                     0.092483
     42 H                     0.126385
     43 C                    -0.181513
     44 H                     0.084638
     45 C                    -0.181321
     46 H                     0.090869
     47 H                     0.091414
     48 H                     0.096806
     49 C                    -0.178060
     50 H                     0.087310
     51 C                    -0.315931
     52 H                     0.091550
     53 H                     0.103105
     54 H                     0.104111
     55 H                     0.104809
     56 C                     0.285504
     57 C                    -0.120940
     58 N                    -0.486173
     59 C                    -0.091515
     60 C                     0.066446
     61 C                     0.048532
     62 C                    -0.015230
     63 C                     0.087264
     64 C                     0.231966
     65 N                    -0.533252
     66 N                    -0.556405
     67 C                     0.202242
     68 C                     0.318323
     69 S                     0.625100
     70 N                    -0.563447
     71 C                    -0.217342
     72 S                     0.328386
     73 C                    -0.135607
     74 C                    -0.274431
     75 S                     0.306341
     76 C                     0.181866
     77 C                     0.049969
     78 C                    -0.322294
     79 C                    -0.029407
     80 N                    -0.424855
     81 S                     0.299839
     82 C                     0.122771
     83 C                    -0.323295
     84 C                    -0.224964
     85 H                     0.077893
     86 H                     0.100427
     87 H                     0.118245
     88 H                     0.117929
     89 H                     0.127013
     90 H                     0.120382
     91 H                     0.115168
     92 H                     0.134767
     93 H                     0.118545
     94 C                    -0.178579
     95 H                     0.102253
     96 H                     0.089274
     97 H                     0.090302
     98 C                    -0.182282
     99 H                     0.084957
    100 C                    -0.164161
    101 H                     0.101758
    102 H                     0.103945
    103 H                     0.085820
    104 C                    -0.171534
    105 H                     0.091380
    106 C                    -0.324356
    107 H                     0.091936
    108 H                     0.103209
    109 H                     0.105508
    110 H                     0.095053
  ----------------------------------------
  Sum of atomic charges =     0.000000

                    Cartesian Multipole Moments
 -----------------------------------------------------------------
    Charge (ESU x 10^10)
                 0.0000
    Dipole Moment (Debye)
         X      -2.6122      Y       0.5851      Z      -0.9466
       Tot       2.8394
    Quadrupole Moments (Debye-Ang)
        XX    -396.0728     XY       3.7204     YY    -435.7198
        XZ     -30.9607     YZ       9.2333     ZZ    -445.9934

 Total job time:  110.90s(wall), 1304.30s(cpu)
        *  Thank you very much for using Q-Chem.  Have a nice day.  *
