 Q-Chem 4.4, Q-Chem, Inc., Pleasanton, CA (2016)
 Q-Chem 4.4.2 for Intel X86 Linux

User input:
--------------------------------------------------------------
$comment
SP
$end

$rem
MEM_STATIC 5000
MEM_TOTAL 20000
JOBTYPE SP
EXCHANGE B3LYP
BASIS 6-31g(d,p)
$end

$molecule
0 1
C          -0.150000    -18.811000     -5.419000
C           0.476000    -18.218000     -4.354000
N          -0.912000    -19.817000     -5.246000
C           0.245000    -18.793000     -3.085000
C          -1.186000    -20.357000     -4.038000
C          -0.557000    -19.884000     -2.891000
C          -0.871000    -20.347000     -1.494000
C          -2.292000    -20.438000     -1.249000
C          -0.092000    -20.448000     -0.359000
N          -2.847000    -20.593000     -0.060000
N           1.280000    -20.326000     -0.411000
C          -0.599000    -20.795000      0.879000
C          -2.075000    -20.866000      0.971000
S           1.767000    -20.791000      1.083000
N           0.308000    -20.983000      1.832000
C          -2.857000    -21.000000      2.210000
S          -4.434000    -20.221000      2.399000
C          -2.541000    -21.775000      3.347000
C          -4.580000    -20.923000      4.061000
S          -1.322000    -22.984000      3.590000
C          -3.493000    -21.779000      4.328000
C          -5.665000    -20.672000      5.009000
C          -1.896000    -23.285000      5.204000
C          -3.035000    -22.521000      5.479000
N          -6.809000    -20.556000      4.371000
S          -5.667000    -20.746000      6.715000
C          -7.853000    -20.480000      5.358000
C          -7.410000    -20.551000      6.624000
C          -0.095000    -18.141000     -6.740000
H           1.189000    -17.415000     -4.517000
H           0.640000    -18.169000     -2.289000
H          -1.964000    -21.116000     -4.111000
H          -2.921000    -20.484000     -2.137000
H          -1.388000    -23.957000      5.883000
H          -3.650000    -22.604000      6.368000
H          -8.875000    -20.438000      5.004000
H          -7.980000    -20.450000      7.539000
H           0.895000    -17.727000     -6.967000
C          -1.123000    -17.121000     -7.086000
H          -0.202000    -18.941000     -7.483000
H          -1.263000    -16.402000     -6.270000
H          -2.035000    -17.696000     -7.286000
C          -0.764000    -16.320000     -8.337000
H          -1.176000    -15.336000     -8.082000
C          -1.388000    -16.730000     -9.776000
H           0.325000    -16.189000     -8.360000
H          -2.471000    -16.616000     -9.640000
H          -1.326000    -17.797000    -10.024000
C          -0.841000    -15.818000    -10.932000
H          -1.105000    -14.756000    -10.858000
C          -1.179000    -16.412000    -12.297000
H           0.253000    -15.746000    -10.933000
H          -1.097000    -17.506000    -12.308000
H          -0.717000    -15.999000    -13.203000
H          -2.251000    -16.181000    -12.329000
C           6.713000    -14.123000    -17.684000
C           7.295000    -13.117000    -16.845000
N           5.706000    -14.860000    -17.321000
C           6.877000    -13.000000    -15.565000
C           5.291000    -14.740000    -16.052000
C           5.832000    -13.885000    -15.127000
C           5.375000    -13.739000    -13.696000
C           6.270000    -13.693000    -12.655000
C           4.028000    -13.936000    -13.252000
N           5.975000    -13.628000    -11.324000
N           2.969000    -13.992000    -14.114000
C           3.654000    -13.897000    -11.901000
C           4.663000    -13.672000    -10.962000
S           1.583000    -14.085000    -13.119000
N           2.314000    -13.933000    -11.692000
C           4.254000    -13.690000     -9.565000
S           2.598000    -14.048000     -8.824000
C           5.064000    -13.254000     -8.506000
C           3.150000    -13.601000     -7.196000
S           6.770000    -12.907000     -8.596000
C           4.497000    -13.267000     -7.239000
C           2.371000    -13.736000     -6.016000
C           6.772000    -12.705000     -6.819000
C           5.483000    -12.858000     -6.296000
N           1.091000    -14.145000     -6.142000
S           2.897000    -13.617000     -4.350000
C           0.520000    -14.351000     -4.925000
C           1.348000    -14.168000     -3.891000
C           7.118000    -14.166000    -19.177000
H           7.919000    -12.319000    -17.238000
H           7.165000    -12.155000    -14.947000
H           4.544000    -15.478000    -15.764000
H           7.351000    -13.698000    -12.788000
H           7.658000    -12.510000     -6.231000
H           5.328000    -12.652000     -5.243000
H          -0.513000    -14.675000     -4.931000
H           1.034000    -14.133000     -2.856000
H           6.413000    -13.568000    -19.768000
C           7.344000    -15.577000    -19.778000
H           8.041000    -13.575000    -19.217000
H           6.365000    -16.064000    -19.864000
H           7.889000    -16.296000    -19.153000
C           8.080000    -15.701000    -21.124000
H           9.151000    -15.467000    -21.166000
C           7.433000    -14.842000    -22.167000
H           8.026000    -16.695000    -21.586000
H           7.639000    -13.821000    -21.821000
H           6.347000    -14.970000    -22.246000
C           8.126000    -15.058000    -23.595000
H           9.187000    -14.794000    -23.693000
C           7.292000    -14.225000    -24.640000
H           8.021000    -16.133000    -23.786000
H           6.207000    -14.384000    -24.598000
H           7.660000    -14.562000    -25.617000
H           7.499000    -13.176000    -24.397000
$end

--------------------------------------------------------------

             Standard Nuclear Orientation (Angstroms)
    I     Atom           X                Y                Z
 ----------------------------------------------------------------
    1      C       1.9912876456    -1.5436843319    -0.4434642600
    2      C       2.4868797387    -0.2661325850    -0.4435698030
    3      N       2.7462603993    -2.5326950194    -0.7163800000
    4      C       3.8506664617    -0.1174210260    -0.7787080525
    5      C       4.0639212541    -2.4217606986    -0.9945947521
    6      C       4.6652128724    -1.1710931801    -1.0908140227
    7      C       6.1396571428    -0.9472761489    -1.2920453073
    8      C       6.9472082119    -1.7947647513    -0.4451856143
    9      C       6.8420065548     0.0612081344    -1.9204812658
   10      N       8.2457582007    -1.6512013164    -0.2478826320
   11      N       6.2120407005     0.9910802643    -2.7195137084
   12      C       8.2211712124     0.1487316851    -1.9018674173
   13      C       8.9121453788    -0.7987406517    -0.9980245813
   14      S       7.4509369078     1.7786514761    -3.4477291806
   15      N       8.7406111737     1.0987764371    -2.6724510245
   16      C      10.3384992469    -0.7645430541    -0.6389338303
   17      S      10.9000636864    -1.2358405777     0.9710397796
   18      C      11.4289548284    -0.4446840607    -1.4766968332
   19      C      12.6083747937    -0.9104764403     0.4688691525
   20      S      11.5132938626    -0.2388428924    -3.1963500950
   21      C      12.6608596455    -0.5730704337    -0.8982433253
   22      C      13.7886955951    -0.9931454441     1.3284845558
   23      C      13.2313486698     0.0191876053    -3.1140036211
   24      C      13.6968268787    -0.1355114598    -1.8040264319
   25      N      13.6584814738    -1.9811307512     2.1864853224
   26      S      15.2900247662    -0.1887190986     1.2067267029
   27      C      14.9084722666    -2.1194678514     2.8852462718
   28      C      15.8497064954    -1.2451428888     2.4932258818
   29      C       0.6244237748    -1.7766790352     0.0803321001
   30      H       1.8207856049     0.5784898600    -0.2929758777
   31      H       4.1962276756     0.8953004225    -0.5943179361
   32      H       4.5383403347    -3.4001831204    -1.0602461074
   33      H       6.4428472643    -2.6688987890    -0.0355385483
   34      H      13.8173849235     0.2948089930    -3.9807696565
   35      H      14.7378782414    -0.1381171263    -1.5013049911
   36      H      14.9977033626    -2.9304120293     3.5965629045
   37      H      16.8403502985    -1.0990539096     2.9050618510
   38      H      -0.0916942028    -1.0108741155    -0.2417592956
   39      C       0.4309139534    -2.0201935424     1.5364071785
   40      H       0.2622234588    -2.6793641468    -0.4270814595
   41      H       0.9793067798    -1.2875018107     2.1404312957
   42      H       0.7938914108    -3.0414893420     1.7024531216
   43      C      -1.0359360741    -1.9462898036     1.9587485501
   44      H      -0.9441153821    -1.5143892097     2.9627683892
   45      C      -1.9110899562    -3.3024412075     2.1109196785
   46      H      -1.5303266220    -1.1793120522     1.3497049433
   47      H      -1.3943388596    -3.8672173612     2.8972893120
   48      H      -1.8321417872    -4.0047639650     1.2716658844
   49      C      -3.4039162111    -2.9956270009     2.4912140580
   50      H      -3.5514095273    -2.5130545290     3.4650649353
   51      C      -4.2743218103    -4.2372264059     2.3147770713
   52      H      -3.8636203090    -2.2487051763     1.8333379828
   53      H      -3.9899197943    -4.8244163072     1.4327314301
   54      H      -5.3674945140    -4.1503385124     2.3624523657
   55      H      -3.9424990534    -4.8106086132     3.1892457685
   56      C     -12.7812117904    -0.4986503643    -0.8787830185
   57      C     -12.5872226699     0.8776715838    -0.5283730922
   58      N     -11.8439779780    -1.3951345224    -0.7957412500
   59      C     -11.3458091102     1.3126528224    -0.2177339192
   60      C     -10.6141922874    -0.9619498768    -0.4843504697
   61      C     -10.2841899499     0.3431141429    -0.2250487890
   62      C      -8.9049889292     0.8448762368     0.1270383387
   63      C      -8.3743728626     1.9666951559    -0.4618512118
   64      C      -7.9229092250     0.0826222242     0.8375608752
   65      N      -7.1224032134     2.4762194889    -0.2727270423
   66      N      -8.2298560544    -1.0617382274     1.5186510313
   67      C      -6.6142618681     0.5360566522     1.0576456650
   68      C      -6.2710690387     1.7845032235     0.5341699344
   69      S      -6.7857446077    -1.5147269298     2.3117546594
   70      N      -5.8867143523    -0.2451887555     1.8948476867
   71      C      -4.8915436492     2.2051797327     0.7320460940
   72      S      -3.4804752631     1.2979623023     1.5101357699
   73      C      -4.4278197979     3.5073578547     0.4933636099
   74      C      -2.4238000120     2.7231524518     1.4254749678
   75      S      -5.2914304042     4.7642826374    -0.3511846784
   76      C      -3.0992846603     3.7643534516     0.8030322252
   77      C      -1.0494765391     2.7293557318     1.7841705366
   78      C      -3.8125965433     5.7667103593    -0.2691720331
   79      C      -2.7983811831     5.1066894097     0.4338205337
   80      N      -0.5248339336     1.6037966773     2.3127762039
   81      S       0.1484781770     3.9664113564     1.4663799138
   82      C       0.8196079203     1.7213840678     2.4807503297
   83      C       1.3300275133     2.8759756748     2.0395938268
   84      C     -14.2241151501    -1.0050467557    -1.1165130946
   85      H     -13.4155645483     1.5475741941    -0.3145759331
   86      H     -11.1777296701     2.2960097717     0.2108117751
   87      H      -9.8455923709    -1.7286169961    -0.5684497960
   88      H      -8.9202766516     2.5949025462    -1.1644318321
   89      H      -3.7154529715     6.7438133825    -0.7214969258
   90      H      -1.8854027503     5.6500183798     0.6495379679
   91      H       1.3241184349     0.8641457521     2.9081992867
   92      H       2.3420364134     3.2085981973     2.2299782893
   93      H     -14.6330381973    -1.4068881948    -0.1809836192
   94      C     -14.4139062639    -1.9767325834    -2.3094104017
   95      H     -14.8042537037    -0.0867613900    -1.2681747107
   96      H     -13.9516324544    -2.9334887784    -2.0375161053
   97      H     -13.8754215934    -1.7313713321    -3.2337713247
   98      C     -15.8375483724    -2.2434890249    -2.8298641920
   99      H     -16.3719689659    -1.4378246774    -3.3483818758
  100      C     -16.7393090473    -2.6813632951    -1.7165660250
  101      H     -15.9194828948    -3.0847416626    -3.5298475730
  102      H     -16.8267273997    -1.7841089039    -1.0905583660
  103      H     -16.3354075293    -3.4954052034    -1.1031979991
  104      C     -18.1893481626    -3.0700137543    -2.2755171721
  105      H     -18.7772603948    -2.2812541216    -2.7625884696
  106      C     -19.0103226030    -3.6445840426    -1.0600584307
  107      H     -17.9918547192    -3.8563413265    -3.0143109790
  108      H     -18.4927035814    -4.4157725363    -0.4755852870
  109      H     -19.9034652575    -4.0887083334    -1.5167550621
  110      H     -19.1957631367    -2.7816792458    -0.4094386337
 ----------------------------------------------------------------

   10   -5663.4782761387      3.68E-06 Convergence criterion met
 Total energy in the final basis set = -5663.4782761387

                    Orbital Energies (a.u.)
 --------------------------------------------------------------

 Alpha MOs
 -- Occupied --
-88.988 -88.987 -88.935 -88.933 -88.928 -88.928 -88.914 -88.909
-14.388 -14.387 -14.383 -14.381 -14.353 -14.346 -14.344 -14.343
-14.327 -14.313 -10.272 -10.267 -10.265 -10.262 -10.259 -10.255
-10.253 -10.252 -10.246 -10.245 -10.244 -10.239 -10.238 -10.236
-10.233 -10.232 -10.232 -10.232 -10.232 -10.230 -10.228 -10.228
-10.227 -10.225 -10.224 -10.221 -10.220 -10.215 -10.213 -10.213
-10.209 -10.209 -10.209 -10.207 -10.206 -10.200 -10.198 -10.189
-10.186 -10.182 -10.180 -10.178 -10.176 -10.171 -10.170 -10.170
-10.170 -10.169 -10.168 -10.164  -8.043  -8.042  -7.997  -7.995
 -7.985  -7.984  -7.973  -7.971  -6.008  -6.007  -6.002  -6.002
 -6.000  -6.000  -5.960  -5.959  -5.957  -5.955  -5.954  -5.951
 -5.949  -5.949  -5.946  -5.945  -5.942  -5.941  -5.937  -5.935
 -5.934  -5.931  -5.929  -5.927  -1.036  -1.027  -0.974  -0.969
 -0.966  -0.955  -0.952  -0.950  -0.912  -0.912  -0.902  -0.895
 -0.845  -0.841  -0.835  -0.830  -0.815  -0.814  -0.811  -0.808
 -0.803  -0.800  -0.799  -0.793  -0.783  -0.778  -0.769  -0.766
 -0.753  -0.751  -0.741  -0.741  -0.728  -0.724  -0.712  -0.706
 -0.697  -0.690  -0.677  -0.672  -0.653  -0.652  -0.647  -0.646
 -0.635  -0.635  -0.628  -0.627  -0.610  -0.607  -0.603  -0.597
 -0.596  -0.593  -0.584  -0.581  -0.580  -0.578  -0.561  -0.561
 -0.548  -0.545  -0.543  -0.540  -0.527  -0.523  -0.518  -0.516
 -0.513  -0.508  -0.499  -0.498  -0.488  -0.487  -0.477  -0.475
 -0.471  -0.467  -0.467  -0.465  -0.464  -0.452  -0.450  -0.449
 -0.446  -0.441  -0.440  -0.438  -0.437  -0.436  -0.435  -0.431
 -0.429  -0.429  -0.424  -0.421  -0.418  -0.416  -0.416  -0.412
 -0.411  -0.409  -0.406  -0.403  -0.400  -0.400  -0.397  -0.395
 -0.394  -0.394  -0.392  -0.390  -0.387  -0.386  -0.385  -0.384
 -0.379  -0.378  -0.377  -0.372  -0.362  -0.357  -0.357  -0.354
 -0.352  -0.350  -0.350  -0.348  -0.345  -0.344  -0.342  -0.341
 -0.338  -0.337  -0.336  -0.333  -0.332  -0.320  -0.316  -0.314
 -0.314  -0.307  -0.306  -0.304  -0.302  -0.301  -0.298  -0.297
 -0.294  -0.293  -0.291  -0.289  -0.286  -0.284  -0.283  -0.281
 -0.281  -0.272  -0.271  -0.263  -0.259  -0.257  -0.256  -0.248
 -0.248  -0.237  -0.235  -0.232  -0.197  -0.191

          Ground-State Mulliken Net Atomic Charges

     Atom                 Charge (a.u.)
  ----------------------------------------
      1 C                     0.300411
      2 C                    -0.129657
      3 N                    -0.484032
      4 C                    -0.068045
      5 C                     0.043985
      6 C                     0.051037
      7 C                     0.015975
      8 C                     0.073968
      9 C                     0.192915
     10 N                    -0.497771
     11 N                    -0.540919
     12 C                     0.253447
     13 C                     0.280132
     14 S                     0.596397
     15 N                    -0.562202
     16 C                    -0.224824
     17 S                     0.363620
     18 C                    -0.123920
     19 C                    -0.210575
     20 S                     0.282971
     21 C                     0.131018
     22 C                     0.039464
     23 C                    -0.300653
     24 C                    -0.080595
     25 N                    -0.419831
     26 S                     0.278828
     27 C                     0.114353
     28 C                    -0.304129
     29 C                    -0.227882
     30 H                     0.097921
     31 H                     0.095467
     32 H                     0.107583
     33 H                     0.110975
     34 H                     0.137423
     35 H                     0.104906
     36 H                     0.120620
     37 H                     0.135332
     38 H                     0.094275
     39 C                    -0.173709
     40 H                     0.107569
     41 H                     0.082903
     42 H                     0.103443
     43 C                    -0.181161
     44 H                     0.095574
     45 C                    -0.189631
     46 H                     0.112572
     47 H                     0.094933
     48 H                     0.094956
     49 C                    -0.186171
     50 H                     0.097729
     51 C                    -0.328647
     52 H                     0.107662
     53 H                     0.106514
     54 H                     0.095084
     55 H                     0.103117
     56 C                     0.269096
     57 C                    -0.121403
     58 N                    -0.467339
     59 C                    -0.072942
     60 C                     0.082237
     61 C                     0.042260
     62 C                     0.052669
     63 C                     0.047196
     64 C                     0.192362
     65 N                    -0.520048
     66 N                    -0.565805
     67 C                     0.228757
     68 C                     0.304337
     69 S                     0.610991
     70 N                    -0.564278
     71 C                    -0.221312
     72 S                     0.382793
     73 C                    -0.158816
     74 C                    -0.241665
     75 S                     0.300305
     76 C                     0.181014
     77 C                     0.058862
     78 C                    -0.303087
     79 C                    -0.104625
     80 N                    -0.441278
     81 S                     0.289583
     82 C                     0.134862
     83 C                    -0.320295
     84 C                    -0.226772
     85 H                     0.093782
     86 H                     0.105823
     87 H                     0.107324
     88 H                     0.112941
     89 H                     0.131416
     90 H                     0.111289
     91 H                     0.120967
     92 H                     0.134856
     93 H                     0.124972
     94 C                    -0.175438
     95 H                     0.092184
     96 H                     0.116375
     97 H                     0.092911
     98 C                    -0.182307
     99 H                     0.088244
    100 C                    -0.165813
    101 H                     0.087599
    102 H                     0.088313
    103 H                     0.091864
    104 C                    -0.193267
    105 H                     0.095259
    106 C                    -0.314896
    107 H                     0.091914
    108 H                     0.103273
    109 H                     0.096613
    110 H                     0.105419
  ----------------------------------------
  Sum of atomic charges =     0.000000

                    Cartesian Multipole Moments
 -----------------------------------------------------------------
    Charge (ESU x 10^10)
                 0.0000
    Dipole Moment (Debye)
         X       3.5555      Y       5.0801      Z       0.2792
       Tot       6.2070
    Quadrupole Moments (Debye-Ang)
        XX    -350.3675     XY      -3.2620     YY    -436.7953
        XZ       2.4601     YZ      -5.6311     ZZ    -440.0919

 Total job time:  88.92s(wall), 1044.59s(cpu)
        *  Thank you very much for using Q-Chem.  Have a nice day.  *
