 Q-Chem 4.4, Q-Chem, Inc., Pleasanton, CA (2016)
 Q-Chem 4.4.2 for Intel X86 Linux

User input:
--------------------------------------------------------------
$comment
SP
$end

$rem
MEM_STATIC 5000
MEM_TOTAL 20000
JOBTYPE SP
EXCHANGE B3LYP
BASIS 6-31g(d,p)
$end

$molecule
0 1
C           4.095000      8.897000      4.055000
C           3.223000      8.808000      2.980000
N           4.451000     10.070000      4.498000
C           2.626000      9.947000      2.440000
C           3.925000     11.206000      3.961000
C           2.943000     11.216000      2.977000
C           2.270000     12.467000      2.528000
C           3.015000     13.602000      2.096000
C           0.857000     12.718000      2.632000
N           2.494000     14.752000      1.619000
N          -0.055000     11.799000      3.098000
C           0.306000     13.983000      2.316000
C           1.183000     15.010000      1.841000
S          -1.534000     12.546000      2.864000
N          -1.019000     14.058000      2.518000
C           0.648000     16.311000      1.448000
S          -0.900000     16.935000      2.029000
C           1.227000     17.208000      0.627000
C          -0.660000     18.482000      1.189000
S           2.675000     16.988000     -0.341000
C           0.505000     18.361000      0.436000
C          -1.679000     19.562000      1.202000
C           2.159000     18.502000     -1.171000
C           1.068000     19.116000     -0.627000
N          -1.498000     20.549000      0.356000
S          -3.155000     19.459000      2.071000
C          -2.573000     21.397000      0.518000
C          -3.603000     20.891000      1.294000
C           4.763000      7.672000      4.739000
H           2.949000      7.805000      2.665000
H           1.989000      9.931000      1.561000
H           4.207000     12.117000      4.487000
H           4.059000     13.506000      1.800000
H           2.635000     18.818000     -2.090000
H           0.674000     20.063000     -0.977000
H          -2.591000     22.390000      0.089000
H          -4.462000     21.468000      1.612000
H           5.778000      7.879000      5.098000
C           4.644000      6.298000      4.097000
H           4.249000      7.589000      5.705000
H           5.071000      6.384000      3.090000
H           3.629000      5.883000      4.051000
C           5.591000      5.208000      4.687000
H           5.587000      4.368000      3.982000
C           5.106000      4.728000      6.088000
H           6.616000      5.584000      4.788000
H           4.057000      4.422000      5.985000
H           5.005000      5.521000      6.840000
C           5.938000      3.501000      6.724000
H           6.981000      3.788000      6.905000
C           5.977000      2.249000      5.905000
H           5.448000      3.305000      7.685000
H           6.380000      2.386000      4.895000
H           4.898000      2.095000      5.777000
H           6.518000      1.436000      6.405000
C           7.136000     15.702000      8.185000
C           6.597000     14.448000      8.134000
N           7.485000     16.319000      7.080000
C           6.357000     13.749000      6.935000
C           7.382000     15.630000      5.932000
C           6.752000     14.426000      5.728000
C           6.691000     13.775000      4.362000
C           6.993000     12.355000      4.234000
C           6.296000     14.413000      3.186000
N           7.004000     11.754000      3.054000
N           6.013000     15.710000      3.115000
C           6.376000     13.745000      1.974000
C           6.719000     12.401000      1.892000
S           6.063000     16.121000      1.555000
N           6.136000     14.569000      0.974000
C           6.886000     11.572000      0.635000
S           6.687000     12.205000     -1.007000
C           7.094000     10.233000      0.525000
C           7.051000     10.707000     -1.788000
S           7.529000      9.128000      1.750000
C           7.394000      9.780000     -0.811000
C           7.243000     10.453000     -3.198000
C           8.020000      7.922000      0.483000
C           7.892000      8.427000     -0.805000
N           7.145000      9.235000     -3.669000
S           7.416000     11.797000     -4.354000
C           7.361000      9.277000     -5.041000
C           7.686000     10.526000     -5.534000
C           7.492000     16.368000      9.496000
H           6.346000     13.872000      9.020000
H           5.965000     12.746000      6.789000
H           7.717000     16.151000      5.036000
H           7.344000     11.738000      5.061000
H           8.550000      7.044000      0.828000
H           8.095000      7.861000     -1.706000
H           7.386000      8.338000     -5.577000
H           8.092000     10.753000     -6.512000
H           8.070000     15.647000     10.087000
C           6.436000     16.947000     10.407000
H           8.242000     17.160000      9.377000
H           5.592000     16.248000     10.367000
H           6.191000     17.923000      9.969000
C           7.000000     17.102000     11.843000
H           7.490000     16.189000     12.204000
C           6.055000     17.635000     12.957000
H           7.873000     17.765000     11.787000
H           5.653000     18.607000     12.644000
H           6.533000     17.603000     13.943000
C           4.859000     16.760000     13.208000
H           4.224000     16.631000     12.322000
C           4.137000     17.330000     14.420000
H           5.119000     15.720000     13.439000
H           3.811000     18.364000     14.250000
H           4.741000     17.300000     15.335000
H           3.208000     16.770000     14.583000
$end

--------------------------------------------------------------

             Standard Nuclear Orientation (Angstroms)
    I     Atom           X                Y                Z
 ----------------------------------------------------------------
    1      C       3.5876307155    -1.2783896177    -2.6104133164
    2      C       3.3583323567    -0.0348221908    -3.1804065773
    3      N       2.7187744287    -1.7713755531    -1.7731752258
    4      C       2.1594850636     0.6455167046    -2.9677233498
    5      C       1.5586585598    -1.1101585722    -1.5039833337
    6      C       1.1766188742     0.0714618287    -2.1288824512
    7      C      -0.1684458394     0.6823332910    -1.9360924807
    8      C      -0.6867282056     0.9521655514    -0.6366895640
    9      C      -1.1232006794     0.9066482434    -2.9889514444
   10      N      -1.8641994603     1.5540572106    -0.3669528868
   11      N      -0.8783718092     0.6452606233    -4.3175583601
   12      C      -2.4351499715     1.3605025646    -2.7123880518
   13      C      -2.7882027990     1.6403940766    -1.3535291766
   14      S      -2.2413452946     1.2218512010    -5.0986169902
   15      N      -3.2088091808     1.4664825414    -3.8043009019
   16      C      -4.1119944754     2.1661720505    -1.0304067233
   17      S      -5.5162653987     1.9629149920    -2.0839487216
   18      C      -4.4620139704     2.8485932449     0.0766970056
   19      C      -6.5885303620     2.7516608317    -0.9072852825
   20      S      -3.3990283751     3.4580534242     1.3339749837
   21      C      -5.7841678235     3.2177976370     0.1293401973
   22      C      -8.0294847433     2.9886033862    -1.1764296618
   23      C      -4.8343939243     4.4084993417     1.8666383843
   24      C      -5.9896561948     4.1371407842     1.1921410756
   25      N      -8.6574476095     3.7873879762    -0.3456157131
   26      S      -8.8202209672     2.4765826293    -2.6106252443
   27      C      -9.9510127960     3.8881754552    -0.8119889459
   28      C     -10.1582844738     3.3586056434    -2.0752016224
   29      C       4.8764491786    -2.1165011724    -2.8367338658
   30      H       4.1083434237     0.3176840623    -3.8829254317
   31      H       1.9631293497     1.6459934382    -3.3407605319
   32      H       0.8621946595    -1.6714386473    -0.8826752678
   33      H      -0.0274722883     1.0012857935     0.2291838894
   34      H      -4.7326226411     5.2001978247     2.5972881758
   35      H      -6.9469880539     4.5831450978     1.4353300223
   36      H     -10.7428183991     4.3263201474    -0.2191254578
   37      H     -11.1321974137     3.2539036722    -2.5361409706
   38      H       5.1760792583    -2.6935278967    -1.9540011913
   39      C       6.0643802846    -1.4869859705    -3.5485844807
   40      H       4.5515791972    -2.9414781302    -3.4833508424
   41      H       6.3473921566    -0.6022489194    -2.9647021032
   42      H       5.8985953271    -1.2181354936    -4.5996795139
   43      C       7.3954306163    -2.2948202009    -3.4552149412
   44      H       8.1992252753    -1.6213300277    -3.7760983043
   45      C       7.3628572486    -3.5564682051    -4.3693316128
   46      H       7.5919629176    -2.6201382891    -2.4267475397
   47      H       7.0949855275    -3.2225900439    -5.3799829446
   48      H       6.5383813427    -4.2526076441    -4.1688737320
   49      C       8.7443699111    -4.3851857521    -4.4523917768
   50      H       9.0147173540    -4.7939560372    -3.4711690120
   51      C       9.9343491506    -3.6172691886    -4.9361681312
   52      H       8.5281717418    -5.2126156251    -5.1384348927
   53      H      10.1622352760    -2.7233114081    -4.3444034816
   54      H       9.5257513186    -3.2497214935    -5.8860615481
   55      H      10.8338408179    -4.2405529777    -5.0141556863
   56      C      -1.1601991661    -5.8792197947     2.7657450794
   57      C      -0.3699451336    -5.7276056456     1.6620468807
   58      N      -1.3535504172    -4.8725747551     3.5859865426
   59      C       0.2594475033    -4.5171268343     1.3121783967
   60      C      -0.6688760774    -3.7427526527     3.3452438055
   61      C       0.0527758787    -3.4206463546     2.2211450612
   62      C       0.7563167569    -2.0874988199     2.0754540064
   63      C       2.1309183800    -2.0549652437     1.5923391708
   64      C       0.1712670751    -0.8421290227     2.3052711903
   65      N       2.8041951351    -0.9184704953     1.4985303333
   66      N      -1.0626358766    -0.6872562999     2.7752041062
   67      C       0.9411211916     0.3087219818     2.2386783625
   68      C       2.2663420382     0.2883930131     1.8214428882
   69      S      -1.1744657938     0.8270209241     3.3224513615
   70      N       0.2548459363     1.3505343127     2.6632126263
   71      C       3.2233517101     1.4606143995     1.7492728878
   72      S       2.8063549119     3.1150314762     2.2241116044
   73      C       4.4785286139     1.4983404981     1.2283192607
   74      C       4.3669143976     3.7679640714     1.8708494952
   75      S       5.4727965175     0.1884699290     0.7738465685
   76      C       5.1965448663     2.7234176410     1.4807943194
   77      C       4.8708280728     5.0929374018     2.1536863417
   78      C       6.9171989336     1.2905116896     0.7704379897
   79      C       6.5974186726     2.5819994673     1.1706290749
   80      N       5.9145249291     5.5537524047     1.5107902340
   81      S       3.9783996325     6.2012516722     3.2250462052
   82      C       6.1751961864     6.8411436415     1.9640873762
   83      C       5.3521713493     7.2677904639     2.9884299002
   84      C      -1.7169651472    -7.2256785745     3.1732661178
   85      H      -0.1312662132    -6.5426414592     0.9849043585
   86      H       0.9258627959    -4.3023225900     0.4810714274
   87      H      -0.8163655087    -2.9379953312     4.0643366514
   88      H       2.7225446290    -2.9501786985     1.4015768795
   89      H       7.8869137628     0.8195739962     0.6772723366
   90      H       7.3024473450     3.4037472196     1.2027414202
   91      H       7.0549457634     7.3418604127     1.5833441600
   92      H       5.5011285001     8.1313918078     3.6247108807
   93      H      -0.8885199525    -7.9444652753     3.1580925148
   94      C      -2.8740209020    -7.8629022653     2.4415107297
   95      H      -1.9845801649    -7.2673838385     4.2365477706
   96      H      -2.7121349498    -7.6434722058     1.3793523670
   97      H      -3.7672343301    -7.3646353084     2.8394363653
   98      C      -2.9079787913    -9.3868012020     2.7257569128
   99      H      -1.9314188645    -9.8647942395     2.5779619017
  100      C      -3.9962460248   -10.2476829781     2.0238545009
  101      H      -3.0115153800    -9.5199517938     3.8103697906
  102      H      -4.9838437085    -9.8354716931     2.2669381731
  103      H      -3.8556445628   -11.3169596654     2.2202790283
  104      C      -3.9060688777   -10.2344065222     0.5236099148
  105      H      -4.0048231629    -9.2294307083     0.0933388320
  106      C      -4.9239080220   -11.2408252772     0.0076130489
  107      H      -2.9230698623   -10.5355961966     0.1420883350
  108      H      -5.9440688879   -10.9841124540     0.3201867747
  109      H      -4.7104852170   -12.2696038013     0.3222659604
  110      H      -4.9508195379   -11.1974183816    -1.0881066287
 ----------------------------------------------------------------

    9   -5663.5107902471      8.89E-06 Convergence criterion met
 Total energy in the final basis set = -5663.5107902471

                    Orbital Energies (a.u.)
 --------------------------------------------------------------

 Alpha MOs
 -- Occupied --
-88.987 -88.985 -88.931 -88.925 -88.919 -88.918 -88.908 -88.901
-14.386 -14.382 -14.374 -14.371 -14.351 -14.346 -14.345 -14.344
-14.320 -14.319 -10.270 -10.270 -10.263 -10.262 -10.257 -10.256
-10.246 -10.245 -10.242 -10.240 -10.239 -10.236 -10.235 -10.234
-10.231 -10.231 -10.230 -10.226 -10.226 -10.224 -10.223 -10.223
-10.222 -10.222 -10.221 -10.220 -10.219 -10.212 -10.211 -10.209
-10.209 -10.208 -10.207 -10.204 -10.198 -10.193 -10.191 -10.191
-10.184 -10.183 -10.182 -10.181 -10.180 -10.179 -10.178 -10.176
-10.174 -10.170 -10.170 -10.169  -8.042  -8.041  -7.994  -7.986
 -7.978  -7.978  -7.967  -7.961  -6.007  -6.006  -6.001  -6.000
 -5.999  -5.998  -5.958  -5.954  -5.951  -5.950  -5.947  -5.943
 -5.943  -5.943  -5.939  -5.939  -5.935  -5.935  -5.932  -5.929
 -5.926  -5.923  -5.922  -5.918  -1.041  -1.027  -0.979  -0.969
 -0.955  -0.954  -0.944  -0.940  -0.914  -0.909  -0.901  -0.896
 -0.840  -0.837  -0.829  -0.827  -0.823  -0.809  -0.805  -0.804
 -0.804  -0.802  -0.793  -0.792  -0.786  -0.778  -0.765  -0.765
 -0.750  -0.749  -0.740  -0.738  -0.722  -0.715  -0.708  -0.707
 -0.693  -0.693  -0.677  -0.672  -0.654  -0.651  -0.640  -0.639
 -0.633  -0.632  -0.626  -0.622  -0.611  -0.610  -0.597  -0.595
 -0.592  -0.589  -0.582  -0.581  -0.576  -0.575  -0.562  -0.558
 -0.553  -0.544  -0.537  -0.537  -0.522  -0.519  -0.513  -0.509
 -0.507  -0.503  -0.501  -0.496  -0.490  -0.486  -0.476  -0.473
 -0.472  -0.469  -0.466  -0.464  -0.460  -0.457  -0.452  -0.451
 -0.445  -0.440  -0.438  -0.437  -0.436  -0.433  -0.429  -0.427
 -0.427  -0.423  -0.421  -0.418  -0.417  -0.416  -0.416  -0.412
 -0.411  -0.409  -0.405  -0.403  -0.400  -0.397  -0.396  -0.395
 -0.394  -0.391  -0.391  -0.390  -0.385  -0.384  -0.382  -0.381
 -0.380  -0.380  -0.377  -0.367  -0.356  -0.356  -0.355  -0.352
 -0.351  -0.348  -0.348  -0.344  -0.342  -0.341  -0.338  -0.336
 -0.335  -0.332  -0.330  -0.330  -0.329  -0.326  -0.320  -0.317
 -0.312  -0.311  -0.309  -0.304  -0.303  -0.300  -0.298  -0.297
 -0.295  -0.294  -0.293  -0.289  -0.289  -0.287  -0.281  -0.278
 -0.271  -0.267  -0.261  -0.260  -0.254  -0.250  -0.247  -0.244
 -0.243  -0.239  -0.232  -0.230  -0.194  -0.192

          Ground-State Mulliken Net Atomic Charges

     Atom                 Charge (a.u.)
  ----------------------------------------
      1 C                     0.302228
      2 C                    -0.120106
      3 N                    -0.503898
      4 C                    -0.052956
      5 C                     0.077885
      6 C                     0.035212
      7 C                    -0.008316
      8 C                     0.052508
      9 C                     0.231634
     10 N                    -0.522448
     11 N                    -0.555087
     12 C                     0.232651
     13 C                     0.310268
     14 S                     0.594816
     15 N                    -0.565633
     16 C                    -0.230557
     17 S                     0.314752
     18 C                    -0.104839
     19 C                    -0.253897
     20 S                     0.276454
     21 C                     0.172583
     22 C                     0.076261
     23 C                    -0.312647
     24 C                    -0.054362
     25 N                    -0.428134
     26 S                     0.296282
     27 C                     0.111920
     28 C                    -0.304890
     29 C                    -0.213434
     30 H                     0.086590
     31 H                     0.103258
     32 H                     0.097264
     33 H                     0.116728
     34 H                     0.121470
     35 H                     0.127046
     36 H                     0.113283
     37 H                     0.132297
     38 H                     0.121987
     39 C                    -0.197676
     40 H                     0.115979
     41 H                     0.104503
     42 H                     0.096952
     43 C                    -0.181229
     44 H                     0.094942
     45 C                    -0.185826
     46 H                     0.094908
     47 H                     0.084335
     48 H                     0.094252
     49 C                    -0.181736
     50 H                     0.088588
     51 C                    -0.305495
     52 H                     0.092334
     53 H                     0.102866
     54 H                     0.099617
     55 H                     0.102706
     56 C                     0.291972
     57 C                    -0.130090
     58 N                    -0.476278
     59 C                    -0.084474
     60 C                     0.070496
     61 C                     0.057235
     62 C                    -0.021606
     63 C                     0.075239
     64 C                     0.263563
     65 N                    -0.511547
     66 N                    -0.542960
     67 C                     0.202499
     68 C                     0.313899
     69 S                     0.630743
     70 N                    -0.591553
     71 C                    -0.199205
     72 S                     0.315244
     73 C                    -0.130140
     74 C                    -0.221619
     75 S                     0.281729
     76 C                     0.121689
     77 C                     0.060844
     78 C                    -0.323575
     79 C                    -0.038463
     80 N                    -0.423607
     81 S                     0.264485
     82 C                     0.115437
     83 C                    -0.301079
     84 C                    -0.236845
     85 H                     0.085440
     86 H                     0.117370
     87 H                     0.099449
     88 H                     0.123009
     89 H                     0.129081
     90 H                     0.123982
     91 H                     0.114696
     92 H                     0.132781
     93 H                     0.100912
     94 C                    -0.171023
     95 H                     0.114805
     96 H                     0.095628
     97 H                     0.108836
     98 C                    -0.188508
     99 H                     0.087643
    100 C                    -0.160957
    101 H                     0.088627
    102 H                     0.093786
    103 H                     0.090609
    104 C                    -0.173281
    105 H                     0.093864
    106 C                    -0.318220
    107 H                     0.087091
    108 H                     0.101293
    109 H                     0.102802
    110 H                     0.094060
  ----------------------------------------
  Sum of atomic charges =     0.000000

                    Cartesian Multipole Moments
 -----------------------------------------------------------------
    Charge (ESU x 10^10)
                 0.0000
    Dipole Moment (Debye)
         X      -0.1530      Y       2.1028      Z      -1.6803
       Tot       2.6960
    Quadrupole Moments (Debye-Ang)
        XX    -392.4536     XY      -3.1093     YY    -415.0625
        XZ      11.3964     YZ      15.0045     ZZ    -436.1671

 Total job time:  87.21s(wall), 1038.89s(cpu)
        *  Thank you very much for using Q-Chem.  Have a nice day.  *
