 Q-Chem 4.4, Q-Chem, Inc., Pleasanton, CA (2016)
 Q-Chem 4.4.2 for Intel X86 Linux

User input:
--------------------------------------------------------------
$comment
SP
$end

$rem
MEM_STATIC 5000
MEM_TOTAL 20000
JOBTYPE SP
EXCHANGE B3LYP
BASIS 6-31g(d,p)
$end

$molecule
0 1
C           7.868000     20.591000     -3.209000
C           8.505000     21.313000     -2.172000
N           6.796000     19.814000     -3.171000
C           7.974000     20.987000     -0.907000
C           6.283000     19.643000     -1.939000
C           6.805000     20.185000     -0.741000
C           6.168000     19.899000      0.610000
C           4.785000     19.779000      0.633000
C           6.806000     19.528000      1.804000
N           4.009000     19.424000      1.756000
N           8.133000     19.544000      1.879000
C           6.067000     19.115000      2.950000
C           4.668000     19.121000      2.934000
S           8.376000     19.060000      3.393000
N           6.872000     18.667000      3.886000
C           3.873000     18.704000      4.114000
S           4.420000     17.917000      5.562000
C           2.538000     18.940000      4.247000
C           2.788000     17.584000      6.139000
S           1.467000     20.075000      3.444000
C           1.961000     18.357000      5.391000
C           2.369000     16.962000      7.378000
C           0.134000     19.647000      4.550000
C           0.559000     18.719000      5.516000
N           1.164000     17.194000      7.842000
S           3.507000     15.887000      8.154000
C           1.153000     16.607000      9.141000
C           2.317000     15.822000      9.417000
C           8.378000     20.865000     -4.615000
H           9.356000     21.961000     -2.359000
H           8.509000     21.359000     -0.039000
H           5.345000     19.099000     -1.847000
H           4.155000     19.983000     -0.231000
H          -0.880000     20.010000      4.443000
H          -0.137000     18.350000      6.262000
H           0.256000     16.639000      9.746000
H           2.503000     15.256000     10.321000
H           7.587000     20.824000     -5.374000
C           9.407000     19.785000     -4.998000
H           8.800000     21.873000     -4.715000
H           8.932000     18.797000     -4.943000
H          10.243000     19.863000     -4.293000
C          10.098000     19.989000     -6.344000
H           9.954000     21.015000     -6.705000
C           9.573000     19.033000     -7.411000
H          11.169000     19.766000     -6.267000
H           8.495000     19.174000     -7.561000
H           9.675000     18.014000     -7.017000
C          10.380000     19.109000     -8.762000
H          10.484000     20.088000     -9.246000
C           9.934000     18.170000     -9.906000
H          11.420000     18.833000     -8.547000
H          10.373000     18.346000    -10.895000
H           8.852000     18.342000     -9.961000
H          10.063000     17.132000     -9.574000
C           7.136000     15.702000      8.185000
C           6.597000     14.448000      8.134000
N           7.485000     16.319000      7.080000
C           6.357000     13.749000      6.935000
C           7.382000     15.630000      5.932000
C           6.752000     14.426000      5.728000
C           6.691000     13.775000      4.362000
C           6.993000     12.355000      4.234000
C           6.296000     14.413000      3.186000
N           7.004000     11.754000      3.054000
N           6.013000     15.710000      3.115000
C           6.376000     13.745000      1.974000
C           6.719000     12.401000      1.892000
S           6.063000     16.121000      1.555000
N           6.136000     14.569000      0.974000
C           6.886000     11.572000      0.635000
S           6.687000     12.205000     -1.007000
C           7.094000     10.233000      0.525000
C           7.051000     10.707000     -1.788000
S           7.529000      9.128000      1.750000
C           7.394000      9.780000     -0.811000
C           7.243000     10.453000     -3.198000
C           8.020000      7.922000      0.483000
C           7.892000      8.427000     -0.805000
N           7.145000      9.235000     -3.669000
S           7.416000     11.797000     -4.354000
C           7.361000      9.277000     -5.041000
C           7.686000     10.526000     -5.534000
C           7.492000     16.368000      9.496000
H           6.346000     13.872000      9.020000
H           5.965000     12.746000      6.789000
H           7.717000     16.151000      5.036000
H           7.344000     11.738000      5.061000
H           8.550000      7.044000      0.828000
H           8.095000      7.861000     -1.706000
H           7.386000      8.338000     -5.577000
H           8.092000     10.753000     -6.512000
H           8.070000     15.647000     10.087000
C           6.436000     16.947000     10.407000
H           8.242000     17.160000      9.377000
H           5.592000     16.248000     10.367000
H           6.191000     17.923000      9.969000
C           7.000000     17.102000     11.843000
H           7.490000     16.189000     12.204000
C           6.055000     17.635000     12.957000
H           7.873000     17.765000     11.787000
H           5.653000     18.607000     12.644000
H           6.533000     17.603000     13.943000
C           4.859000     16.760000     13.208000
H           4.224000     16.631000     12.322000
C           4.137000     17.330000     14.420000
H           5.119000     15.720000     13.439000
H           3.811000     18.364000     14.250000
H           4.741000     17.300000     15.335000
H           3.208000     16.770000     14.583000
$end

--------------------------------------------------------------

             Standard Nuclear Orientation (Angstroms)
    I     Atom           X                Y                Z
 ----------------------------------------------------------------
    1      C       5.2849962993     5.1443584094     0.7133131016
    2      C       4.3880729906     5.6567398085     1.6804821045
    3      N       5.0425364421     4.4581016006    -0.3933132174
    4      C       3.0724456062     5.1959328546     1.4677768231
    5      C       3.7453183648     4.1534885087    -0.5795123691
    6      C       2.6839571116     4.4743836103     0.2991176008
    7      C       1.2523028486     4.0491509006     0.0122217770
    8      C       0.8615685616     4.0379611970    -1.3200017431
    9      C       0.3331807364     3.4607651719     0.8950228742
   10      N      -0.3830424493     3.5885121035    -1.8081297427
   11      N       0.6270490396     3.3597691625     2.1874048713
   12      C      -0.9163744461     2.9478459003     0.4416668697
   13      C      -1.2890093509     3.0678220211    -0.9015538709
   14      S      -0.6934710108     2.6455214144     2.7632329282
   15      N      -1.5342151732     2.3072156235     1.4074259931
   16      C      -2.5860287861     2.5505482171    -1.4000339572
   17      S      -3.7241727683     1.5226120736    -0.5856276944
   18      C      -3.1098583980     2.8708881280    -2.6160088250
   19      C      -4.6874539832     1.2416533338    -2.0349011287
   20      S      -2.7725015750     4.1913295683    -3.7217663829
   21      C      -4.2928730500     2.1776255979    -2.9344698075
   22      C      -5.9128140241     0.4836567468    -2.1815297222
   23      C      -4.1465557744     3.7168104153    -4.7562303167
   24      C      -4.8422879290     2.6287538052    -4.2021052564
   25      N      -6.7159240129     0.7421332670    -3.1861934641
   26      S      -6.2128603243    -0.7790753997    -1.0117755839
   27      C      -7.8896699058    -0.0225486522    -2.9222367606
   28      C      -7.7393632538    -0.9294985815    -1.8258122369
   29      C       6.7353604922     5.5757978994     0.8626974190
   30      H       4.7265136093     6.2548018624     2.5212280395
   31      H       2.3492509105     5.3954894834     2.2521234200
   32      H       3.4613043972     3.6786050076    -1.5165639827
   33      H       1.4875798230     4.4135890410    -2.1274827790
   34      H      -4.3674069390     4.1712453162    -5.7133759085
   35      H      -5.7035239441     2.2132425531    -4.7146634733
   36      H      -8.7187390469    -0.0062061168    -3.6179632017
   37      H      -8.4842586964    -1.6324802219    -1.4749339205
   38      H       7.2451876103     5.7075395831    -0.0996764368
   39      C       7.5112465777     4.4832772739     1.6218610807
   40      H       6.8301604999     6.5507435220     1.3573103905
   41      H       7.4423723601     3.5387558478     1.0669470173
   42      H       7.0610735225     4.3921923190     2.6173774046
   43      C       8.9626259018     4.8225928659     1.9522789775
   44      H       9.1476354703     5.8979894894     1.8381450135
   45      C       9.9464120852     4.0747534065     1.0573203816
   46      H       9.2115654927     4.5060093896     2.9723294580
   47      H       9.7747154119     4.3214938334     0.0018089349
   48      H       9.7174859175     3.0048779185     1.1407484933
   49      C      11.4495713023     4.2792603338     1.4826617561
   50      H      11.8260165291     5.3061474243     1.5681304322
   51      C      12.5266893057     3.5529362463     0.6450203491
   52      H      11.5644709640     3.8930565747     2.5032722225
   53      H      13.5710575951     3.8334973485     0.8250157492
   54      H      12.2596594042     3.8169324998    -0.3856755371
   55      H      12.3665874124     2.4710655284     0.7357514540
   56      C      -5.2164969598    -1.2559172257     2.4501182502
   57      C      -5.1710000369    -2.4424879853     1.7751235373
   58      N      -4.1377449564    -0.5165034895     2.5644705209
   59      C      -4.0123538428    -2.9406329520     1.1480728304
   60      C      -2.9909926969    -1.0230524923     2.0832207279
   61      C      -2.8305643204    -2.1310620893     1.2865341717
   62      C      -1.4686725504    -2.5721773893     0.7924227480
   63      C      -1.0976365743    -3.9786179123     0.8832267109
   64      C      -0.5305573971    -1.7424183799     0.1780247130
   65      N       0.1009429651    -4.4028748689     0.5129091143
   66      N      -0.6921943406    -0.4302465789     0.0386774376
   67      C       0.7254446009    -2.2336813366    -0.1424244848
   68      C       1.0551005387    -3.5750360732     0.0085835714
   69      S       0.7617967797     0.1951927904    -0.2771649557
   70      N       1.5169206094    -1.2581072718    -0.5404156556
   71      C       2.3968532080    -4.2255982777    -0.2590871077
   72      S       3.8342934357    -3.3495098336    -0.8092585628
   73      C       2.7152712063    -5.5472155341    -0.2441604264
   74      C       4.8544393256    -4.7440700850    -0.8403241162
   75      S       1.7958699307    -6.8478580369     0.3673175980
   76      C       4.1254033736    -5.8261692995    -0.3617064497
   77      C       6.2820923396    -4.8074748119    -1.0577332056
   78      C       3.2807354332    -7.8947421547     0.3635648190
   79      C       4.4150671095    -7.2014210399    -0.0401064332
   80      N       6.8460706341    -5.9334512282    -1.4170027330
   81      S       7.2761208291    -3.3295604154    -1.0410779204
   82      C       8.2096504408    -5.7122540090    -1.5670890450
   83      C       8.6244045535    -4.4353996516    -1.2410568746
   84      C      -6.4460270141    -0.8156739363     3.2139603096
   85      H      -6.0185090383    -3.1178387950     1.7016199564
   86      H      -3.8647847708    -3.8777167483     0.6178970787
   87      H      -2.1042919280    -0.4072283664     2.2281496492
   88      H      -1.7174795953    -4.7340299427     1.3658925308
   89      H       3.2005852674    -8.8526889322     0.8602769311
   90      H       5.3965847748    -7.6465571093    -0.1489317633
   91      H       8.8371822206    -6.5635149370    -1.7933647566
   92      H       9.6432081677    -4.1034752606    -1.0838487504
   93      H      -6.7658232558    -1.6579158799     3.8397117557
   94      C      -7.6746798456    -0.2910081560     2.5100881348
   95      H      -6.2171708287    -0.0772660059     3.9926152876
   96      H      -7.7887190929    -0.9073381983     1.6102718596
   97      H      -7.4383544892     0.7541940685     2.2731332109
   98      C      -8.9063682432    -0.3893848432     3.4468286104
   99      H      -9.0087750480    -1.3809580477     3.9053974999
  100      C     -10.2925757195     0.0518875289     2.8974493912
  101      H      -8.6885404736     0.2029038051     4.3449261662
  102      H     -10.2184689383     1.0877357887     2.5426486478
  103      H     -11.0970553204    -0.1594554757     3.6114876997
  104      C     -10.7611137679    -0.7517186919     1.7168854839
  105      H     -10.0767237497    -0.7010052864     0.8602055826
  106      C     -12.1833884888    -0.3058369121     1.4111861926
  107      H     -10.7883868621    -1.8315233278     1.9061977300
  108      H     -12.2318685057     0.7645619522     1.1740618388
  109      H     -12.8855045743    -0.5150768767     2.2273924409
  110      H     -12.5307720474    -0.8074176985     0.4996208477
 ----------------------------------------------------------------

   10   -5663.4907363490      7.02E-06 Convergence criterion met
 Total energy in the final basis set = -5663.4907363490

                    Orbital Energies (a.u.)
 --------------------------------------------------------------

 Alpha MOs
 -- Occupied --
-88.989 -88.986 -88.928 -88.926 -88.920 -88.919 -88.903 -88.902
-14.388 -14.386 -14.377 -14.374 -14.354 -14.349 -14.348 -14.346
-14.334 -14.326 -10.271 -10.268 -10.266 -10.266 -10.258 -10.256
-10.249 -10.248 -10.244 -10.242 -10.240 -10.239 -10.237 -10.236
-10.234 -10.232 -10.232 -10.231 -10.230 -10.229 -10.227 -10.227
-10.226 -10.225 -10.223 -10.222 -10.221 -10.220 -10.218 -10.217
-10.215 -10.213 -10.210 -10.205 -10.200 -10.199 -10.199 -10.192
-10.186 -10.183 -10.182 -10.179 -10.179 -10.178 -10.177 -10.177
-10.176 -10.174 -10.174 -10.170  -8.044  -8.042  -7.989  -7.986
 -7.979  -7.978  -7.963  -7.962  -6.010  -6.008  -6.004  -6.002
 -6.002  -6.000  -5.953  -5.950  -5.950  -5.947  -5.946  -5.944
 -5.943  -5.943  -5.940  -5.939  -5.936  -5.934  -5.927  -5.926
 -5.924  -5.923  -5.919  -5.918  -1.057  -1.043  -0.970  -0.966
 -0.959  -0.951  -0.949  -0.942  -0.925  -0.910  -0.909  -0.903
 -0.839  -0.835  -0.833  -0.832  -0.814  -0.812  -0.808  -0.807
 -0.805  -0.803  -0.796  -0.796  -0.792  -0.783  -0.769  -0.766
 -0.753  -0.746  -0.739  -0.731  -0.717  -0.716  -0.712  -0.708
 -0.696  -0.691  -0.680  -0.671  -0.655  -0.651  -0.650  -0.644
 -0.635  -0.634  -0.629  -0.627  -0.615  -0.604  -0.601  -0.594
 -0.593  -0.590  -0.586  -0.578  -0.578  -0.575  -0.568  -0.568
 -0.547  -0.546  -0.540  -0.539  -0.525  -0.523  -0.511  -0.510
 -0.509  -0.503  -0.502  -0.497  -0.495  -0.492  -0.484  -0.476
 -0.475  -0.474  -0.473  -0.471  -0.465  -0.461  -0.457  -0.448
 -0.447  -0.443  -0.438  -0.436  -0.434  -0.433  -0.429  -0.427
 -0.424  -0.424  -0.423  -0.419  -0.419  -0.416  -0.413  -0.413
 -0.412  -0.411  -0.409  -0.407  -0.403  -0.402  -0.401  -0.398
 -0.396  -0.395  -0.391  -0.389  -0.384  -0.384  -0.382  -0.381
 -0.380  -0.378  -0.373  -0.367  -0.361  -0.361  -0.358  -0.356
 -0.354  -0.349  -0.348  -0.345  -0.344  -0.343  -0.337  -0.336
 -0.335  -0.333  -0.331  -0.330  -0.327  -0.325  -0.323  -0.319
 -0.318  -0.317  -0.312  -0.307  -0.305  -0.304  -0.302  -0.302
 -0.299  -0.297  -0.292  -0.290  -0.289  -0.286  -0.285  -0.283
 -0.275  -0.271  -0.268  -0.265  -0.262  -0.251  -0.249  -0.244
 -0.242  -0.240  -0.233  -0.230  -0.193  -0.192

          Ground-State Mulliken Net Atomic Charges

     Atom                 Charge (a.u.)
  ----------------------------------------
      1 C                     0.271489
      2 C                    -0.099168
      3 N                    -0.470663
      4 C                    -0.089218
      5 C                     0.073839
      6 C                     0.046076
      7 C                     0.065821
      8 C                     0.019894
      9 C                     0.176891
     10 N                    -0.523506
     11 N                    -0.530876
     12 C                     0.238200
     13 C                     0.287215
     14 S                     0.591006
     15 N                    -0.543762
     16 C                    -0.223877
     17 S                     0.357302
     18 C                    -0.106011
     19 C                    -0.256347
     20 S                     0.268174
     21 C                     0.133940
     22 C                     0.086455
     23 C                    -0.312812
     24 C                    -0.046457
     25 N                    -0.445004
     26 S                     0.307629
     27 C                     0.104485
     28 C                    -0.319872
     29 C                    -0.232629
     30 H                     0.107521
     31 H                     0.106822
     32 H                     0.095775
     33 H                     0.122806
     34 H                     0.130767
     35 H                     0.128810
     36 H                     0.117402
     37 H                     0.128078
     38 H                     0.112450
     39 C                    -0.176815
     40 H                     0.091019
     41 H                     0.111880
     42 H                     0.088372
     43 C                    -0.174743
     44 H                     0.092334
     45 C                    -0.177458
     46 H                     0.091351
     47 H                     0.093548
     48 H                     0.093497
     49 C                    -0.183709
     50 H                     0.091335
     51 C                    -0.320671
     52 H                     0.089249
     53 H                     0.102609
     54 H                     0.101534
     55 H                     0.099517
     56 C                     0.295619
     57 C                    -0.135820
     58 N                    -0.478302
     59 C                    -0.075308
     60 C                     0.077723
     61 C                     0.061251
     62 C                    -0.023962
     63 C                     0.070389
     64 C                     0.258702
     65 N                    -0.522187
     66 N                    -0.551275
     67 C                     0.228370
     68 C                     0.324778
     69 S                     0.610841
     70 N                    -0.594348
     71 C                    -0.196962
     72 S                     0.318971
     73 C                    -0.129670
     74 C                    -0.218666
     75 S                     0.276493
     76 C                     0.120893
     77 C                     0.060925
     78 C                    -0.319279
     79 C                    -0.037133
     80 N                    -0.422658
     81 S                     0.267304
     82 C                     0.115870
     83 C                    -0.300495
     84 C                    -0.238202
     85 H                     0.083000
     86 H                     0.104438
     87 H                     0.104906
     88 H                     0.117200
     89 H                     0.130454
     90 H                     0.125067
     91 H                     0.115546
     92 H                     0.133853
     93 H                     0.100925
     94 C                    -0.168383
     95 H                     0.116205
     96 H                     0.091879
     97 H                     0.112165
     98 C                    -0.190974
     99 H                     0.087443
    100 C                    -0.161130
    101 H                     0.090172
    102 H                     0.096241
    103 H                     0.092111
    104 C                    -0.175692
    105 H                     0.090895
    106 C                    -0.317706
    107 H                     0.085656
    108 H                     0.103508
    109 H                     0.104376
    110 H                     0.092491
  ----------------------------------------
  Sum of atomic charges =     0.000000

                    Cartesian Multipole Moments
 -----------------------------------------------------------------
    Charge (ESU x 10^10)
                 0.0000
    Dipole Moment (Debye)
         X      -1.1158      Y      -1.0793      Z       2.8788
       Tot       3.2707
    Quadrupole Moments (Debye-Ang)
        XX    -389.9103     XY      11.1515     YY    -430.2025
        XZ       7.6751     YZ       2.2289     ZZ    -445.5870

 Total job time:  97.26s(wall), 1163.22s(cpu)
        *  Thank you very much for using Q-Chem.  Have a nice day.  *
