 Q-Chem 4.4, Q-Chem, Inc., Pleasanton, CA (2016)
 Q-Chem 4.4.2 for Intel X86 Linux

User input:
--------------------------------------------------------------
$comment
SP
$end

$rem
MEM_STATIC 5000
MEM_TOTAL 20000
JOBTYPE SP
EXCHANGE B3LYP
BASIS 6-31g(d,p)
$end

$molecule
0 1
C          14.797000     19.737000     15.106000
C          13.550000     20.192000     14.737000
N          15.827000     19.583000     14.242000
C          13.196000     20.298000     13.342000
C          15.517000     19.770000     12.917000
C          14.204000     19.946000     12.422000
C          13.881000     19.999000     10.958000
C          12.660000     19.451000     10.467000
C          14.756000     20.575000      9.991000
N          12.414000     19.309000      9.210000
N          15.794000     21.416000     10.216000
C          14.463000     20.424000      8.646000
C          13.276000     19.761000      8.266000
S          16.277000     22.016000      8.808000
N          15.282000     21.227000      7.896000
C          12.842000     19.701000      6.873000
S          13.502000     20.457000      5.416000
C          11.930000     18.730000      6.468000
C          12.542000     19.392000      4.329000
S          11.290000     17.447000      7.406000
C          11.725000     18.595000      5.084000
C          12.620000     19.383000      2.828000
C          10.524000     16.757000      5.901000
C          10.860000     17.467000      4.759000
N          11.477000     19.537000      2.166000
S          14.092000     19.321000      1.930000
C          11.727000     19.591000      0.841000
C          13.057000     19.584000      0.507000
C          15.154000     19.424000     16.547000
H          12.798000     20.334000     15.508000
H          12.168000     20.429000     13.019000
H          16.298000     19.437000     12.235000
H          11.902000     19.022000     11.121000
H           9.876000     15.892000      5.955000
H          10.588000     17.164000      3.755000
H          10.909000     19.647000      0.134000
H          13.554000     19.584000     -0.454000
H          15.685000     20.257000     17.023000
C          15.951000     18.110000     16.745000
H          14.167000     19.246000     16.991000
H          16.920000     18.383000     16.307000
H          15.589000     17.309000     16.089000
C          16.037000     17.490000     18.183000
H          16.096000     18.306000     18.913000
C          17.279000     16.611000     18.249000
H          15.059000     17.037000     18.386000
H          18.169000     17.159000     17.918000
H          17.106000     15.770000     17.566000
C          17.432000     15.970000     19.659000
H          17.634000     16.811000     20.333000
C          18.601000     14.960000     19.775000
H          16.496000     15.509000     19.998000
H          18.545000     14.097000     19.100000
H          18.570000     14.578000     20.803000
H          19.582000     15.447000     19.717000
C           7.136000     15.702000      8.185000
C           6.597000     14.448000      8.134000
N           7.485000     16.319000      7.080000
C           6.357000     13.749000      6.935000
C           7.382000     15.630000      5.932000
C           6.752000     14.426000      5.728000
C           6.691000     13.775000      4.362000
C           6.993000     12.355000      4.234000
C           6.296000     14.413000      3.186000
N           7.004000     11.754000      3.054000
N           6.013000     15.710000      3.115000
C           6.376000     13.745000      1.974000
C           6.719000     12.401000      1.892000
S           6.063000     16.121000      1.555000
N           6.136000     14.569000      0.974000
C           6.886000     11.572000      0.635000
S           6.687000     12.205000     -1.007000
C           7.094000     10.233000      0.525000
C           7.051000     10.707000     -1.788000
S           7.529000      9.128000      1.750000
C           7.394000      9.780000     -0.811000
C           7.243000     10.453000     -3.198000
C           8.020000      7.922000      0.483000
C           7.892000      8.427000     -0.805000
N           7.145000      9.235000     -3.669000
S           7.416000     11.797000     -4.354000
C           7.361000      9.277000     -5.041000
C           7.686000     10.526000     -5.534000
C           7.492000     16.368000      9.496000
H           6.346000     13.872000      9.020000
H           5.965000     12.746000      6.789000
H           7.717000     16.151000      5.036000
H           7.344000     11.738000      5.061000
H           8.550000      7.044000      0.828000
H           8.095000      7.861000     -1.706000
H           7.386000      8.338000     -5.577000
H           8.092000     10.753000     -6.512000
H           8.070000     15.647000     10.087000
C           6.436000     16.947000     10.407000
H           8.242000     17.160000      9.377000
H           5.592000     16.248000     10.367000
H           6.191000     17.923000      9.969000
C           7.000000     17.102000     11.843000
H           7.490000     16.189000     12.204000
C           6.055000     17.635000     12.957000
H           7.873000     17.765000     11.787000
H           5.653000     18.607000     12.644000
H           6.533000     17.603000     13.943000
C           4.859000     16.760000     13.208000
H           4.224000     16.631000     12.322000
C           4.137000     17.330000     14.420000
H           5.119000     15.720000     13.439000
H           3.811000     18.364000     14.250000
H           4.741000     17.300000     15.335000
H           3.208000     16.770000     14.583000
$end

--------------------------------------------------------------

             Standard Nuclear Orientation (Angstroms)
    I     Atom           X                Y                Z
 ----------------------------------------------------------------
    1      C     -10.4073642352    -0.2951340097     0.5376587436
    2      C      -9.7786679064    -0.6117040857    -0.6467057751
    3      N     -10.0499736489     0.7470970040     1.3232403644
    4      C      -8.5265424290     0.0142077019    -0.9974096715
    5      C      -8.9053739393     1.4049141112     0.9439487111
    6      C      -8.0358582231     0.9664903179    -0.0815740807
    7      C      -6.7184011013     1.6216804450    -0.3739208432
    8      C      -5.6034208848     0.8433777442    -0.8020446835
    9      C      -6.5017054088     3.0239031638    -0.2349804824
   10      N      -4.4108492269     1.3231396544    -0.8933154365
   11      N      -7.4389896255     3.9986611346    -0.1531563079
   12      C      -5.2139814805     3.5193084889    -0.3533681858
   13      C      -4.1589014761     2.6367293905    -0.6708556961
   14      S      -6.7095094287     5.4199663097    -0.3064639787
   15      N      -5.2433409771     4.8880496191    -0.4146522670
   16      C      -2.8105328773     3.1214427670    -0.9525648805
   17      S      -2.1737710697     4.7651508498    -1.1033731657
   18      C      -1.7243199015     2.2555382705    -0.8579035152
   19      C      -0.4683593617     4.2032794120    -0.9881976758
   20      S      -1.7328309698     0.6299660861    -0.3166312780
   21      C      -0.4463030366     2.8362256833    -0.9298828307
   22      C       0.7420513962     5.0941062943    -0.9658534858
   23      C       0.0909357250     0.6287269004    -0.3585181166
   24      C       0.6169200308     1.8687096594    -0.6855399314
   25      N       1.6893334448     4.8433379249    -1.8648423319
   26      S       0.9125281650     6.4796360869     0.0481863878
   27      C       2.6601439692     5.7757521007    -1.7690731795
   28      C       2.4009657994     6.7848432350    -0.8774080187
   29      C     -11.6168986689    -1.0579886864     1.0445889121
   30      H     -10.1669413576    -1.4356659029    -1.2386852097
   31      H      -7.8963396650    -0.3692014905    -1.7937235967
   32      H      -8.5268128421     2.0924939104     1.6988656042
   33      H      -5.6672225539    -0.2294956271    -0.9786603007
   34      H       0.6498995466    -0.2748962709    -0.1534093391
   35      H       1.6748525084     2.1017666405    -0.6690379185
   36      H       3.5519127863     5.6984081586    -2.3780684927
   37      H       2.9929683124     7.6354201048    -0.5666315506
   38      H     -12.5532088339    -0.5435368667     0.7974278309
   39      C     -11.5833873109    -1.3920254074     2.5573035111
   40      H     -11.5140279656    -2.0174264466     0.5231622128
   41      H     -11.7214541923    -0.3953482228     2.9965143099
   42      H     -10.5795086283    -1.6826677641     2.8900731179
   43      C     -12.5596746283    -2.4884968096     3.1088953332
   44      H     -13.5080761440    -2.4192572176     2.5630222309
   45      C     -12.7689046000    -2.2350845928     4.5960288401
   46      H     -12.1529956314    -3.4561990848     2.7909857548
   47      H     -13.0719352224    -1.1978800891     4.7813508825
   48      H     -11.8033341247    -2.4151435116     5.0848554382
   49      C     -13.7408742246    -3.2856681877     5.2075344893
   50      H     -14.7107394067    -3.0825538368     4.7379952587
   51      C     -13.9101151047    -3.1771359871     6.7436644597
   52      H     -13.4602143427    -4.3084777473     4.9271265091
   53      H     -12.9897402297    -3.3011854285     7.3276608857
   54      H     -14.5948520383    -3.9849294526     7.0304989917
   55      H     -14.4510651144    -2.2709008609     7.0420014889
   56      C      -0.0075489596    -3.3356861151    -1.8014163146
   57      C       0.7476289180    -4.3245113567    -1.2378836938
   58      N       0.5193857671    -2.1592272472    -2.0500110170
   59      C       2.1099120593    -4.1773880640    -0.9117834337
   60      C       1.7802755083    -1.9505310691    -1.6378982101
   61      C       2.6787129287    -2.8821287284    -1.1763053128
   62      C       4.0874784937    -2.5036156052    -0.7693834547
   63      C       4.6318653256    -3.0181947637     0.4807522447
   64      C       4.9653761880    -1.7367657068    -1.5357266362
   65      N       5.8383285754    -2.6728069844     0.9036892480
   66      N       4.6260720055    -1.1651107254    -2.6869964803
   67      C       6.1968168002    -1.3670663240    -1.0176104476
   68      C       6.6566659064    -1.8407758634     0.2050289399
   69      S       5.7305958325    -0.0293934685    -2.9955324230
   70      N       6.7934054966    -0.5021201597    -1.8129255174
   71      C       7.9536603591    -1.4795073739     0.8996291618
   72      S       9.1387883462    -0.3308204655     0.2574110986
   73      C       8.4891944757    -2.0183584861     2.0270721487
   74      C      10.2276733413    -0.4808379604     1.5909347086
   75      S       7.7391471603    -3.0426346569     3.1668801811
   76      C       9.6491142389    -1.3251030583     2.5311436266
   77      C      11.4136972808     0.2957269526     1.8733778903
   78      C       9.0623479393    -2.6804001247     4.3579854839
   79      C       9.9772732042    -1.7573280881     3.8668614924
   80      N      12.3229467003    -0.1630284457     2.6966506141
   81      S      11.7667070175     1.7881697220     0.9675083049
   82      C      13.3510140692     0.7683049216     2.7772709840
   83      C      13.1331162784     1.9288798016     2.0601507007
   84      C      -1.4960828309    -3.4921287579    -2.0223362397
   85      H       0.3455784108    -5.2942441002    -0.9590525694
   86      H       2.7849269092    -4.8846521670    -0.4373137920
   87      H       2.1783510742    -0.9530685910    -1.8197950183
   88      H       4.0513933119    -3.6038420065     1.1934152424
   89      H       8.9102849342    -3.0252567161     5.3722634408
   90      H      10.8621333962    -1.4313677660     4.3999077465
   91      H      14.1539900538     0.5745612056     3.4753647747
   92      H      13.6862668899     2.8563861041     2.1414246806
   93      H      -1.9325108663    -3.8605347067    -1.0858461827
   94      C      -2.0495972029    -4.3453464934    -3.1385527670
   95      H      -2.0138099754    -2.5283806677    -2.1064386926
   96      H      -1.3994308296    -5.2269003836    -3.1903545603
   97      H      -1.9746907834    -3.7179224251    -4.0358671303
   98      C      -3.5235008823    -4.7219768412    -2.8385952285
   99      H      -3.6587755749    -5.1197366742    -1.8249493965
  100      C      -4.2711891857    -5.6460730375    -3.8411511726
  101      H      -4.0919655497    -3.7878749341    -2.7430151625
  102      H      -4.2343826350    -5.1887080903    -4.8380561745
  103      H      -5.2652146426    -5.9238915164    -3.4717810550
  104      C      -3.6493397656    -7.0060191256    -3.9924519868
  105      H      -2.6107807738    -6.9697247677    -4.3459204298
  106      C      -4.5826178248    -7.8270551895    -4.8699597337
  107      H      -3.5342488747    -7.5421700685    -3.0427903349
  108      H      -4.7189930246    -7.3695197067    -5.8580867939
  109      H      -5.5697771435    -7.9856044621    -4.4190499781
  110      H      -4.1204803076    -8.8001291696    -5.0767590187
 ----------------------------------------------------------------

    9   -5663.5022517109      6.66E-06 Convergence criterion met
 Total energy in the final basis set = -5663.5022517109

                    Orbital Energies (a.u.)
 --------------------------------------------------------------

 Alpha MOs
 -- Occupied --
-88.992 -88.992 -88.932 -88.929 -88.923 -88.920 -88.906 -88.898
-14.380 -14.377 -14.373 -14.366 -14.351 -14.349 -14.344 -14.342
-14.328 -14.327 -10.274 -10.272 -10.269 -10.258 -10.252 -10.251
-10.248 -10.247 -10.246 -10.245 -10.240 -10.240 -10.235 -10.235
-10.234 -10.231 -10.231 -10.230 -10.230 -10.228 -10.227 -10.226
-10.224 -10.222 -10.221 -10.220 -10.218 -10.218 -10.217 -10.215
-10.214 -10.213 -10.212 -10.204 -10.202 -10.200 -10.199 -10.196
-10.183 -10.181 -10.180 -10.178 -10.177 -10.176 -10.175 -10.174
-10.173 -10.171 -10.170 -10.170  -8.048  -8.048  -7.993  -7.990
 -7.982  -7.978  -7.966  -7.957  -6.013  -6.013  -6.008  -6.007
 -6.006  -6.005  -5.956  -5.953  -5.953  -5.950  -5.950  -5.947
 -5.946  -5.943  -5.942  -5.939  -5.939  -5.935  -5.930  -5.927
 -5.922  -5.922  -5.918  -5.914  -1.047  -1.044  -0.973  -0.973
 -0.966  -0.962  -0.951  -0.930  -0.913  -0.906  -0.903  -0.890
 -0.842  -0.835  -0.831  -0.828  -0.813  -0.813  -0.810  -0.808
 -0.806  -0.799  -0.798  -0.791  -0.790  -0.779  -0.770  -0.761
 -0.754  -0.745  -0.742  -0.734  -0.719  -0.713  -0.711  -0.708
 -0.697  -0.689  -0.683  -0.672  -0.656  -0.649  -0.646  -0.640
 -0.637  -0.631  -0.628  -0.623  -0.615  -0.604  -0.601  -0.593
 -0.592  -0.587  -0.582  -0.580  -0.572  -0.571  -0.568  -0.565
 -0.549  -0.546  -0.543  -0.541  -0.527  -0.519  -0.513  -0.513
 -0.510  -0.505  -0.502  -0.497  -0.496  -0.481  -0.480  -0.477
 -0.474  -0.472  -0.471  -0.469  -0.467  -0.459  -0.455  -0.450
 -0.449  -0.443  -0.441  -0.435  -0.434  -0.431  -0.428  -0.427
 -0.423  -0.422  -0.420  -0.419  -0.416  -0.415  -0.414  -0.413
 -0.413  -0.411  -0.409  -0.407  -0.405  -0.402  -0.401  -0.398
 -0.394  -0.393  -0.392  -0.391  -0.389  -0.386  -0.383  -0.382
 -0.381  -0.380  -0.372  -0.366  -0.360  -0.359  -0.355  -0.353
 -0.350  -0.347  -0.346  -0.342  -0.340  -0.339  -0.336  -0.335
 -0.333  -0.332  -0.330  -0.328  -0.325  -0.320  -0.319  -0.315
 -0.314  -0.311  -0.308  -0.304  -0.303  -0.300  -0.299  -0.297
 -0.294  -0.293  -0.292  -0.291  -0.290  -0.287  -0.286  -0.279
 -0.274  -0.269  -0.267  -0.260  -0.254  -0.253  -0.252  -0.251
 -0.244  -0.236  -0.234  -0.227  -0.196  -0.191

          Ground-State Mulliken Net Atomic Charges

     Atom                 Charge (a.u.)
  ----------------------------------------
      1 C                     0.280410
      2 C                    -0.120104
      3 N                    -0.478597
      4 C                    -0.083923
      5 C                     0.083024
      6 C                     0.043499
      7 C                     0.000600
      8 C                     0.072977
      9 C                     0.219460
     10 N                    -0.492120
     11 N                    -0.558967
     12 C                     0.189615
     13 C                     0.265058
     14 S                     0.626847
     15 N                    -0.539120
     16 C                    -0.183458
     17 S                     0.312702
     18 C                    -0.131936
     19 C                    -0.254467
     20 S                     0.280128
     21 C                     0.180653
     22 C                     0.012017
     23 C                    -0.289225
     24 C                    -0.057846
     25 N                    -0.389726
     26 S                     0.283440
     27 C                     0.130672
     28 C                    -0.309298
     29 C                    -0.232152
     30 H                     0.088264
     31 H                     0.104718
     32 H                     0.103903
     33 H                     0.109253
     34 H                     0.123009
     35 H                     0.107764
     36 H                     0.114812
     37 H                     0.130945
     38 H                     0.118368
     39 C                    -0.181286
     40 H                     0.085800
     41 H                     0.115960
     42 H                     0.091886
     43 C                    -0.182288
     44 H                     0.086690
     45 C                    -0.161501
     46 H                     0.092157
     47 H                     0.099410
     48 H                     0.092426
     49 C                    -0.179364
     50 H                     0.092113
     51 C                    -0.321854
     52 H                     0.092948
     53 H                     0.103389
     54 H                     0.097359
     55 H                     0.103401
     56 C                     0.288852
     57 C                    -0.127603
     58 N                    -0.464289
     59 C                    -0.076363
     60 C                     0.047009
     61 C                     0.058004
     62 C                    -0.025324
     63 C                     0.070356
     64 C                     0.253492
     65 N                    -0.521852
     66 N                    -0.542793
     67 C                     0.234007
     68 C                     0.324048
     69 S                     0.606883
     70 N                    -0.594203
     71 C                    -0.197752
     72 S                     0.316225
     73 C                    -0.130339
     74 C                    -0.217907
     75 S                     0.278190
     76 C                     0.121344
     77 C                     0.061514
     78 C                    -0.320104
     79 C                    -0.036633
     80 N                    -0.421492
     81 S                     0.264445
     82 C                     0.116074
     83 C                    -0.301033
     84 C                    -0.244587
     85 H                     0.087494
     86 H                     0.104144
     87 H                     0.111087
     88 H                     0.118796
     89 H                     0.131716
     90 H                     0.125541
     91 H                     0.116366
     92 H                     0.134005
     93 H                     0.100364
     94 C                    -0.171520
     95 H                     0.131189
     96 H                     0.094244
     97 H                     0.111104
     98 C                    -0.188307
     99 H                     0.087551
    100 C                    -0.161349
    101 H                     0.088017
    102 H                     0.094631
    103 H                     0.089991
    104 C                    -0.173327
    105 H                     0.093756
    106 C                    -0.317901
    107 H                     0.086935
    108 H                     0.101682
    109 H                     0.102712
    110 H                     0.094467
  ----------------------------------------
  Sum of atomic charges =     0.000000

                    Cartesian Multipole Moments
 -----------------------------------------------------------------
    Charge (ESU x 10^10)
                 0.0000
    Dipole Moment (Debye)
         X       3.1748      Y       0.8181      Z       1.1427
       Tot       3.4720
    Quadrupole Moments (Debye-Ang)
        XX    -418.9697     XY      43.2702     YY    -408.4052
        XZ      20.0374     YZ       2.0382     ZZ    -446.2898

 Total job time:  78.87s(wall), 922.96s(cpu)
        *  Thank you very much for using Q-Chem.  Have a nice day.  *
