 Q-Chem 4.4, Q-Chem, Inc., Pleasanton, CA (2016)
 Q-Chem 4.4.2 for Intel X86 Linux

User input:
--------------------------------------------------------------
$comment
SP
$end

$rem
MEM_STATIC 5000
MEM_TOTAL 20000
JOBTYPE SP
EXCHANGE B3LYP
BASIS 6-31g(d,p)
$end

$molecule
0 1
C           1.784000     11.407000     -1.870000
C           3.131000     11.231000     -1.282000
N           0.973000     10.369000     -1.892000
C           3.452000     10.037000     -0.710000
C           1.361000      9.110000     -1.453000
C           2.557000      8.913000     -0.763000
C           2.972000      7.539000     -0.292000
C           4.347000      7.221000     -0.242000
C           2.136000      6.572000      0.180000
N           4.810000      6.101000      0.278000
N           0.829000      6.752000      0.396000
C           2.626000      5.336000      0.702000
C           4.017000      5.124000      0.787000
S           0.269000      5.428000      1.168000
N           1.726000      4.629000      1.376000
C           4.571000      3.773000      1.075000
S           3.647000      2.376000      1.747000
C           5.913000      3.428000      1.029000
C           5.189000      1.581000      2.206000
S           7.224000      4.332000      0.317000
C           6.211000      2.233000      1.680000
C           5.224000      0.232000      2.738000
C           8.309000      3.070000      1.008000
C           7.659000      2.095000      1.753000
N           4.153000     -0.490000      2.511000
S           6.634000     -0.587000      3.242000
C           4.388000     -1.793000      2.955000
C           5.594000     -1.923000      3.519000
C           1.326000     12.641000     -2.624000
H           3.836000     12.049000     -1.173000
H           4.445000      9.847000     -0.313000
H           0.634000      8.303000     -1.526000
H           5.077000      7.979000     -0.521000
H           9.349000      3.037000      0.712000
H           8.202000      1.338000      2.306000
H           3.604000     -2.537000      2.893000
H           5.994000     -2.810000      3.994000
H           0.454000     12.417000     -3.250000
C           2.390000     13.336000     -3.574000
H           0.944000     13.406000     -1.937000
H           3.232000     13.765000     -3.016000
H           1.982000     14.237000     -4.047000
C           2.865000     12.216000     -4.542000
H           3.475000     11.394000     -4.147000
C           3.755000     12.823000     -5.653000
H           2.016000     11.720000     -5.030000
H           4.670000     13.219000     -5.196000
H           3.200000     13.712000     -5.978000
C           4.143000     11.790000     -6.739000
H           4.930000     11.130000     -6.355000
C           4.604000     12.682000     -7.858000
H           3.276000     11.221000     -7.096000
H           3.868000     13.452000     -8.120000
H           4.917000     12.110000     -8.741000
H           5.516000     13.214000     -7.561000
C           7.136000     15.702000      8.185000
C           6.597000     14.448000      8.134000
N           7.485000     16.319000      7.080000
C           6.357000     13.749000      6.935000
C           7.382000     15.630000      5.932000
C           6.752000     14.426000      5.728000
C           6.691000     13.775000      4.362000
C           6.993000     12.355000      4.234000
C           6.296000     14.413000      3.186000
N           7.004000     11.754000      3.054000
N           6.013000     15.710000      3.115000
C           6.376000     13.745000      1.974000
C           6.719000     12.401000      1.892000
S           6.063000     16.121000      1.555000
N           6.136000     14.569000      0.974000
C           6.886000     11.572000      0.635000
S           6.687000     12.205000     -1.007000
C           7.094000     10.233000      0.525000
C           7.051000     10.707000     -1.788000
S           7.529000      9.128000      1.750000
C           7.394000      9.780000     -0.811000
C           7.243000     10.453000     -3.198000
C           8.020000      7.922000      0.483000
C           7.892000      8.427000     -0.805000
N           7.145000      9.235000     -3.669000
S           7.416000     11.797000     -4.354000
C           7.361000      9.277000     -5.041000
C           7.686000     10.526000     -5.534000
C           7.492000     16.368000      9.496000
H           6.346000     13.872000      9.020000
H           5.965000     12.746000      6.789000
H           7.717000     16.151000      5.036000
H           7.344000     11.738000      5.061000
H           8.550000      7.044000      0.828000
H           8.095000      7.861000     -1.706000
H           7.386000      8.338000     -5.577000
H           8.092000     10.753000     -6.512000
H           8.070000     15.647000     10.087000
C           6.436000     16.947000     10.407000
H           8.242000     17.160000      9.377000
H           5.592000     16.248000     10.367000
H           6.191000     17.923000      9.969000
C           7.000000     17.102000     11.843000
H           7.490000     16.189000     12.204000
C           6.055000     17.635000     12.957000
H           7.873000     17.765000     11.787000
H           5.653000     18.607000     12.644000
H           6.533000     17.603000     13.943000
C           4.859000     16.760000     13.208000
H           4.224000     16.631000     12.322000
C           4.137000     17.330000     14.420000
H           5.119000     15.720000     13.439000
H           3.811000     18.364000     14.250000
H           4.741000     17.300000     15.335000
H           3.208000     16.770000     14.583000
$end

--------------------------------------------------------------

             Standard Nuclear Orientation (Angstroms)
    I     Atom           X                Y                Z
 ----------------------------------------------------------------
    1      C       0.6017908068     3.9869363927    -3.3560164008
    2      C       0.3038397405     3.3370841187    -2.0598504453
    3      N       1.5638031228     3.4809230532    -4.1004166991
    4      C       0.9688493964     2.1966813279    -1.7235401238
    5      C       2.3479712576     2.4141021038    -3.6817051061
    6      C       2.0278071149     1.6740141787    -2.5436849900
    7      C       2.8887567077     0.5169322540    -2.0943864053
    8      C       2.9949847167     0.2410496884    -0.7134977711
    9      C       3.5294223785    -0.3645975640    -2.9124461086
   10      N       3.6118590128    -0.8220702651    -0.2355740667
   11      N       3.3901450268    -0.3898450479    -4.2418329537
   12      C       4.2399613034    -1.4933153387    -2.4011628004
   13      C       4.2369419587    -1.7420284443    -1.0136532780
   14      S       4.1431334136    -1.7288204829    -4.7920268047
   15      N       4.5606025276    -2.4011293424    -3.3161425489
   16      C       5.1629132270    -2.7392027453    -0.4109247953
   17      S       6.0661123657    -4.0172131309    -1.3097516808
   18      C       5.3463585554    -2.9475398014     0.9474008219
   19      C       6.3377105314    -4.9020628289     0.2276960251
   20      S       4.8406504783    -1.9198484641     2.2630720788
   21      C       5.9721993630    -4.1538158434     1.2537525706
   22      C       7.1820715224    -6.0797471294     0.2922266792
   23      C       5.4246705769    -3.2314257102     3.3521247184
   24      C       5.9079331359    -4.3550188301     2.6947467448
   25      N       8.0138103345    -6.2310091483    -0.7103621448
   26      S       7.4626070420    -7.0094236626     1.6957502329
   27      C       8.8471402603    -7.3189156565    -0.4416789409
   28      C       8.5371496849    -7.9173841705     0.7138180435
   29      C       0.0138855382     5.3080388355    -3.8143740459
   30      H      -0.5097170718     3.6558714046    -1.4160104189
   31      H       0.8192796435     1.7156850701    -0.7612358637
   32      H       3.1351857720     2.0720079853    -4.3513109025
   33      H       2.4368535451     0.8522461898    -0.0062259479
   34      H       5.5093569415    -3.0474744664     4.4148077189
   35      H       6.1946826010    -5.2532608993     3.2282661254
   36      H       9.5811457244    -7.6336285604    -1.1725878044
   37      H       8.9886586636    -8.8139171808     1.1197271511
   38      H       0.6216261951     5.7521927230    -4.6117538916
   39      C      -0.1650563330     6.4338465472    -2.7106721827
   40      H      -0.9584071234     5.1615946122    -4.3005006442
   41      H      -0.9055749706     6.1589800779    -1.9487997711
   42      H      -0.6286064603     7.3366272654    -3.1255242699
   43      C       1.2464225796     6.6202878009    -2.0861596222
   44      H       1.6657003756     5.8166306345    -1.4679765678
   45      C       1.2443953516     7.8416341855    -1.1358023740
   46      H       2.0064238746     6.8004464634    -2.8574584539
   47      H       0.5784781469     7.6304917652    -0.2903065699
   48      H       0.7260878264     8.6202179596    -1.7095057957
   49      C       2.6544317272     8.1781574602    -0.5921310533
   50      H       2.9263754385     7.4633258950     0.1936726444
   51      C       2.4592594277     9.5796142031    -0.0840240060
   52      H       3.4074008915     8.2096136564    -1.3889666357
   53      H       2.0247743733    10.2491086968    -0.8365131159
   54      H       3.3810991005     9.9981535764     0.3400967438
   55      H       1.7650501411     9.5765373210     0.7651173246
   56      C      -8.9019278417    -2.3802545496     0.8071753262
   57      C      -7.7696040192    -2.9909195886     0.3482973782
   58      N      -8.8628560216    -1.1341530022     1.2185380937
   59      C      -6.5183019024    -2.3506158177     0.2585416351
   60      C      -7.6605676863    -0.5374668516     1.2597981986
   61      C      -6.4795230598    -0.9884644777     0.7214054688
   62      C      -5.1966362660    -0.1899854266     0.8219573422
   63      C      -3.9657271446    -0.8636033625     1.2157715260
   64      C      -5.0647439229     1.1606585785     0.4988316993
   65      N      -2.8312933192    -0.1976071816     1.3681886603
   66      N      -6.0878400500     1.9341203450     0.1490171619
   67      C      -3.8636819531     1.8142130237     0.7266139024
   68      C      -2.7251578341     1.1411804953     1.1526409508
   69      S      -5.6034041948     3.4646107926     0.3161754461
   70      N      -3.9971314276     3.1105440633     0.5309277418
   71      C      -1.3733701128     1.7415944160     1.4802872239
   72      S      -1.0071602471     3.4721963321     1.3944889593
   73      C      -0.2109175309     1.1008743192     1.7743395192
   74      C       0.6323988769     3.3022225820     1.9135417537
   75      S       0.0190643216    -0.5451618068     2.1597593156
   76      C       0.8545677940     1.9648971201     2.2196603272
   77      C       1.5809494142     4.3408470060     2.2466951480
   78      C       1.6610719906    -0.1547299909     2.8322024820
   79      C       1.9384849070     1.2060810438     2.7923477240
   80      N       2.8647103725     4.0826098603     2.2621992970
   81      S       1.0542344354     6.0306875524     2.4457209217
   82      C       3.5421536666     5.2482214609     2.5986873054
   83      C       2.7258012892     6.3228585965     2.8943202244
   84      C     -10.1967284923    -3.1377189879     1.0040303484
   85      H      -7.7355158492    -4.0352912841     0.0518201309
   86      H      -5.5601690289    -2.7524261734    -0.0600785696
   87      H      -7.6513265811     0.4817903845     1.6438701823
   88      H      -3.9243164272    -1.9077099967     1.5255222144
   89      H       2.1618861670    -0.9430433847     3.3786054046
   90      H       2.8756303886     1.6479450321     3.1083865857
   91      H       4.6145160493     5.1898519062     2.7262565621
   92      H       3.0187474938     7.2488920588     3.3733750728
   93      H      -9.9639272546    -4.0500049548     1.5668304002
   94      C     -11.0670387935    -3.5425003886    -0.1617354932
   95      H     -10.8709128534    -2.6434660968     1.7147444448
   96      H     -10.3767246002    -3.8486675277    -0.9568864206
   97      H     -11.6281364206    -2.6359337414    -0.4220264210
   98      C     -12.0200439225    -4.6905633168     0.2601053975
   99      H     -11.4945126746    -5.5094334836     0.7673120194
  100      C     -12.9711204171    -5.2957578636    -0.8110169401
  101      H     -12.6316263660    -4.3245105836     1.0948546480
  102      H     -13.5804158192    -4.4892903409    -1.2384818483
  103      H     -13.5181324092    -6.1629656206    -0.4231605404
  104      C     -12.2544160502    -5.9256623872    -1.9723080929
  105      H     -11.6104542868    -5.2224123001    -2.5160125736
  106      C     -13.3106817092    -6.6032435403    -2.8327234801
  107      H     -11.5303589717    -6.6935932187    -1.6746764664
  108      H     -14.0558957731    -5.8868277224    -3.2011476580
  109      H     -13.8336762574    -7.4154022065    -2.3132853188
  110      H     -12.8373198972    -7.0009911081    -3.7387783721
 ----------------------------------------------------------------

   10   -5663.4905796128      3.50E-06 Convergence criterion met
 Total energy in the final basis set = -5663.4905796128

                    Orbital Energies (a.u.)
 --------------------------------------------------------------

 Alpha MOs
 -- Occupied --
-88.995 -88.979 -88.932 -88.928 -88.928 -88.915 -88.912 -88.908
-14.382 -14.380 -14.378 -14.372 -14.354 -14.352 -14.341 -14.339
-14.326 -14.316 -10.277 -10.271 -10.262 -10.257 -10.254 -10.254
-10.249 -10.248 -10.245 -10.244 -10.243 -10.237 -10.237 -10.237
-10.232 -10.231 -10.231 -10.230 -10.229 -10.229 -10.228 -10.227
-10.226 -10.225 -10.223 -10.218 -10.218 -10.217 -10.215 -10.215
-10.212 -10.208 -10.206 -10.204 -10.203 -10.199 -10.198 -10.191
-10.185 -10.184 -10.182 -10.181 -10.180 -10.177 -10.173 -10.173
-10.171 -10.169 -10.167 -10.166  -8.050  -8.034  -7.992  -7.991
 -7.987  -7.972  -7.971  -7.968  -6.016  -6.010  -6.008  -5.999
 -5.993  -5.991  -5.956  -5.955  -5.953  -5.952  -5.951  -5.949
 -5.947  -5.947  -5.944  -5.937  -5.935  -5.933  -5.932  -5.932
 -5.929  -5.929  -5.927  -5.924  -1.049  -1.027  -0.976  -0.975
 -0.964  -0.952  -0.950  -0.922  -0.917  -0.910  -0.909  -0.900
 -0.845  -0.837  -0.836  -0.825  -0.814  -0.814  -0.811  -0.810
 -0.802  -0.801  -0.800  -0.790  -0.790  -0.774  -0.771  -0.764
 -0.755  -0.748  -0.744  -0.737  -0.722  -0.718  -0.712  -0.705
 -0.699  -0.692  -0.685  -0.673  -0.657  -0.647  -0.644  -0.638
 -0.638  -0.629  -0.626  -0.616  -0.610  -0.604  -0.602  -0.597
 -0.595  -0.590  -0.587  -0.582  -0.581  -0.573  -0.568  -0.565
 -0.552  -0.545  -0.545  -0.535  -0.529  -0.523  -0.518  -0.516
 -0.510  -0.507  -0.499  -0.496  -0.490  -0.482  -0.479  -0.478
 -0.472  -0.472  -0.467  -0.465  -0.462  -0.457  -0.455  -0.452
 -0.446  -0.443  -0.438  -0.437  -0.436  -0.433  -0.432  -0.430
 -0.429  -0.427  -0.424  -0.421  -0.420  -0.419  -0.416  -0.414
 -0.411  -0.409  -0.408  -0.407  -0.402  -0.399  -0.397  -0.394
 -0.394  -0.392  -0.389  -0.388  -0.386  -0.386  -0.385  -0.382
 -0.380  -0.376  -0.372  -0.366  -0.361  -0.359  -0.358  -0.356
 -0.353  -0.351  -0.349  -0.347  -0.344  -0.343  -0.343  -0.340
 -0.338  -0.335  -0.332  -0.329  -0.327  -0.325  -0.323  -0.320
 -0.316  -0.315  -0.311  -0.306  -0.303  -0.303  -0.302  -0.298
 -0.295  -0.293  -0.292  -0.289  -0.287  -0.282  -0.282  -0.275
 -0.273  -0.268  -0.263  -0.256  -0.256  -0.254  -0.250  -0.246
 -0.240  -0.237  -0.230  -0.228  -0.199  -0.191

          Ground-State Mulliken Net Atomic Charges

     Atom                 Charge (a.u.)
  ----------------------------------------
      1 C                     0.289398
      2 C                    -0.135101
      3 N                    -0.489878
      4 C                    -0.070551
      5 C                     0.061982
      6 C                     0.049871
      7 C                     0.043493
      8 C                     0.071776
      9 C                     0.212693
     10 N                    -0.518136
     11 N                    -0.551822
     12 C                     0.186388
     13 C                     0.306757
     14 S                     0.589154
     15 N                    -0.546872
     16 C                    -0.230694
     17 S                     0.346496
     18 C                    -0.119599
     19 C                    -0.243853
     20 S                     0.285048
     21 C                     0.167866
     22 C                     0.064839
     23 C                    -0.309173
     24 C                    -0.084446
     25 N                    -0.429843
     26 S                     0.280563
     27 C                     0.118438
     28 C                    -0.305171
     29 C                    -0.234466
     30 H                     0.102544
     31 H                     0.099307
     32 H                     0.121129
     33 H                     0.119332
     34 H                     0.124684
     35 H                     0.115091
     36 H                     0.119124
     37 H                     0.126160
     38 H                     0.124880
     39 C                    -0.194792
     40 H                     0.101776
     41 H                     0.095891
     42 H                     0.096127
     43 C                    -0.174285
     44 H                     0.105986
     45 C                    -0.179468
     46 H                     0.096951
     47 H                     0.091385
     48 H                     0.083204
     49 C                    -0.182258
     50 H                     0.104898
     51 C                    -0.308843
     52 H                     0.096423
     53 H                     0.106520
     54 H                     0.082528
     55 H                     0.092114
     56 C                     0.292539
     57 C                    -0.129238
     58 N                    -0.475236
     59 C                    -0.075374
     60 C                     0.070594
     61 C                     0.056832
     62 C                    -0.022555
     63 C                     0.071571
     64 C                     0.254470
     65 N                    -0.520451
     66 N                    -0.543069
     67 C                     0.233245
     68 C                     0.326020
     69 S                     0.607117
     70 N                    -0.596412
     71 C                    -0.189199
     72 S                     0.304982
     73 C                    -0.148920
     74 C                    -0.218095
     75 S                     0.279912
     76 C                     0.119196
     77 C                     0.064920
     78 C                    -0.289411
     79 C                    -0.055103
     80 N                    -0.423119
     81 S                     0.267832
     82 C                     0.116138
     83 C                    -0.302475
     84 C                    -0.237834
     85 H                     0.086923
     86 H                     0.104445
     87 H                     0.099714
     88 H                     0.120882
     89 H                     0.137637
     90 H                     0.129276
     91 H                     0.120087
     92 H                     0.137932
     93 H                     0.101901
     94 C                    -0.170924
     95 H                     0.115910
     96 H                     0.095557
     97 H                     0.109088
     98 C                    -0.188353
     99 H                     0.087873
    100 C                    -0.161187
    101 H                     0.088926
    102 H                     0.094150
    103 H                     0.091318
    104 C                    -0.173352
    105 H                     0.093413
    106 C                    -0.318166
    107 H                     0.087109
    108 H                     0.101637
    109 H                     0.103197
    110 H                     0.094567
  ----------------------------------------
  Sum of atomic charges =     0.000000

                    Cartesian Multipole Moments
 -----------------------------------------------------------------
    Charge (ESU x 10^10)
                 0.0000
    Dipole Moment (Debye)
         X       0.6303      Y      -1.2403      Z       4.3749
       Tot       4.5908
    Quadrupole Moments (Debye-Ang)
        XX    -431.5747     XY      -9.9460     YY    -396.0438
        XZ      24.3194     YZ       2.1334     ZZ    -443.9880

 Total job time:  94.56s(wall), 1129.49s(cpu)
        *  Thank you very much for using Q-Chem.  Have a nice day.  *
