 Q-Chem 4.4, Q-Chem, Inc., Pleasanton, CA (2016)
 Q-Chem 4.4.2 for Intel X86 Linux

User input:
--------------------------------------------------------------
$comment
SP
$end

$rem
MEM_STATIC 5000
MEM_TOTAL 20000
JOBTYPE SP
EXCHANGE B3LYP
BASIS 6-31g(d,p)
$end

$molecule
0 1
C          10.847000     12.129000      7.680000
C          11.451000     13.260000      7.141000
N          10.173000     11.201000      6.940000
C          11.329000     13.539000      5.757000
C          10.234000     11.441000      5.602000
C          10.728000     12.588000      4.949000
C          10.380000     12.846000      3.530000
C           9.995000     14.115000      3.084000
C          10.515000     11.911000      2.464000
N           9.679000     14.398000      1.815000
N          10.848000     10.626000      2.651000
C          10.179000     12.240000      1.154000
C           9.831000     13.525000      0.803000
S          10.774000      9.970000      1.198000
N          10.270000     11.182000      0.276000
C           9.680000     13.928000     -0.617000
S           9.879000     12.956000     -2.025000
C           9.493000     15.257000     -1.030000
C           9.625000     14.347000     -3.184000
S           9.401000     16.645000      0.006000
C           9.461000     15.460000     -2.400000
C           9.948000     14.394000     -4.571000
C           9.414000     17.647000     -1.498000
C           9.451000     16.928000     -2.608000
N          10.299000     13.203000     -5.071000
S           9.273000     15.497000     -5.742000
C          10.254000     13.319000     -6.464000
C           9.973000     14.511000     -6.979000
C          11.085000     11.832000      9.149000
H          11.876000     13.960000      7.854000
H          11.730000     14.479000      5.390000
H           9.825000     10.640000      4.986000
H           9.858000     15.032000      3.657000
H           9.258000     18.716000     -1.443000
H           9.472000     17.317000     -3.619000
H          10.495000     12.439000     -7.046000
H           9.886000     14.803000     -8.017000
H          10.805000     10.797000      9.383000
C          10.240000     12.661000     10.157000
H          12.173000     11.723000      9.241000
H           9.476000     11.994000     10.576000
H           9.699000     13.509000      9.719000
C          11.258000     13.188000     11.202000
H          11.556000     12.354000     11.849000
C          10.649000     14.247000     12.105000
H          12.122000     13.624000     10.685000
H           9.915000     13.766000     12.762000
H          10.219000     15.040000     11.481000
C          11.751000     14.843000     13.004000
H          12.214000     13.993000     13.522000
C          11.314000     16.031000     13.959000
H          12.630000     15.151000     12.424000
H          12.054000     16.243000     14.740000
H          10.327000     15.782000     14.370000
H          11.218000     16.943000     13.356000
C           7.136000     15.702000      8.185000
C           6.597000     14.448000      8.134000
N           7.485000     16.319000      7.080000
C           6.357000     13.749000      6.935000
C           7.382000     15.630000      5.932000
C           6.752000     14.426000      5.728000
C           6.691000     13.775000      4.362000
C           6.993000     12.355000      4.234000
C           6.296000     14.413000      3.186000
N           7.004000     11.754000      3.054000
N           6.013000     15.710000      3.115000
C           6.376000     13.745000      1.974000
C           6.719000     12.401000      1.892000
S           6.063000     16.121000      1.555000
N           6.136000     14.569000      0.974000
C           6.886000     11.572000      0.635000
S           6.687000     12.205000     -1.007000
C           7.094000     10.233000      0.525000
C           7.051000     10.707000     -1.788000
S           7.529000      9.128000      1.750000
C           7.394000      9.780000     -0.811000
C           7.243000     10.453000     -3.198000
C           8.020000      7.922000      0.483000
C           7.892000      8.427000     -0.805000
N           7.145000      9.235000     -3.669000
S           7.416000     11.797000     -4.354000
C           7.361000      9.277000     -5.041000
C           7.686000     10.526000     -5.534000
C           7.492000     16.368000      9.496000
H           6.346000     13.872000      9.020000
H           5.965000     12.746000      6.789000
H           7.717000     16.151000      5.036000
H           7.344000     11.738000      5.061000
H           8.550000      7.044000      0.828000
H           8.095000      7.861000     -1.706000
H           7.386000      8.338000     -5.577000
H           8.092000     10.753000     -6.512000
H           8.070000     15.647000     10.087000
C           6.436000     16.947000     10.407000
H           8.242000     17.160000      9.377000
H           5.592000     16.248000     10.367000
H           6.191000     17.923000      9.969000
C           7.000000     17.102000     11.843000
H           7.490000     16.189000     12.204000
C           6.055000     17.635000     12.957000
H           7.873000     17.765000     11.787000
H           5.653000     18.607000     12.644000
H           6.533000     17.603000     13.943000
C           4.859000     16.760000     13.208000
H           4.224000     16.631000     12.322000
C           4.137000     17.330000     14.420000
H           5.119000     15.720000     13.439000
H           3.811000     18.364000     14.250000
H           4.741000     17.300000     15.335000
H           3.208000     16.770000     14.583000
$end

--------------------------------------------------------------

             Standard Nuclear Orientation (Angstroms)
    I     Atom           X                Y                Z
 ----------------------------------------------------------------
    1      C      -4.6122610651     2.7989361872    -1.6944227367
    2      C      -4.2759704241     1.8144898111    -2.6176084913
    3      N      -3.7311334234     3.3373922178    -0.8018202597
    4      C      -2.9707252360     1.2626944566    -2.6237636145
    5      C      -2.4592477354     2.8840522761    -0.9702087809
    6      C      -2.0166922618     1.8315444901    -1.7962995829
    7      C      -0.6789193915     1.2270889349    -1.5812967238
    8      C      -0.4845475996    -0.1583704116    -1.5962635411
    9      C       0.5443239762     1.9482589016    -1.4699614530
   10      N       0.7020487033    -0.7493935049    -1.4146405332
   11      N       0.6060554718     3.2859735361    -1.4083840297
   12      C       1.7622114607     1.3006877031    -1.2838469235
   13      C       1.8612318842    -0.0715385013    -1.3360024555
   14      S       2.1527692499     3.6131622122    -1.1901065484
   15      N       2.8223125833     2.1590210906    -1.0889664325
   16      C       3.1782405351    -0.7548055380    -1.3516348009
   17      S       4.7459522854    -0.0430735612    -1.3009745478
   18      C       3.3341458983    -2.1327500487    -1.5724094440
   19      C       5.6216784215    -1.6358418620    -1.4981315271
   20      S       2.0579147493    -3.2721042567    -1.8577338965
   21      C       4.6419371311    -2.5843741828    -1.6420566474
   22      C       6.9839525340    -1.8405770543    -1.8622740043
   23      C       3.3511321003    -4.4852192900    -2.2072046376
   24      C       4.5752794342    -4.0034812008    -2.0664150135
   25      N       7.7037906180    -0.7120816162    -1.8659042962
   26      S       7.9139084259    -3.2880501443    -1.5733472096
   27      C       9.0498967083    -1.0900606678    -1.8984654708
   28      C       9.3289029302    -2.3855765038    -1.9925093276
   29      C      -5.9947570331     3.4170922001    -1.7913868650
   30      H      -5.0948336455     1.4124377020    -3.2065152125
   31      H      -2.7733481509     0.4299089891    -3.2920454797
   32      H      -1.7166534775     3.4034022918    -0.3642654425
   33      H      -1.2201417332    -0.9538164488    -1.7152335896
   34      H       3.0959629140    -5.5240694138    -2.3678318666
   35      H       5.4973853736    -4.5482679834    -2.2301556561
   36      H       9.7901474907    -0.3006546557    -1.8899844884
   37      H      10.2926880589    -2.8757850765    -2.0255362978
   38      H      -6.0408673918     4.3499174470    -1.2151127171
   39      C      -7.1594762281     2.5776039425    -1.1947138708
   40      H      -6.0374407457     3.8537630845    -2.7971630029
   41      H      -7.4675073988     3.0577729798    -0.2573236141
   42      H      -6.8992704627     1.5432783369    -0.9376292521
   43      C      -8.2575805882     2.5719691833    -2.2902562314
   44      H      -8.7318792719     3.5606558553    -2.3128044775
   45      C      -9.3555709192     1.5661516314    -1.9893920007
   46      H      -7.8081188051     2.3198031831    -3.2589034396
   47      H      -9.9309865768     1.9242134906    -1.1277339909
   48      H      -8.8996566827     0.5816624768    -1.8279971020
   49      C     -10.3208237519     1.4934301676    -3.1897334345
   50      H     -10.6612407263     2.5215746741    -3.3692554594
   51      C     -11.4893347228     0.4262642432    -3.0893491693
   52      H      -9.7854738381     1.3542144696    -4.1373221951
   53      H     -12.2770075016     0.5866876583    -3.8352318152
   54      H     -11.8722619226     0.4475329849    -2.0607552745
   55      H     -11.0675286852    -0.5686153297    -3.2813473519
   56      C      -5.8616074105    -1.5449179314     0.8280641524
   57      C      -5.5938781751    -0.5344619728     1.7072329713
   58      N      -4.8808773006    -2.2252921573     0.2814615870
   59      C      -4.2930035334    -0.1686725917     2.1043794119
   60      C      -3.6284796421    -1.8195451351     0.5462321648
   61      C      -3.2219566204    -0.9106879287     1.4932536066
   62      C      -1.7613140713    -0.5684133149     1.7002546515
   63      C      -1.3659765570     0.8290957644     1.8213522278
   64      C      -0.7335743643    -1.4986261572     1.8567799290
   65      N      -0.0954774581     1.1796220327     1.9505241102
   66      N      -0.9102224446    -2.8117011515     1.7473792195
   67      C       0.5824736779    -1.0709564620     1.9385367777
   68      C       0.9196377688     0.2756288498     1.9996708426
   69      S       0.5479622067    -3.4695558242     1.5330296160
   70      N       1.4069161382    -2.0981971407     1.8979508469
   71      C       2.3118020684     0.8715402619     2.0437973840
   72      S       3.8032886462    -0.0824187667     2.0003927778
   73      C       2.6721293419     2.1688976569     2.2317150409
   74      C       4.8561682942     1.2864081358     2.0653416657
   75      S       1.6833976232     3.5581446725     2.1744671759
   76      C       4.0759348022     2.4361584882     2.0367615139
   77      C       6.2932350559     1.3217642633     1.9134566213
   78      C       3.1631433402     4.6006325993     2.0183341059
   79      C       4.3322299984     3.8525868756     1.9549544488
   80      N       6.9781689268     2.3499257761     2.3478740429
   81      S       7.1855157970    -0.1017474932     1.3218060840
   82      C       8.3239129077     2.1214203046     2.0879463851
   83      C       8.5861648427     0.9532581026     1.3985292455
   84      C      -7.2634940454    -1.8253053440     0.3329785420
   85      H      -6.3645134738     0.0957794582     2.1416175648
   86      H      -3.9745019253     0.6316115361     2.7670188617
   87      H      -2.8357435308    -2.3754880814     0.0472543113
   88      H      -2.0558081666     1.6626297836     1.6903087644
   89      H       2.9995657921     5.6428200984     1.7777169775
   90      H       5.3270228893     4.2775465390     1.8987193287
   91      H       9.0243703123     2.9116370938     2.3215247458
   92      H       9.5154956976     0.6789330117     0.9148569322
   93      H      -7.6965105914    -0.8712816178     0.0081071818
   94      C      -8.2921508689    -2.5095139583     1.2013227777
   95      H      -7.2736283738    -2.3717682159    -0.6184417778
   96      H      -8.1453349648    -2.1069905226     2.2107567646
   97      H      -8.0480445783    -3.5776242010     1.1380959773
   98      C      -9.7173227938    -2.2265825566     0.6599801815
   99      H      -9.8911797812    -1.1602725535     0.4682858282
  100      C     -10.9341295348    -2.7979241267     1.4416835557
  101      H      -9.7624414403    -2.6044923373    -0.3695743365
  102      H     -10.8160830041    -3.8851195819     1.5334880154
  103      H     -11.8848600706    -2.4472411894     1.0235484988
  104      C     -11.0496933717    -2.2794280494     2.8476881138
  105      H     -10.1715016532    -2.5064185620     3.4658439297
  106      C     -12.3639534975    -2.8024272506     3.4083307426
  107      H     -11.0782339194    -1.1849024189     2.9090076154
  108      H     -12.3959141415    -3.8993692448     3.4136953243
  109      H     -13.2420976794    -2.4299042867     2.8670078841
  110      H     -12.4443826769    -2.5178787632     4.4646324539
 ----------------------------------------------------------------

   10   -5663.4861537893      3.49E-06 Convergence criterion met
 Total energy in the final basis set = -5663.4861537893

                    Orbital Energies (a.u.)
 --------------------------------------------------------------

 Alpha MOs
 -- Occupied --
-88.985 -88.984 -88.929 -88.922 -88.920 -88.916 -88.908 -88.903
-14.380 -14.373 -14.369 -14.368 -14.346 -14.345 -14.345 -14.341
-14.333 -14.322 -10.268 -10.265 -10.262 -10.258 -10.250 -10.244
-10.243 -10.242 -10.239 -10.239 -10.238 -10.238 -10.237 -10.233
-10.229 -10.228 -10.227 -10.227 -10.226 -10.225 -10.225 -10.224
-10.223 -10.223 -10.222 -10.222 -10.222 -10.213 -10.213 -10.212
-10.212 -10.209 -10.209 -10.208 -10.202 -10.200 -10.197 -10.194
-10.187 -10.182 -10.182 -10.181 -10.180 -10.179 -10.179 -10.178
-10.178 -10.176 -10.172 -10.170  -8.040  -8.039  -7.991  -7.980
 -7.979  -7.976  -7.967  -7.963  -6.005  -6.004  -5.999  -5.999
 -5.998  -5.996  -5.955  -5.952  -5.948  -5.944  -5.944  -5.941
 -5.940  -5.940  -5.937  -5.936  -5.936  -5.933  -5.931  -5.928
 -5.927  -5.924  -5.923  -5.920  -1.044  -1.037  -0.971  -0.964
 -0.961  -0.955  -0.946  -0.934  -0.912  -0.907  -0.904  -0.897
 -0.843  -0.837  -0.833  -0.828  -0.814  -0.810  -0.810  -0.808
 -0.803  -0.799  -0.799  -0.792  -0.788  -0.784  -0.770  -0.765
 -0.749  -0.748  -0.741  -0.737  -0.726  -0.714  -0.709  -0.708
 -0.695  -0.692  -0.676  -0.675  -0.654  -0.651  -0.644  -0.639
 -0.636  -0.631  -0.628  -0.622  -0.611  -0.609  -0.598  -0.597
 -0.592  -0.586  -0.583  -0.582  -0.577  -0.575  -0.575  -0.564
 -0.545  -0.543  -0.542  -0.536  -0.524  -0.520  -0.517  -0.508
 -0.506  -0.504  -0.499  -0.499  -0.491  -0.489  -0.481  -0.480
 -0.473  -0.471  -0.471  -0.467  -0.464  -0.461  -0.453  -0.450
 -0.444  -0.440  -0.437  -0.435  -0.434  -0.432  -0.430  -0.429
 -0.426  -0.424  -0.420  -0.419  -0.417  -0.415  -0.414  -0.412
 -0.411  -0.407  -0.407  -0.403  -0.400  -0.398  -0.397  -0.396
 -0.395  -0.394  -0.392  -0.389  -0.385  -0.383  -0.381  -0.380
 -0.379  -0.377  -0.376  -0.368  -0.362  -0.357  -0.355  -0.354
 -0.353  -0.349  -0.347  -0.346  -0.344  -0.342  -0.339  -0.338
 -0.335  -0.333  -0.331  -0.329  -0.328  -0.325  -0.324  -0.320
 -0.318  -0.314  -0.311  -0.306  -0.303  -0.302  -0.297  -0.296
 -0.295  -0.292  -0.289  -0.286  -0.285  -0.285  -0.280  -0.277
 -0.270  -0.267  -0.267  -0.261  -0.256  -0.256  -0.248  -0.245
 -0.244  -0.237  -0.234  -0.227  -0.198  -0.191

          Ground-State Mulliken Net Atomic Charges

     Atom                 Charge (a.u.)
  ----------------------------------------
      1 C                     0.253975
      2 C                    -0.105685
      3 N                    -0.475176
      4 C                    -0.082146
      5 C                     0.064003
      6 C                     0.058307
      7 C                     0.030873
      8 C                     0.036358
      9 C                     0.228760
     10 N                    -0.552438
     11 N                    -0.539040
     12 C                     0.188253
     13 C                     0.334954
     14 S                     0.642041
     15 N                    -0.562917
     16 C                    -0.203626
     17 S                     0.374024
     18 C                    -0.140117
     19 C                    -0.250425
     20 S                     0.269030
     21 C                     0.155449
     22 C                     0.046094
     23 C                    -0.309874
     24 C                    -0.054393
     25 N                    -0.415896
     26 S                     0.272994
     27 C                     0.097470
     28 C                    -0.288600
     29 C                    -0.246487
     30 H                     0.092319
     31 H                     0.104838
     32 H                     0.125815
     33 H                     0.119015
     34 H                     0.124970
     35 H                     0.105077
     36 H                     0.108462
     37 H                     0.137461
     38 H                     0.115181
     39 C                    -0.193417
     40 H                     0.113989
     41 H                     0.106901
     42 H                     0.107865
     43 C                    -0.172264
     44 H                     0.097995
     45 C                    -0.177909
     46 H                     0.095981
     47 H                     0.092875
     48 H                     0.095817
     49 C                    -0.183628
     50 H                     0.087832
     51 C                    -0.323334
     52 H                     0.086949
     53 H                     0.105052
     54 H                     0.103833
     55 H                     0.106624
     56 C                     0.291996
     57 C                    -0.131693
     58 N                    -0.478493
     59 C                    -0.070227
     60 C                     0.064376
     61 C                     0.057551
     62 C                    -0.027976
     63 C                     0.065118
     64 C                     0.255321
     65 N                    -0.530032
     66 N                    -0.551771
     67 C                     0.249254
     68 C                     0.314417
     69 S                     0.619556
     70 N                    -0.601468
     71 C                    -0.198607
     72 S                     0.323834
     73 C                    -0.134724
     74 C                    -0.212889
     75 S                     0.264229
     76 C                     0.134513
     77 C                     0.059723
     78 C                    -0.327044
     79 C                    -0.037934
     80 N                    -0.428098
     81 S                     0.285655
     82 C                     0.113653
     83 C                    -0.299151
     84 C                    -0.245233
     85 H                     0.085902
     86 H                     0.106516
     87 H                     0.100901
     88 H                     0.126283
     89 H                     0.129723
     90 H                     0.127290
     91 H                     0.111654
     92 H                     0.125569
     93 H                     0.106610
     94 C                    -0.170400
     95 H                     0.112506
     96 H                     0.095911
     97 H                     0.108921
     98 C                    -0.192534
     99 H                     0.091051
    100 C                    -0.160979
    101 H                     0.088093
    102 H                     0.093909
    103 H                     0.091015
    104 C                    -0.173295
    105 H                     0.093776
    106 C                    -0.317893
    107 H                     0.086933
    108 H                     0.101409
    109 H                     0.102842
    110 H                     0.094364
  ----------------------------------------
  Sum of atomic charges =     0.000000

                    Cartesian Multipole Moments
 -----------------------------------------------------------------
    Charge (ESU x 10^10)
                 0.0000
    Dipole Moment (Debye)
         X       1.9151      Y      -1.1265      Z      -2.2674
       Tot       3.1745
    Quadrupole Moments (Debye-Ang)
        XX    -376.0380     XY     -18.9230     YY    -433.0694
        XZ      -4.5686     YZ       2.0209     ZZ    -453.0484

 Total job time:  113.64s(wall), 1349.30s(cpu)
        *  Thank you very much for using Q-Chem.  Have a nice day.  *
