 Q-Chem 4.4, Q-Chem, Inc., Pleasanton, CA (2016)
 Q-Chem 4.4.2 for Intel X86 Linux

User input:
--------------------------------------------------------------
$comment
SP
$end

$rem
MEM_STATIC 5000
MEM_TOTAL 20000
JOBTYPE SP
EXCHANGE B3LYP
BASIS 6-31g(d,p)
$end

$molecule
0 1
C          10.404000     23.563000      2.597000
C          11.311000     23.987000      3.548000
N           9.295000     22.853000      2.887000
C          11.186000     23.472000      4.865000
C           9.156000     22.401000      4.212000
C          10.069000     22.712000      5.243000
C           9.967000     22.329000      6.729000
C          10.557000     23.159000      7.686000
C           9.207000     21.243000      7.188000
N          10.432000     22.887000      8.991000
N           8.476000     20.459000      6.376000
C           9.153000     20.929000      8.557000
C           9.818000     21.749000      9.456000
S           7.737000     19.400000      7.382000
N           8.497000     19.839000      8.815000
C           9.663000     21.599000     10.862000
S           8.195000     21.045000     11.685000
C          10.484000     22.199000     11.847000
C           8.987000     21.347000     13.300000
S          11.928000     23.130000     11.624000
C          10.084000     22.095000     13.184000
C           8.272000     21.179000     14.576000
C          11.945000     23.422000     13.359000
C          10.916000     22.801000     14.074000
N           8.831000     21.515000     15.673000
S           6.708000     20.347000     14.684000
C           7.944000     21.354000     16.693000
C           6.747000     20.773000     16.366000
C          10.648000     23.945000      1.175000
H          12.145000     24.561000      3.156000
H          11.988000     23.568000      5.590000
H           8.203000     21.899000      4.371000
H          11.234000     23.981000      7.454000
H          12.829000     23.955000     13.685000
H          10.766000     22.850000     15.146000
H           8.208000     21.655000     17.698000
H           5.875000     20.624000     16.989000
H          11.622000     24.434000      1.046000
C           9.466000     24.800000      0.538000
H          10.852000     23.028000      0.609000
H           9.405000     25.807000      0.970000
H           8.500000     24.329000      0.757000
C           9.518000     24.962000     -0.998000
H          10.321000     25.676000     -1.219000
C           8.110000     25.433000     -1.516000
H           9.902000     24.095000     -1.551000
H           7.834000     26.377000     -1.031000
H           7.358000     24.650000     -1.360000
C           8.071000     25.741000     -3.041000
H           7.183000     26.383000     -3.105000
C           7.970000     24.493000     -3.918000
H           8.918000     26.408000     -3.242000
H           7.962000     24.730000     -4.989000
H           7.126000     23.831000     -3.687000
H           8.837000     23.881000     -3.643000
C           7.136000     15.702000      8.185000
C           6.597000     14.448000      8.134000
N           7.485000     16.319000      7.080000
C           6.357000     13.749000      6.935000
C           7.382000     15.630000      5.932000
C           6.752000     14.426000      5.728000
C           6.691000     13.775000      4.362000
C           6.993000     12.355000      4.234000
C           6.296000     14.413000      3.186000
N           7.004000     11.754000      3.054000
N           6.013000     15.710000      3.115000
C           6.376000     13.745000      1.974000
C           6.719000     12.401000      1.892000
S           6.063000     16.121000      1.555000
N           6.136000     14.569000      0.974000
C           6.886000     11.572000      0.635000
S           6.687000     12.205000     -1.007000
C           7.094000     10.233000      0.525000
C           7.051000     10.707000     -1.788000
S           7.529000      9.128000      1.750000
C           7.394000      9.780000     -0.811000
C           7.243000     10.453000     -3.198000
C           8.020000      7.922000      0.483000
C           7.892000      8.427000     -0.805000
N           7.145000      9.235000     -3.669000
S           7.416000     11.797000     -4.354000
C           7.361000      9.277000     -5.041000
C           7.686000     10.526000     -5.534000
C           7.492000     16.368000      9.496000
H           6.346000     13.872000      9.020000
H           5.965000     12.746000      6.789000
H           7.717000     16.151000      5.036000
H           7.344000     11.738000      5.061000
H           8.550000      7.044000      0.828000
H           8.095000      7.861000     -1.706000
H           7.386000      8.338000     -5.577000
H           8.092000     10.753000     -6.512000
H           8.070000     15.647000     10.087000
C           6.436000     16.947000     10.407000
H           8.242000     17.160000      9.377000
H           5.592000     16.248000     10.367000
H           6.191000     17.923000      9.969000
C           7.000000     17.102000     11.843000
H           7.490000     16.189000     12.204000
C           6.055000     17.635000     12.957000
H           7.873000     17.765000     11.787000
H           5.653000     18.607000     12.644000
H           6.533000     17.603000     13.943000
C           4.859000     16.760000     13.208000
H           4.224000     16.631000     12.322000
C           4.137000     17.330000     14.420000
H           5.119000     15.720000     13.439000
H           3.811000     18.364000     14.250000
H           4.741000     17.300000     15.335000
H           3.208000     16.770000     14.583000
$end

--------------------------------------------------------------

             Standard Nuclear Orientation (Angstroms)
    I     Atom           X                Y                Z
 ----------------------------------------------------------------
    1      C      -1.1176116393    -6.8022735147    -0.6972161772
    2      C      -2.2222878107    -6.7968692486    -1.5257614990
    3      N      -0.8415516922    -5.8212041700     0.1856059150
    4      C      -2.9894220404    -5.6050920107    -1.6064528179
    5      C      -1.6498532545    -4.6709099588     0.1334349262
    6      C      -2.7557483847    -4.5322610648    -0.7331811625
    7      C      -3.7382568516    -3.3517886147    -0.8134987013
    8      C      -5.0492713235    -3.5872849083    -1.2361469597
    9      C      -3.4187122454    -2.0598575000    -0.3702355294
   10      N      -5.9454621579    -2.5927718836    -1.2566367587
   11      N      -2.2385864546    -1.7440270632     0.1918278595
   12      C      -4.3499046668    -1.0120451075    -0.4733997881
   13      C      -5.6151536498    -1.2905772654    -0.9677588157
   14      S      -2.3823184424    -0.1627504040     0.5900027491
   15      N      -3.8742634145     0.1429638407    -0.1202429836
   16      C      -6.6604798733    -0.3264251586    -0.9351275229
   17      S      -6.8734058784     0.9231766158     0.3027848011
   18      C      -7.8851449651    -0.4192963960    -1.6392840013
   19      C      -8.4384949814     1.4337015673    -0.4824243263
   20      S      -8.3743317142    -1.6126982066    -2.7960529683
   21      C      -8.8769282892     0.5259752965    -1.3543063435
   22      C      -9.3136685687     2.4671368847     0.0952500081
   23      C      -9.9569010280    -0.8450552521    -2.8405126274
   24      C     -10.0857859931     0.2927437796    -2.0376994304
   25      N     -10.4535595893     2.7065197567    -0.4264110905
   26      S      -8.7757624006     3.5445729687     1.3990032207
   27      C     -11.1075226575     3.6268442134     0.3341316103
   28      C     -10.3938128269     4.1715818625     1.3691089876
   29      C      -0.2003653275    -7.9780618479    -0.7582489485
   30      H      -2.3110352491    -7.6663104031    -2.1698825831
   31      H      -3.7123882969    -5.4486612230    -2.4007413048
   32      H      -1.4008812501    -3.9645508020     0.9237283417
   33      H      -5.3950046491    -4.5222550925    -1.6767558819
   34      H     -10.6122377860    -1.2800338365    -3.5842520742
   35      H     -10.9730671105     0.9072851662    -1.9420119032
   36      H     -12.1240321054     3.9091536943     0.0946908047
   37      H     -10.7325040746     4.8501287547     2.1408449228
   38      H      -0.4683828520    -8.6618213677    -1.5737718026
   39      C      -0.0558893705    -8.7403822150     0.6316835520
   40      H       0.7652337804    -7.6334981240    -1.1478066504
   41      H      -0.9774608959    -9.2659336060     0.9125672629
   42      H       0.1277198704    -8.0206915701     1.4387095877
   43      C       1.0984523951    -9.7649504942     0.7091363074
   44      H       0.7933285998   -10.6382610605     0.1194973293
   45      C       1.3870928395   -10.1053489227     2.2169309233
   46      H       2.0075595158    -9.4938866141     0.1568658882
   47      H       0.4790175150   -10.5010313243     2.6874324028
   48      H       1.7797073982    -9.2273172714     2.7440392875
   49      C       2.4578134231   -11.2167920746     2.4175837373
   50      H       2.2286622525   -11.5502219673     3.4379357588
   51      C       3.8953697158   -10.7213819955     2.2599932590
   52      H       2.1590060313   -12.0519806874     1.7727014817
   53      H       4.6336419000   -11.5226581140     2.3872126131
   54      H       4.1665802683    -9.8735104876     2.9014757157
   55      H       3.9374281605   -10.2849185390     1.2552103280
   56      C      -0.8660998039     3.3365851112     0.2199406030
   57      C      -0.0561734218     4.4147134489     0.4374182870
   58      N      -0.3515971248     2.1350849888     0.0966545576
   59      C       1.3435395951     4.3267346175     0.5672843541
   60      C       0.9876458524     2.0368405290     0.0934492485
   61      C       1.9024673361     3.0087373558     0.4200226874
   62      C       3.3936350698     2.7452779435     0.3979789111
   63      C       4.2801977306     3.7136061530    -0.2347415069
   64      C       4.0256345586     1.6592872746     1.0039870902
   65      N       5.5842685111     3.5014883466    -0.3248937970
   66      N       3.3697118481     0.6681572232     1.5996091340
   67      C       5.3874240796     1.4651672815     0.8324798634
   68      C       6.1891252650     2.3909572539     0.1760523074
   69      S       4.4015419936    -0.5648290399     1.7413568891
   70      N       5.7547833158     0.2989338741     1.3239295873
   71      C       7.6712027139     2.2767885574    -0.1165069933
   72      S       8.6669994823     0.8804927625     0.3253084084
   73      C       8.5058652118     3.2138904082    -0.6394444999
   74      C      10.1243812998     1.5190218008    -0.3490653050
   75      S       8.0968963649     4.6846449726    -1.4013503296
   76      C       9.8247006012     2.7287402629    -0.9641097924
   77      C      11.4002294533     0.8604245232    -0.5162212649
   78      C       9.7713293369     4.7847277874    -2.0992497870
   79      C      10.5448978216     3.6762971685    -1.7778056043
   80      N      12.4894490873     1.5657189919    -0.6926562433
   81      S      11.5578746833    -0.8990501666    -0.2881910095
   82      C      13.5628965899     0.6915922720    -0.8127267914
   83      C      13.2198127241    -0.6465345804    -0.7931056828
   84      C      -2.3494108669     3.4880307517    -0.0367021609
   85      H      -0.4250416215     5.4350585612     0.4884584970
   86      H       2.0733350572     5.1193176342     0.7094101613
   87      H       1.3880015993     1.0342918666    -0.0517866129
   88      H       3.9248859834     4.5921547356    -0.7730025499
   89      H       9.9407568172     5.5482255805    -2.8470294663
   90      H      11.5830900972     3.5530040364    -2.0612162649
   91      H      14.5338468704     1.1122824622    -1.0361486270
   92      H      13.8481423971    -1.4825653865    -1.0743587953
   93      H      -2.4748064107     4.2592259279    -0.8065982304
   94      C      -3.3210603012     3.8051307080     1.0748926370
   95      H      -2.7771315861     2.6247465393    -0.5617929673
   96      H      -2.8078332893     4.5257386911     1.7228580442
   97      H      -3.4981184809     2.8450187828     1.5761714937
   98      C      -4.6343186028     4.3805835502     0.4846184129
   99      H      -4.4540837788     5.1900176366    -0.2339369907
  100      C      -5.7558261307     4.8249617666     1.4658721342
  101      H      -5.0515249388     3.6260865444    -0.1947247563
  102      H      -6.0173644567     3.9765368142     2.1109533726
  103      H      -6.5871938828     5.3074302544     0.9388466897
  104      C      -5.3453316469     5.9330099779     2.3947238125
  105      H      -4.4883666167     5.6707950750     3.0285347320
  106      C      -6.5893220501     6.3530859981     3.1635879189
  107      H      -4.9644375059     6.8204215782     1.8751265599
  108      H      -7.0101517261     5.5208815011     3.7420946681
  109      H      -7.3760948257     6.7637720029     2.5191760902
  110      H      -6.3127826887     7.1016064066     3.9162187577
 ----------------------------------------------------------------

    9   -5663.5009292373      9.22E-06 Convergence criterion met
 Total energy in the final basis set = -5663.5009292373

                    Orbital Energies (a.u.)
 --------------------------------------------------------------

 Alpha MOs
 -- Occupied --
-88.992 -88.977 -88.928 -88.922 -88.921 -88.918 -88.905 -88.904
-14.379 -14.377 -14.376 -14.374 -14.351 -14.348 -14.341 -14.338
-14.331 -14.326 -10.273 -10.269 -10.264 -10.252 -10.251 -10.250
-10.247 -10.244 -10.244 -10.240 -10.239 -10.235 -10.234 -10.234
-10.233 -10.233 -10.230 -10.229 -10.227 -10.226 -10.225 -10.225
-10.224 -10.224 -10.223 -10.221 -10.220 -10.220 -10.219 -10.216
-10.214 -10.212 -10.209 -10.201 -10.201 -10.200 -10.195 -10.194
-10.184 -10.182 -10.179 -10.178 -10.176 -10.176 -10.175 -10.174
-10.174 -10.172 -10.172 -10.171  -8.047  -8.031  -7.989  -7.982
 -7.979  -7.979  -7.965  -7.964  -6.012  -6.007  -6.005  -5.997
 -5.991  -5.989  -5.952  -5.949  -5.946  -5.946  -5.944  -5.943
 -5.942  -5.940  -5.939  -5.938  -5.936  -5.936  -5.930  -5.928
 -5.926  -5.925  -5.921  -5.921  -1.046  -1.031  -0.981  -0.972
 -0.961  -0.954  -0.948  -0.922  -0.913  -0.910  -0.906  -0.904
 -0.841  -0.839  -0.836  -0.824  -0.812  -0.810  -0.807  -0.807
 -0.803  -0.799  -0.796  -0.791  -0.790  -0.779  -0.770  -0.760
 -0.753  -0.744  -0.741  -0.739  -0.718  -0.718  -0.711  -0.704
 -0.697  -0.688  -0.682  -0.670  -0.656  -0.653  -0.647  -0.644
 -0.637  -0.633  -0.628  -0.623  -0.615  -0.604  -0.601  -0.592
 -0.591  -0.589  -0.587  -0.582  -0.580  -0.572  -0.564  -0.562
 -0.549  -0.549  -0.543  -0.535  -0.527  -0.522  -0.513  -0.511
 -0.508  -0.504  -0.501  -0.497  -0.492  -0.480  -0.477  -0.476
 -0.472  -0.472  -0.467  -0.466  -0.460  -0.454  -0.454  -0.450
 -0.446  -0.440  -0.436  -0.435  -0.434  -0.433  -0.430  -0.430
 -0.427  -0.426  -0.422  -0.421  -0.419  -0.418  -0.417  -0.414
 -0.409  -0.409  -0.408  -0.404  -0.404  -0.400  -0.399  -0.398
 -0.394  -0.391  -0.389  -0.388  -0.387  -0.385  -0.383  -0.382
 -0.374  -0.372  -0.372  -0.371  -0.360  -0.360  -0.354  -0.351
 -0.351  -0.350  -0.347  -0.346  -0.342  -0.341  -0.340  -0.339
 -0.335  -0.334  -0.333  -0.331  -0.328  -0.325  -0.320  -0.315
 -0.313  -0.309  -0.308  -0.306  -0.304  -0.303  -0.300  -0.300
 -0.295  -0.292  -0.292  -0.290  -0.288  -0.285  -0.281  -0.276
 -0.274  -0.267  -0.266  -0.259  -0.253  -0.251  -0.250  -0.247
 -0.244  -0.239  -0.234  -0.229  -0.196  -0.188

          Ground-State Mulliken Net Atomic Charges

     Atom                 Charge (a.u.)
  ----------------------------------------
      1 C                     0.293235
      2 C                    -0.115101
      3 N                    -0.499963
      4 C                    -0.104596
      5 C                     0.061533
      6 C                     0.065398
      7 C                     0.032004
      8 C                     0.060100
      9 C                     0.221095
     10 N                    -0.515584
     11 N                    -0.563561
     12 C                     0.247379
     13 C                     0.275219
     14 S                     0.639845
     15 N                    -0.609726
     16 C                    -0.188448
     17 S                     0.304674
     18 C                    -0.126264
     19 C                    -0.268598
     20 S                     0.277134
     21 C                     0.193319
     22 C                     0.070843
     23 C                    -0.317750
     24 C                    -0.040784
     25 N                    -0.433547
     26 S                     0.270597
     27 C                     0.122178
     28 C                    -0.321211
     29 C                    -0.236635
     30 H                     0.088664
     31 H                     0.101035
     32 H                     0.123809
     33 H                     0.113344
     34 H                     0.130013
     35 H                     0.130551
     36 H                     0.107596
     37 H                     0.132602
     38 H                     0.088501
     39 C                    -0.173583
     40 H                     0.116646
     41 H                     0.094675
     42 H                     0.124333
     43 C                    -0.181906
     44 H                     0.085338
     45 C                    -0.180730
     46 H                     0.090037
     47 H                     0.090829
     48 H                     0.097102
     49 C                    -0.178325
     50 H                     0.086926
     51 C                    -0.316348
     52 H                     0.091696
     53 H                     0.102785
     54 H                     0.104068
     55 H                     0.104823
     56 C                     0.303577
     57 C                    -0.133328
     58 N                    -0.485589
     59 C                    -0.072589
     60 C                     0.075473
     61 C                     0.052972
     62 C                    -0.024330
     63 C                     0.071310
     64 C                     0.254083
     65 N                    -0.522389
     66 N                    -0.548175
     67 C                     0.235216
     68 C                     0.324679
     69 S                     0.608551
     70 N                    -0.591845
     71 C                    -0.197431
     72 S                     0.317796
     73 C                    -0.130129
     74 C                    -0.218906
     75 S                     0.278048
     76 C                     0.121940
     77 C                     0.060797
     78 C                    -0.320090
     79 C                    -0.036995
     80 N                    -0.422065
     81 S                     0.266784
     82 C                     0.115628
     83 C                    -0.300464
     84 C                    -0.259235
     85 H                     0.089474
     86 H                     0.105371
     87 H                     0.103659
     88 H                     0.118958
     89 H                     0.131511
     90 H                     0.125592
     91 H                     0.116246
     92 H                     0.134169
     93 H                     0.103703
     94 C                    -0.170533
     95 H                     0.133782
     96 H                     0.092312
     97 H                     0.107413
     98 C                    -0.198964
     99 H                     0.084646
    100 C                    -0.163806
    101 H                     0.112313
    102 H                     0.100829
    103 H                     0.102100
    104 C                    -0.175486
    105 H                     0.092112
    106 C                    -0.322379
    107 H                     0.086916
    108 H                     0.102312
    109 H                     0.102327
    110 H                     0.094863
  ----------------------------------------
  Sum of atomic charges =     0.000000

                    Cartesian Multipole Moments
 -----------------------------------------------------------------
    Charge (ESU x 10^10)
                 0.0000
    Dipole Moment (Debye)
         X       0.8989      Y       0.9772      Z      -1.0327
       Tot       1.6821
    Quadrupole Moments (Debye-Ang)
        XX    -393.1037     XY     -25.7211     YY    -415.4112
        XZ     -16.3856     YZ      11.4810     ZZ    -441.4964

 Total job time:  82.21s(wall), 974.26s(cpu)
        *  Thank you very much for using Q-Chem.  Have a nice day.  *
