 Q-Chem 4.4, Q-Chem, Inc., Pleasanton, CA (2016)
 Q-Chem 4.4.2 for Intel X86 Linux

User input:
--------------------------------------------------------------
$comment
SP
$end

$rem
MEM_STATIC 5000
MEM_TOTAL 20000
JOBTYPE SP
EXCHANGE B3LYP
BASIS 6-31g(d,p)
$end

$molecule
0 1
C         -12.095000     -4.437000     -3.492000
C         -11.539000     -5.317000     -2.550000
N         -12.951000     -3.505000     -3.078000
C         -11.915000     -5.250000     -1.193000
C         -13.397000     -3.483000     -1.767000
C         -12.782000     -4.221000     -0.784000
C         -13.180000     -4.100000      0.607000
C         -12.199000     -3.988000      1.580000
C         -14.534000     -3.953000      1.103000
N         -12.511000     -3.803000      2.876000
N         -15.613000     -3.950000      0.244000
C         -14.773000     -3.814000      2.438000
C         -13.720000     -3.782000      3.348000
S         -16.861000     -3.938000      1.267000
N         -16.118000     -3.765000      2.710000
C         -13.892000     -3.776000      4.828000
S         -15.291000     -3.107000      5.734000
C         -13.054000     -4.383000      5.650000
C         -14.621000     -3.732000      7.237000
S         -11.552000     -5.205000      5.211000
C         -13.460000     -4.401000      7.001000
C         -15.124000     -3.426000      8.554000
C         -11.323000     -5.360000      6.977000
C         -12.364000     -4.908000      7.811000
N         -14.808000     -4.248000      9.544000
S         -16.227000     -2.128000      8.961000
C         -15.243000     -3.748000     10.767000
C         -15.920000     -2.582000     10.587000
C         -11.633000     -4.452000     -5.045000
H         -10.975000     -6.163000     -2.930000
H         -11.424000     -5.863000     -0.443000
H         -14.249000     -2.868000     -1.481000
H         -11.184000     -4.143000      1.218000
H         -10.373000     -5.799000      7.249000
H         -12.297000     -4.807000      8.888000
H         -14.967000     -4.184000     11.718000
H         -16.497000     -2.009000     11.301000
H         -11.959000     -5.371000     -5.549000
C         -10.131000     -4.369000     -5.288000
H         -12.154000     -3.659000     -5.595000
H          -9.597000     -5.207000     -4.823000
H          -9.689000     -3.503000     -4.780000
C          -9.762000     -4.347000     -6.775000
H         -10.448000     -3.653000     -7.274000
C          -9.581000     -5.688000     -7.469000
H          -8.793000     -3.838000     -6.849000
H         -10.514000     -6.263000     -7.435000
H          -8.970000     -6.310000     -6.803000
C          -9.036000     -5.695000     -8.906000
H          -9.560000     -5.003000     -9.576000
C          -9.203000     -7.083000     -9.464000
H          -8.028000     -5.301000     -8.730000
H         -10.233000     -7.427000     -9.308000
H          -8.556000     -7.839000     -9.002000
H          -8.993000     -7.196000    -10.535000
C          -8.024000     -2.867000      2.116000
C          -8.836000     -2.069000      1.362000
N          -6.690000     -2.726000      2.160000
C          -8.242000     -0.930000      0.663000
C          -6.099000     -1.646000      1.566000
C          -6.890000     -0.698000      0.795000
C          -6.292000      0.486000     -0.030000
C          -7.053000      1.661000     -0.198000
C          -4.978000      0.604000     -0.487000
N          -6.565000      2.814000     -0.730000
N          -4.121000     -0.433000     -0.487000
C          -4.492000      1.759000     -1.062000
C          -5.300000      2.852000     -1.160000
S          -2.725000      0.137000     -1.057000
N          -3.143000      1.725000     -1.276000
C          -4.896000      4.158000     -1.824000
S          -3.261000      4.657000     -2.028000
C          -5.747000      5.155000     -2.214000
C          -3.730000      6.288000     -2.523000
S          -7.468000      5.190000     -2.359000
C          -5.088000      6.351000     -2.555000
C          -2.857000      7.347000     -2.968000
C          -7.295000      6.861000     -2.991000
C          -6.018000      7.385000     -2.966000
N          -1.659000      6.803000     -3.283000
S          -3.096000      9.002000     -3.373000
C          -0.874000      7.809000     -3.850000
C          -1.406000      9.046000     -3.872000
C          -8.481000     -4.115000      2.789000
H          -9.914000     -2.188000      1.297000
H          -8.841000     -0.273000      0.038000
H          -5.018000     -1.529000      1.620000
H          -8.102000      1.718000      0.090000
H          -8.182000      7.351000     -3.371000
H          -5.812000      8.386000     -3.329000
H           0.046000      7.468000     -4.306000
H          -0.970000      9.967000     -4.233000
H          -8.061000     -4.174000      3.801000
C          -8.310000     -5.485000      2.027000
H          -9.567000     -3.988000      2.877000
H          -7.272000     -5.793000      2.200000
H          -8.443000     -5.342000      0.947000
C          -9.289000     -6.575000      2.579000
H          -9.162000     -6.547000      3.668000
C          -8.862000     -7.914000      1.935000
H         -10.346000     -6.369000      2.366000
H          -7.832000     -8.081000      2.273000
H          -8.766000     -7.759000      0.853000
C          -9.667000     -9.087000      2.485000
H          -9.206000    -10.040000      2.200000
C         -11.140000     -9.165000      2.055000
H          -9.593000     -9.149000      3.578000
H         -11.666000     -8.440000      2.688000
H         -11.690000    -10.104000      2.194000
H         -11.288000     -8.877000      1.006000
$end

--------------------------------------------------------------

             Standard Nuclear Orientation (Angstroms)
    I     Atom           X                Y                Z
 ----------------------------------------------------------------
    1      C       1.4589628418     5.2404991987    -1.8286863698
    2      C       2.1130067474     4.9901192230    -0.6119545023
    3      N       1.6320171420     4.3929300755    -2.8408300309
    4      C       2.9788051555     3.8861565100    -0.4742103741
    5      C       2.5458515283     3.3562042458    -2.7501257403
    6      C       3.0974469980     2.9848318531    -1.5472196826
    7      C       3.9610605096     1.8223943734    -1.4431196903
    8      C       3.7648574848     0.9298831171    -0.4007368286
    9      C       4.9603446728     1.4060637535    -2.4069874074
   10      N       4.4890968024    -0.1995323844    -0.2954608301
   11      N       5.2043337256     2.1434231054    -3.5466810190
   12      C       5.6863567421     0.2695334566    -2.2073067637
   13      C       5.4626093880    -0.5282433983    -1.0886369235
   14      S       6.4805993917     1.3825324752    -4.1762589719
   15      N       6.6284305829     0.0903346441    -3.1900552890
   16      C       6.2993730683    -1.7038615463    -0.7174651122
   17      S       7.2135005286    -2.7587088408    -1.8476271233
   18      C       6.5530351681    -2.0366755132     0.5360369431
   19      C       7.9200627305    -3.6155482292    -0.4819294564
   20      S       5.8989327360    -1.2675583280     1.9869048777
   21      C       7.4860376632    -3.0832702569     0.6925833793
   22      C       8.7002425324    -4.8248862110    -0.5817048157
   23      C       6.7254369378    -2.5946080861     2.8535372934
   24      C       7.5126034828    -3.4795037858     2.0913893872
   25      N       9.4922750902    -5.1364167309     0.4338113893
   26      S       8.8017461083    -5.8744801007    -1.9799579012
   27      C      10.0660000451    -6.3907565874     0.2537414010
   28      C       9.6915271623    -6.9140598108    -0.9446778897
   29      C       0.4110148084     6.4652641044    -1.9937131710
   30      H       2.0863957304     5.7734776785     0.1389472115
   31      H       3.4163621747     3.6317270547     0.4866015260
   32      H       2.8450863374     2.8010487326    -3.6379240762
   33      H       3.0477783082     1.2610722931     0.3485329386
   34      H       6.5350630539    -2.5952426940     3.9179443498
   35      H       7.9433773105    -4.4026828164     2.4612452873
   36      H      10.6296907349    -6.9011507641     1.0234319821
   37      H      10.0571633198    -7.7991390710    -1.4486609287
   38      H       0.9210385340     7.4358928616    -1.9426385695
   39      C      -0.6943787409     6.5341544749    -0.9471467766
   40      H      -0.0178465105     6.4534770225    -3.0030342467
   41      H      -0.2884570562     6.6401406036     0.0665689263
   42      H      -1.2424896096     5.5863882943    -0.8786066963
   43      C      -1.6741705425     7.6886830845    -1.1814237819
   44      H      -1.9150898092     7.7039556474    -2.2505157591
   45      C      -1.3180746041     9.0391442109    -0.5796527053
   46      H      -2.6222864188     7.3933886270    -0.7151669124
   47      H      -0.3721872906     9.4042115580    -0.9971368634
   48      H      -0.9913625311     8.8511332067     0.4507220244
   49      C      -2.3650409885    10.1624186554    -0.6441423360
   50      H      -2.7902934037    10.3072043376    -1.6444110447
   51      C      -1.6965151359    11.4500305003    -0.2429866041
   52      H      -3.1438593882     9.7348589784    -0.0015611172
   53      H      -0.7697937002    11.5838020240    -0.8147073052
   54      H      -1.4120897044    11.5034824593     0.8152355191
   55      H      -2.2894197163    12.3617899500    -0.3881377819
   56      C       0.7530700826    -0.3800475279     2.4606929450
   57      C       0.4011811768    -0.2175621440     1.1513279470
   58      N      -0.1407115118    -0.5665588182     3.4444312233
   59      C      -1.0050399672    -0.3741550952     0.7814918457
   60      C      -1.4572836531    -0.7713041600     3.1390885604
   61      C      -1.9215616175    -0.6864525122     1.7621091961
   62      C      -3.4199761839    -0.7697776180     1.3286398042
   63      C      -3.7416839388    -1.3038635929     0.0640346120
   64      C      -4.5356282552    -0.5418148457     2.1365521944
   65      N      -5.0076742692    -1.5967894188    -0.3385072414
   66      N      -4.4405329302     0.0385544232     3.3464887179
   67      C      -5.8228931804    -0.8015411602     1.7166268988
   68      C      -6.0309765030    -1.3398382575     0.4821008497
   69      S      -5.9371097792     0.0809223516     3.9440493371
   70      N      -6.7478059332    -0.6778239091     2.7146165989
   71      C      -7.4028173280    -1.6152161149    -0.1111678807
   72      S      -8.8237388268    -1.8340865716     0.8358906272
   73      C      -7.6706587551    -1.8607400836    -1.4296097455
   74      C      -9.7655177577    -2.3959577178    -0.5506519290
   75      S      -6.6927489056    -1.6800875946    -2.8421068267
   76      C      -8.9744749253    -2.3404168058    -1.6553344374
   77      C     -11.1710193957    -2.7210362143    -0.5735455231
   78      C      -8.1261660332    -2.1887996063    -3.7950608798
   79      C      -9.2259822084    -2.5874761388    -3.0619910311
   80      N     -11.7429627644    -2.2027095378     0.5375724902
   81      S     -12.2258731186    -3.3806201901    -1.7619913999
   82      C     -13.1220385536    -2.3942178595     0.4316266059
   83      C     -13.5514771256    -3.0934751584    -0.6362211093
   84      C       2.1272053030    -0.1440561516     2.9854237964
   85      H       1.1119179131    -0.0403155828     0.3488898197
   86      H      -1.3401127066    -0.2404838108    -0.2436585077
   87      H      -2.1741259972    -0.9387239327     3.9411319965
   88      H      -2.9807288924    -1.5154280847    -0.6861532866
   89      H      -8.0594175374    -2.1358106428    -4.8739518883
   90      H     -10.1406340578    -2.9097728154    -3.5475246001
   91      H     -13.7138659327    -1.8715157677     1.1713156463
   92      H     -14.5597872675    -3.3807856276    -0.8997004293
   93      H       2.4030574141    -0.9368728062     3.6920866333
   94      C       2.4734024811     1.2785770652     3.5711261479
   95      H       2.7696632496    -0.2362972819     2.1011114304
   96      H       2.0998270487     1.2737904644     4.6019779727
   97      H       1.9343542923     2.0608118719     3.0215137779
   98      C       4.0166730494     1.5422287735     3.5641454796
   99      H       4.4602919807     0.6503489817     4.0230427238
  100      C       4.2432483813     2.8393070112     4.3742304532
  101      H       4.4440614257     1.6411721005     2.5578635142
  102      H       3.8709683203     2.6185618317     5.3820558954
  103      H       3.5534319153     3.6044798043     3.9965681175
  104      C       5.7275450324     3.1457376433     4.5457463977
  105      H       5.8769443830     3.9227654259     5.3046025495
  106      C       6.4783793191     3.6092510658     3.2879243987
  107      H       6.2606658988     2.3074031506     5.0115214724
  108      H       6.6800325411     2.6948900526     2.7167239824
  109      H       7.4585339698     4.0901682534     3.3954303016
  110      H       5.8761593892     4.2803662898     2.6616780318
 ----------------------------------------------------------------

   10   -5663.4994708410      4.26E-06 Convergence criterion met
 Total energy in the final basis set = -5663.4994708410

                    Orbital Energies (a.u.)
 --------------------------------------------------------------

 Alpha MOs
 -- Occupied --
-88.996 -88.990 -88.932 -88.926 -88.922 -88.914 -88.907 -88.907
-14.392 -14.391 -14.387 -14.381 -14.351 -14.349 -14.340 -14.337
-14.331 -14.326 -10.267 -10.266 -10.266 -10.262 -10.259 -10.256
-10.252 -10.249 -10.242 -10.240 -10.238 -10.236 -10.235 -10.232
-10.230 -10.230 -10.230 -10.228 -10.227 -10.226 -10.226 -10.226
-10.225 -10.224 -10.224 -10.223 -10.221 -10.221 -10.220 -10.217
-10.212 -10.211 -10.208 -10.205 -10.203 -10.203 -10.202 -10.200
-10.193 -10.183 -10.183 -10.182 -10.180 -10.180 -10.179 -10.178
-10.177 -10.175 -10.174 -10.171  -8.051  -8.046  -7.993  -7.988
 -7.981  -7.973  -7.967  -7.967  -6.016  -6.011  -6.011  -6.009
 -6.005  -6.004  -5.957  -5.954  -5.951  -5.950  -5.948  -5.946
 -5.945  -5.942  -5.938  -5.937  -5.933  -5.931  -5.931  -5.930
 -5.928  -5.928  -5.923  -5.923  -1.046  -1.040  -0.977  -0.967
 -0.961  -0.959  -0.935  -0.931  -0.913  -0.911  -0.906  -0.902
 -0.844  -0.840  -0.836  -0.831  -0.814  -0.811  -0.809  -0.809
 -0.805  -0.803  -0.799  -0.794  -0.784  -0.781  -0.773  -0.766
 -0.757  -0.746  -0.742  -0.741  -0.723  -0.719  -0.711  -0.705
 -0.697  -0.692  -0.676  -0.676  -0.658  -0.654  -0.651  -0.647
 -0.640  -0.636  -0.633  -0.627  -0.614  -0.609  -0.597  -0.596
 -0.590  -0.589  -0.587  -0.582  -0.578  -0.573  -0.572  -0.569
 -0.553  -0.549  -0.542  -0.537  -0.528  -0.526  -0.516  -0.513
 -0.513  -0.505  -0.503  -0.499  -0.489  -0.484  -0.482  -0.476
 -0.475  -0.473  -0.471  -0.469  -0.465  -0.463  -0.452  -0.450
 -0.445  -0.441  -0.439  -0.434  -0.434  -0.430  -0.429  -0.427
 -0.426  -0.424  -0.421  -0.420  -0.419  -0.417  -0.417  -0.415
 -0.412  -0.410  -0.408  -0.405  -0.404  -0.399  -0.398  -0.396
 -0.395  -0.393  -0.391  -0.390  -0.389  -0.387  -0.385  -0.385
 -0.381  -0.377  -0.377  -0.374  -0.366  -0.364  -0.361  -0.360
 -0.354  -0.352  -0.350  -0.348  -0.347  -0.344  -0.342  -0.342
 -0.336  -0.336  -0.335  -0.333  -0.330  -0.329  -0.325  -0.323
 -0.320  -0.316  -0.311  -0.309  -0.308  -0.305  -0.303  -0.302
 -0.298  -0.297  -0.292  -0.287  -0.287  -0.284  -0.284  -0.277
 -0.276  -0.272  -0.270  -0.263  -0.253  -0.251  -0.249  -0.246
 -0.244  -0.238  -0.238  -0.234  -0.196  -0.193

          Ground-State Mulliken Net Atomic Charges

     Atom                 Charge (a.u.)
  ----------------------------------------
      1 C                     0.271729
      2 C                    -0.111530
      3 N                    -0.491180
      4 C                    -0.090075
      5 C                     0.076227
      6 C                     0.040650
      7 C                     0.017553
      8 C                     0.074959
      9 C                     0.203867
     10 N                    -0.548853
     11 N                    -0.536588
     12 C                     0.203594
     13 C                     0.297033
     14 S                     0.620924
     15 N                    -0.556021
     16 C                    -0.193618
     17 S                     0.297829
     18 C                    -0.102983
     19 C                    -0.231878
     20 S                     0.289384
     21 C                     0.164582
     22 C                     0.056157
     23 C                    -0.308908
     24 C                    -0.053389
     25 N                    -0.438187
     26 S                     0.272272
     27 C                     0.120208
     28 C                    -0.300290
     29 C                    -0.219758
     30 H                     0.089752
     31 H                     0.107436
     32 H                     0.121343
     33 H                     0.118656
     34 H                     0.123070
     35 H                     0.120504
     36 H                     0.121564
     37 H                     0.124192
     38 H                     0.110442
     39 C                    -0.183144
     40 H                     0.119552
     41 H                     0.088836
     42 H                     0.101132
     43 C                    -0.182831
     44 H                     0.092014
     45 C                    -0.173592
     46 H                     0.087655
     47 H                     0.083468
     48 H                     0.090145
     49 C                    -0.165867
     50 H                     0.099025
     51 C                    -0.320885
     52 H                     0.098268
     53 H                     0.106166
     54 H                     0.103157
     55 H                     0.097359
     56 C                     0.274016
     57 C                    -0.120926
     58 N                    -0.485136
     59 C                    -0.100711
     60 C                     0.090139
     61 C                     0.051457
     62 C                     0.047242
     63 C                     0.046559
     64 C                     0.196005
     65 N                    -0.525186
     66 N                    -0.538851
     67 C                     0.231782
     68 C                     0.289723
     69 S                     0.615293
     70 N                    -0.551016
     71 C                    -0.240938
     72 S                     0.358092
     73 C                    -0.088972
     74 C                    -0.230018
     75 S                     0.271620
     76 C                     0.126403
     77 C                     0.046421
     78 C                    -0.303211
     79 C                    -0.073576
     80 N                    -0.431753
     81 S                     0.281707
     82 C                     0.129522
     83 C                    -0.316592
     84 C                    -0.244050
     85 H                     0.094294
     86 H                     0.104031
     87 H                     0.122367
     88 H                     0.111905
     89 H                     0.122952
     90 H                     0.115750
     91 H                     0.114920
     92 H                     0.134684
     93 H                     0.112546
     94 C                    -0.180204
     95 H                     0.118540
     96 H                     0.112959
     97 H                     0.088209
     98 C                    -0.182920
     99 H                     0.100435
    100 C                    -0.175612
    101 H                     0.102454
    102 H                     0.096075
    103 H                     0.091173
    104 C                    -0.179562
    105 H                     0.088052
    106 C                    -0.324017
    107 H                     0.096410
    108 H                     0.109210
    109 H                     0.102411
    110 H                     0.096765
  ----------------------------------------
  Sum of atomic charges =     0.000000

                    Cartesian Multipole Moments
 -----------------------------------------------------------------
    Charge (ESU x 10^10)
                 0.0000
    Dipole Moment (Debye)
         X      -0.0668      Y       0.1240      Z      -1.3397
       Tot       1.3471
    Quadrupole Moments (Debye-Ang)
        XX    -393.8854     XY     -10.3484     YY    -419.2873
        XZ      10.3483     YZ      14.3397     ZZ    -434.8787

 Total job time:  90.17s(wall), 1066.03s(cpu)
        *  Thank you very much for using Q-Chem.  Have a nice day.  *
