 Q-Chem 4.4, Q-Chem, Inc., Pleasanton, CA (2016)
 Q-Chem 4.4.2 for Intel X86 Linux

User input:
--------------------------------------------------------------
$comment
SP
$end

$rem
MEM_STATIC 5000
MEM_TOTAL 20000
JOBTYPE SP
EXCHANGE B3LYP
BASIS 6-31g(d,p)
$end

$molecule
0 1
C          -4.132000      2.537000      2.659000
C          -3.105000      3.190000      1.897000
N          -5.351000      3.079000      2.732000
C          -3.392000      4.465000      1.393000
C          -5.561000      4.318000      2.251000
C          -4.645000      5.079000      1.474000
C          -5.066000      6.372000      0.943000
C          -6.472000      6.573000      0.593000
C          -4.217000      7.479000      0.741000
N          -6.961000      7.762000      0.156000
N          -2.836000      7.427000      0.903000
C          -4.806000      8.710000      0.314000
C          -6.177000      8.841000     -0.063000
S          -2.401000      8.966000      0.460000
N          -3.874000      9.604000      0.198000
C          -6.828000     10.044000     -0.574000
S          -8.331000      9.922000     -1.595000
C          -6.613000     11.352000     -0.249000
C          -8.547000     11.657000     -1.547000
S          -5.397000     12.077000      0.699000
C          -7.544000     12.254000     -0.807000
C          -9.797000     12.308000     -1.951000
C          -6.171000     13.632000      0.354000
C          -7.274000     13.568000     -0.412000
N         -10.476000     11.587000     -2.720000
S         -10.393000     13.828000     -1.554000
C         -11.696000     12.091000     -2.958000
C         -11.845000     13.375000     -2.447000
C          -3.901000      1.275000      3.485000
H          -2.083000      2.833000      1.812000
H          -2.599000      4.995000      0.873000
H          -6.582000      4.664000      2.404000
H          -7.208000      5.779000      0.708000
H          -5.769000     14.520000      0.823000
H          -7.930000     14.400000     -0.642000
H         -12.431000     11.450000     -3.426000
H         -12.716000     14.015000     -2.426000
H          -3.657000      1.452000      4.540000
C          -2.772000      0.470000      2.808000
H          -4.837000      0.725000      3.331000
H          -1.813000      0.955000      3.029000
H          -3.021000      0.353000      1.746000
C          -2.652000     -1.023000      3.329000
H          -2.176000     -1.050000      4.317000
C          -1.783000     -1.803000      2.325000
H          -3.648000     -1.474000      3.239000
H          -0.768000     -1.387000      2.322000
H          -2.199000     -1.661000      1.320000
C          -1.619000     -3.382000      2.490000
H          -0.733000     -3.766000      1.970000
C          -2.937000     -4.124000      2.172000
H          -1.484000     -3.602000      3.557000
H          -3.719000     -3.714000      2.823000
H          -2.798000     -5.190000      2.390000
H          -3.183000     -3.872000      1.133000
C          -8.024000     -2.867000      2.116000
C          -8.836000     -2.069000      1.362000
N          -6.690000     -2.726000      2.160000
C          -8.242000     -0.930000      0.663000
C          -6.099000     -1.646000      1.566000
C          -6.890000     -0.698000      0.795000
C          -6.292000      0.486000     -0.030000
C          -7.053000      1.661000     -0.198000
C          -4.978000      0.604000     -0.487000
N          -6.565000      2.814000     -0.730000
N          -4.121000     -0.433000     -0.487000
C          -4.492000      1.759000     -1.062000
C          -5.300000      2.852000     -1.160000
S          -2.725000      0.137000     -1.057000
N          -3.143000      1.725000     -1.276000
C          -4.896000      4.158000     -1.824000
S          -3.261000      4.657000     -2.028000
C          -5.747000      5.155000     -2.214000
C          -3.730000      6.288000     -2.523000
S          -7.468000      5.190000     -2.359000
C          -5.088000      6.351000     -2.555000
C          -2.857000      7.347000     -2.968000
C          -7.295000      6.861000     -2.991000
C          -6.018000      7.385000     -2.966000
N          -1.659000      6.803000     -3.283000
S          -3.096000      9.002000     -3.373000
C          -0.874000      7.809000     -3.850000
C          -1.406000      9.046000     -3.872000
C          -8.481000     -4.115000      2.789000
H          -9.914000     -2.188000      1.297000
H          -8.841000     -0.273000      0.038000
H          -5.018000     -1.529000      1.620000
H          -8.102000      1.718000      0.090000
H          -8.182000      7.351000     -3.371000
H          -5.812000      8.386000     -3.329000
H           0.046000      7.468000     -4.306000
H          -0.970000      9.967000     -4.233000
H          -8.061000     -4.174000      3.801000
C          -8.310000     -5.485000      2.027000
H          -9.567000     -3.988000      2.877000
H          -7.272000     -5.793000      2.200000
H          -8.443000     -5.342000      0.947000
C          -9.289000     -6.575000      2.579000
H          -9.162000     -6.547000      3.668000
C          -8.862000     -7.914000      1.935000
H         -10.346000     -6.369000      2.366000
H          -7.832000     -8.081000      2.273000
H          -8.766000     -7.759000      0.853000
C          -9.667000     -9.087000      2.485000
H          -9.206000    -10.040000      2.200000
C         -11.140000     -9.165000      2.055000
H          -9.593000     -9.149000      3.578000
H         -11.666000     -8.440000      2.688000
H         -11.690000    -10.104000      2.194000
H         -11.288000     -8.877000      1.006000
$end

--------------------------------------------------------------

             Standard Nuclear Orientation (Angstroms)
    I     Atom           X                Y                Z
 ----------------------------------------------------------------
    1      C       2.4817070371    -1.5508331228    -2.3546214688
    2      C       1.6980356443    -2.5991183273    -1.7640799561
    3      N       1.9486021643    -0.3373345213    -2.5227712199
    4      C       0.3408424323    -2.3365733550    -1.5380119956
    5      C       0.6326622111    -0.1509257523    -2.3126859744
    6      C      -0.2614487109    -1.0898061602    -1.7287551235
    7      C      -1.6440426548    -0.6939932698    -1.4781216421
    8      C      -1.9365629211     0.7029833019    -1.1577697232
    9      C      -2.7553444009    -1.5597458006    -1.5284702718
   10      N      -3.1986596275     1.1697179186    -0.9758859655
   11      N      -2.6486748381    -2.9368929907    -1.6963875763
   12      C      -4.0579170088    -0.9933609123    -1.3637773473
   13      C      -4.2872190046     0.3689825567    -1.0027069009
   14      S      -4.2396520485    -3.3982645900    -1.5967745072
   15      N      -4.9415596016    -1.9379875233    -1.4541783103
   16      C      -5.5812111495     0.9961840325    -0.7490661359
   17      S      -5.7019268648     2.4819963052     0.2969375001
   18      C      -6.7870278619     0.7713123739    -1.3475248173
   19      C      -7.3904325776     2.6779163507    -0.1150683173
   20      S      -7.2754718486    -0.4361360949    -2.4459216795
   21      C      -7.8012308113     1.6812300279    -0.9798684011
   22      C      -8.1316842776     3.9125429069     0.1601773622
   23      C      -8.8801257758     0.3127747593    -2.4273661846
   24      C      -8.9972090748     1.4025540251    -1.6488203267
   25      N      -7.6008268269     4.5862778613     1.0747890712
   26      S      -9.5420118343     4.4972204362    -0.5415016025
   27      C      -8.1627697462     5.7956576707     1.2185966932
   28      C      -9.3113583572     5.9383249806     0.4489420686
   29      C       3.8936117712    -1.7517743615    -2.8972342592
   30      H       2.0447590254    -3.6181055181    -1.6205320472
   31      H      -0.2749648294    -3.1450932075    -1.1543115076
   32      H       0.3111235262     0.8684133275    -2.5203556991
   33      H      -1.1477935392     1.4504336543    -1.0905548963
   34      H      -9.6420979040    -0.0914144321    -3.0801590870
   35      H      -9.8691722315     2.0442595533    -1.5909042807
   36      H      -7.6471219746     6.5298131271     1.8229584569
   37      H      -9.9458308980     6.8017924502     0.3055875288
   38      H       3.9481917103    -1.9789329134    -3.9692930367
   39      C       4.5542109721    -2.8829567755    -2.0817405179
   40      H       4.3838005224    -0.8121315844    -2.6159898107
   41      H       4.1421024659    -3.8436102769    -2.4149948193
   42      H       4.4394408562    -2.6516473242    -1.0155051977
   43      C       6.1254234748    -2.9756110780    -2.2756385620
   44      H       6.3687419280    -3.4334605444    -3.2423955100
   45      C       6.6881993968    -3.8530181174    -1.1420525931
   46      H       6.5315144416    -1.9760268087    -2.0770474870
   47      H       6.2968814410    -4.8728439891    -1.2426281811
   48      H       6.3298400090    -3.4568441113    -0.1839974244
   49      C       8.2686337185    -3.9950096047    -0.9705073443
   50      H       8.5473719774    -4.8855027878    -0.3941577335
   51      C       8.9057041126    -2.6740846103    -0.4825416978
   52      H       8.7119821101    -4.1081983646    -1.9683773299
   53      H       8.6309608757    -1.8855314476    -1.1939663694
   54      H       9.9957207887    -2.7963084158    -0.4713172886
   55      H       8.4352970855    -2.4498050076     0.4828374446
   56      C       7.5863651646     2.3955899460    -0.6185513771
   57      C       6.6340712439     3.1842733683    -0.0390871867
   58      N       7.4786925382     1.0609922959    -0.7114422688
   59      C       5.3821324397     2.5641650683     0.3932008272
   60      C       6.3066249680     0.4464762879    -0.3691782087
   61      C       5.2044832696     1.2120537372     0.1947374283
   62      C       3.8819151840     0.5851454239     0.7405255057
   63      C       2.6863095297     1.3288082177     0.6666149619
   64      C       3.6901586031    -0.7381626753     1.1423390052
   65      N       1.4544558796     0.8175008651     0.9343431374
   66      N       4.7167874652    -1.5824768281     1.3496667430
   67      C       2.4472005852    -1.2482655468     1.4516873950
   68      C       1.3458326313    -0.4553713283     1.3274924337
   69      S       4.0606808652    -2.9952341287     1.7647052219
   70      N       2.4560456017    -2.6003784473     1.6478135529
   71      C      -0.0648230754    -0.8869071667     1.6929719781
   72      S      -0.5702146897    -2.5311916260     1.7618917377
   73      C      -1.1349801718    -0.0551025285     1.8751115751
   74      C      -2.2761917213    -2.0908141413     1.9063113992
   75      S      -1.2267274938     1.6624748476     2.0351159058
   76      C      -2.3656826252    -0.7344631874     1.9445274692
   77      C      -3.3917502436    -2.9843400177     2.1032268411
   78      C      -2.9908465910     1.4580641084     2.2952967284
   79      C      -3.4776771153     0.1755010064     2.1405132344
   80      N      -2.9083387848    -4.1811583925     2.5085713111
   81      S      -5.0985108680    -2.7725841956     2.1511710063
   82      C      -3.9993520445    -4.9882540581     2.8372606076
   83      C      -5.2210119667    -4.4716666415     2.6041051324
   84      C       8.9414306490     2.8795764420    -1.0043448509
   85      H       6.7197797334     4.2622893190     0.0658207010
   86      H       4.5982874646     3.1439087914     0.8733667054
   87      H       6.2205846946    -0.6347121074    -0.4629584050
   88      H       2.6753549205     2.3820409504     0.3888114211
   89      H      -3.5640383156     2.3321441569     2.5758396228
   90      H      -4.5295582879    -0.0490118754     2.2796030062
   91      H      -3.7485285762    -5.9121095579     3.3414387538
   92      H      -6.1907172111    -4.9251267806     2.7547824075
   93      H       9.2202349596     2.4785295180    -1.9869203041
   94      C      10.1211657549     2.7114494207     0.0284878483
   95      H       8.8190869781     3.9653717986    -1.1010375073
   96      H      10.4749726572     1.6805018086    -0.0906956114
   97      H       9.7503306692     2.8233326778     1.0553770711
   98      C      11.2880561742     3.7132422910    -0.2648085794
   99      H      11.4936171129     3.6054600824    -1.3367048878
  100      C      12.4665105500     3.2909174163     0.6423148876
  101      H      11.0251379910     4.7636964151    -0.0846026915
  102      H      12.7174088373     2.2692286129     0.3320971602
  103      H      12.0870915259     3.1736737427     1.6651834642
  104      C      13.7167880356     4.1197143706     0.3659893230
  105      H      14.5947321451     3.6651865257     0.8398812716
  106      C      13.6788784463     5.5856002364     0.8247425151
  107      H      14.0103137438     4.0660751592    -0.6899152625
  108      H      13.0965079988     6.1140976346     0.0602000624
  109      H      14.6173176396     6.1492701489     0.8965067827
  110      H      13.1726999879     5.7112899453     1.7907831278
 ----------------------------------------------------------------

   10   -5663.4925972061      4.40E-06 Convergence criterion met
 Total energy in the final basis set = -5663.4925972061

                    Orbital Energies (a.u.)
 --------------------------------------------------------------

 Alpha MOs
 -- Occupied --
-88.990 -88.982 -88.932 -88.930 -88.918 -88.914 -88.909 -88.906
-14.387 -14.381 -14.380 -14.375 -14.349 -14.341 -14.338 -14.330
-14.328 -14.318 -10.266 -10.259 -10.258 -10.257 -10.252 -10.252
-10.251 -10.248 -10.239 -10.236 -10.235 -10.233 -10.233 -10.232
-10.230 -10.230 -10.230 -10.226 -10.226 -10.226 -10.225 -10.224
-10.224 -10.222 -10.222 -10.221 -10.220 -10.220 -10.218 -10.213
-10.204 -10.203 -10.202 -10.202 -10.201 -10.199 -10.195 -10.192
-10.182 -10.181 -10.180 -10.178 -10.178 -10.177 -10.177 -10.177
-10.173 -10.173 -10.170 -10.162  -8.045  -8.037  -7.993  -7.993
 -7.976  -7.973  -7.971  -7.965  -6.010  -6.005  -6.003  -6.002
 -5.996  -5.994  -5.957  -5.956  -5.953  -5.953  -5.950  -5.949
 -5.940  -5.937  -5.936  -5.935  -5.933  -5.932  -5.931  -5.930
 -5.930  -5.927  -5.926  -5.922  -1.040  -1.031  -0.998  -0.961
 -0.959  -0.944  -0.933  -0.931  -0.915  -0.910  -0.902  -0.898
 -0.846  -0.839  -0.831  -0.826  -0.815  -0.809  -0.805  -0.802
 -0.802  -0.800  -0.794  -0.789  -0.782  -0.774  -0.766  -0.762
 -0.754  -0.746  -0.741  -0.737  -0.721  -0.717  -0.710  -0.705
 -0.692  -0.689  -0.676  -0.669  -0.654  -0.648  -0.645  -0.639
 -0.636  -0.627  -0.626  -0.615  -0.612  -0.609  -0.603  -0.597
 -0.591  -0.589  -0.579  -0.578  -0.573  -0.569  -0.567  -0.555
 -0.544  -0.541  -0.539  -0.537  -0.525  -0.523  -0.521  -0.515
 -0.506  -0.503  -0.500  -0.491  -0.487  -0.483  -0.477  -0.474
 -0.471  -0.470  -0.468  -0.463  -0.461  -0.458  -0.447  -0.445
 -0.444  -0.442  -0.439  -0.436  -0.433  -0.433  -0.432  -0.429
 -0.427  -0.424  -0.423  -0.420  -0.418  -0.417  -0.416  -0.412
 -0.412  -0.410  -0.406  -0.402  -0.398  -0.398  -0.395  -0.392
 -0.390  -0.389  -0.386  -0.386  -0.382  -0.381  -0.378  -0.376
 -0.373  -0.373  -0.369  -0.368  -0.364  -0.362  -0.360  -0.353
 -0.350  -0.347  -0.346  -0.344  -0.343  -0.342  -0.339  -0.338
 -0.335  -0.334  -0.333  -0.328  -0.327  -0.326  -0.324  -0.315
 -0.311  -0.309  -0.307  -0.306  -0.303  -0.300  -0.298  -0.297
 -0.296  -0.294  -0.290  -0.286  -0.284  -0.284  -0.278  -0.276
 -0.275  -0.263  -0.261  -0.260  -0.258  -0.252  -0.248  -0.242
 -0.238  -0.237  -0.235  -0.221  -0.192  -0.191

          Ground-State Mulliken Net Atomic Charges

     Atom                 Charge (a.u.)
  ----------------------------------------
      1 C                     0.240833
      2 C                    -0.111160
      3 N                    -0.477114
      4 C                    -0.102232
      5 C                     0.054512
      6 C                     0.070656
      7 C                     0.019889
      8 C                     0.063979
      9 C                     0.209872
     10 N                    -0.502238
     11 N                    -0.564400
     12 C                     0.242034
     13 C                     0.292376
     14 S                     0.602553
     15 N                    -0.572029
     16 C                    -0.230968
     17 S                     0.329406
     18 C                    -0.097724
     19 C                    -0.225262
     20 S                     0.286096
     21 C                     0.130384
     22 C                     0.086370
     23 C                    -0.316167
     24 C                    -0.061548
     25 N                    -0.411567
     26 S                     0.267055
     27 C                     0.123668
     28 C                    -0.330517
     29 C                    -0.215083
     30 H                     0.095430
     31 H                     0.128653
     32 H                     0.093156
     33 H                     0.137683
     34 H                     0.123050
     35 H                     0.109966
     36 H                     0.117709
     37 H                     0.132987
     38 H                     0.121628
     39 C                    -0.198197
     40 H                     0.122449
     41 H                     0.097333
     42 H                     0.099480
     43 C                    -0.186073
     44 H                     0.093966
     45 C                    -0.184688
     46 H                     0.102929
     47 H                     0.081473
     48 H                     0.088220
     49 C                    -0.189079
     50 H                     0.088895
     51 C                    -0.317968
     52 H                     0.088226
     53 H                     0.124319
     54 H                     0.096478
     55 H                     0.103833
     56 C                     0.275186
     57 C                    -0.118436
     58 N                    -0.494882
     59 C                    -0.099228
     60 C                     0.093730
     61 C                     0.057684
     62 C                     0.046724
     63 C                     0.059599
     64 C                     0.202250
     65 N                    -0.537113
     66 N                    -0.555771
     67 C                     0.231400
     68 C                     0.304755
     69 S                     0.625765
     70 N                    -0.550821
     71 C                    -0.239565
     72 S                     0.351578
     73 C                    -0.091753
     74 C                    -0.234680
     75 S                     0.267424
     76 C                     0.128455
     77 C                     0.037265
     78 C                    -0.286632
     79 C                    -0.087139
     80 N                    -0.433353
     81 S                     0.294250
     82 C                     0.129272
     83 C                    -0.321316
     84 C                    -0.223421
     85 H                     0.093252
     86 H                     0.102794
     87 H                     0.126981
     88 H                     0.111188
     89 H                     0.136325
     90 H                     0.125227
     91 H                     0.114746
     92 H                     0.134885
     93 H                     0.113439
     94 C                    -0.175950
     95 H                     0.084225
     96 H                     0.114131
     97 H                     0.093839
     98 C                    -0.175017
     99 H                     0.094928
    100 C                    -0.173279
    101 H                     0.096306
    102 H                     0.094985
    103 H                     0.095725
    104 C                    -0.180926
    105 H                     0.088027
    106 C                    -0.319533
    107 H                     0.094879
    108 H                     0.101874
    109 H                     0.100458
    110 H                     0.101731
  ----------------------------------------
  Sum of atomic charges =     0.000000

                    Cartesian Multipole Moments
 -----------------------------------------------------------------
    Charge (ESU x 10^10)
                 0.0000
    Dipole Moment (Debye)
         X      -4.0602      Y       0.7758      Z       0.5861
       Tot       4.1750
    Quadrupole Moments (Debye-Ang)
        XX    -390.3882     XY      -1.5804     YY    -409.4969
        XZ       5.2256     YZ       3.0494     ZZ    -449.1212

 Total job time:  115.31s(wall), 1367.89s(cpu)
        *  Thank you very much for using Q-Chem.  Have a nice day.  *
