 Q-Chem 4.4, Q-Chem, Inc., Pleasanton, CA (2016)
 Q-Chem 4.4.2 for Intel X86 Linux

User input:
--------------------------------------------------------------
$comment
SP
$end

$rem
MEM_STATIC 5000
MEM_TOTAL 20000
JOBTYPE SP
EXCHANGE B3LYP
BASIS 6-31g(d,p)
$end

$molecule
0 1
C         -21.682000     -2.617000      3.009000
C         -22.667000     -2.574000      3.949000
N         -21.190000     -3.785000      2.454000
C         -23.304000     -3.716000      4.449000
C         -21.962000     -4.893000      2.756000
C         -22.970000     -4.886000      3.826000
C         -23.772000     -6.117000      4.197000
C         -25.168000     -6.171000      4.362000
C         -23.105000     -7.321000      4.536000
N         -25.832000     -7.299000      4.562000
N         -21.735000     -7.431000      4.652000
C         -23.774000     -8.498000      4.881000
C         -25.170000     -8.446000      4.778000
S         -21.453000     -8.938000      5.121000
N         -23.009000     -9.516000      5.234000
C         -26.041000     -9.603000      4.920000
S         -27.779000     -9.472000      5.465000
C         -25.879000    -10.901000      4.540000
C         -28.005000    -11.163000      5.475000
S         -24.649000    -11.512000      3.479000
C         -26.934000    -11.693000      4.775000
C         -29.154000    -11.948000      5.871000
C         -25.694000    -12.967000      3.302000
C         -26.743000    -12.959000      4.168000
N         -28.951000    -13.240000      6.193000
S         -30.674000    -11.215000      6.053000
C         -30.125000    -13.691000      6.737000
C         -31.125000    -12.728000      6.813000
C         -20.825000     -1.325000      2.636000
H         -22.895000     -1.584000      4.332000
H         -24.092000     -3.714000      5.196000
H         -21.607000     -5.855000      2.390000
H         -25.742000     -5.246000      4.390000
H         -25.418000    -13.785000      2.650000
H         -27.457000    -13.775000      4.174000
H         -30.184000    -14.698000      7.126000
H         -32.177000    -12.821000      7.047000
H         -20.075000     -1.153000      3.418000
C         -21.700000     -0.062000      2.432000
H         -20.291000     -1.534000      1.701000
H         -22.103000      0.249000      3.403000
H         -22.629000     -0.385000      1.947000
C         -21.048000      1.023000      1.539000
H         -20.177000      1.441000      2.058000
C         -21.969000      2.205000      1.187000
H         -20.693000      0.528000      0.626000
H         -22.320000      2.692000      2.105000
H         -22.767000      1.790000      0.559000
C         -21.296000      3.306000      0.326000
H         -22.005000      4.128000      0.168000
C         -20.737000      2.915000     -1.047000
H         -20.494000      3.770000      0.912000
H         -20.334000      3.705000     -1.694000
H         -21.570000      2.534000     -1.650000
H         -19.903000      2.213000     -0.926000
C         -20.506000    -11.784000      2.496000
C         -19.964000    -13.018000      3.014000
N         -21.688000    -11.732000      1.870000
C         -20.682000    -14.237000      3.007000
C         -22.360000    -12.887000      1.793000
C         -21.816000    -14.162000      2.161000
C         -22.487000    -15.428000      1.741000
C         -23.079000    -16.293000      2.650000
C         -22.548000    -15.836000      0.397000
N         -23.661000    -17.424000      2.351000
N         -22.150000    -15.047000     -0.602000
C         -23.138000    -17.028000      0.005000
C         -23.713000    -17.828000      1.070000
S         -22.302000    -15.964000     -1.984000
N         -23.194000    -17.220000     -1.343000
C         -24.216000    -19.193000      0.777000
S         -23.878000    -20.143000     -0.713000
C         -24.902000    -19.958000      1.632000
C         -24.674000    -21.544000     -0.070000
S         -25.464000    -19.608000      3.246000
C         -25.185000    -21.241000      1.146000
C         -24.815000    -22.825000     -0.790000
C         -26.307000    -21.222000      3.228000
C         -26.028000    -21.961000      2.083000
N         -25.340000    -23.914000     -0.210000
S         -24.415000    -23.044000     -2.481000
C         -25.552000    -24.952000     -1.079000
C         -24.994000    -24.739000     -2.287000
C         -19.652000    -10.488000      2.466000
H         -18.962000    -13.064000      3.431000
H         -20.237000    -15.172000      3.332000
H         -23.280000    -12.783000      1.220000
H         -22.964000    -16.078000      3.711000
H         -26.886000    -21.509000      4.096000
H         -26.297000    -22.986000      1.857000
H         -25.981000    -25.910000     -0.819000
H         -24.881000    -25.371000     -3.158000
H         -20.351000     -9.645000      2.525000
C         -18.997000    -10.341000      0.994000
H         -19.008000    -10.387000      3.348000
H         -19.814000    -10.418000      0.266000
H         -18.324000    -11.165000      0.727000
C         -18.230000     -8.971000      0.864000
H         -17.771000     -9.021000     -0.131000
C         -17.185000     -8.776000      1.932000
H         -18.975000     -8.166000      0.837000
H         -16.547000     -9.660000      1.810000
H         -17.712000     -8.665000      2.887000
C         -16.315000     -7.553000      1.587000
H         -16.513000     -7.315000      0.535000
C         -14.826000     -7.674000      1.758000
H         -16.735000     -6.673000      2.090000
H         -14.325000     -8.286000      0.998000
H         -14.706000     -8.324000      2.633000
H         -14.370000     -6.681000      1.860000
$end

--------------------------------------------------------------

             Standard Nuclear Orientation (Angstroms)
    I     Atom           X                Y                Z
 ----------------------------------------------------------------
    1      C       9.5231148844    -0.5269027594    -0.3465097484
    2      C       9.5070659994     0.8108610676    -0.0899861110
    3      N       8.4003932782    -1.3350795839    -0.3208306658
    4      C       8.3404810777     1.5219026780     0.2156811082
    5      C       7.2195350490    -0.6165330456    -0.2566690339
    6      C       7.1800224134     0.8083445058     0.1027411984
    7      C       5.8820822747     1.5795129157     0.2325744763
    8      C       5.6058042862     2.8299392687    -0.3497153216
    9      C       4.8628571565     1.1096294426     1.0984934564
   10      N       4.4118977082     3.4011431101    -0.3097997260
   11      N       5.0083326413     0.0206934877     1.9324666991
   12      C       3.6377370314     1.7600434084     1.2656979780
   13      C       3.4326213317     2.8730362597     0.4402868909
   14      S       3.6415929205    -0.0817522834     2.7643689766
   15      N       2.8190591196     1.2311640952     2.1580046231
   16      C       2.1672568469     3.5829979799     0.3295571461
   17      S       2.0580887795     5.3409861180    -0.1525113544
   18      C       0.8811149807     3.1349814411     0.3533957934
   19      C       0.3674143943     5.3972871508     0.0690903533
   20      S       0.3701972932     1.4805637198     0.2358920920
   21      C      -0.0484060155     4.0788999319     0.1520935325
   22      C      -0.5521825950     6.5079637652    -0.0491502298
   23      C      -1.2553157552     2.1375835685    -0.1720432559
   24      C      -1.3256815177     3.4855694621    -0.0035093121
   25      N      -1.7403832908     6.4088328361     0.5773552894
   26      S      -0.0789629473     7.9352304241    -0.8364151467
   27      C      -2.3200461107     7.6482398388     0.5033667978
   28      C      -1.5442002390     8.6025524203    -0.1450895848
   29      C      10.8900154059    -1.3400875172    -0.4612072374
   30      H      10.4810781915     1.2904992974    -0.0854674794
   31      H       8.2953753473     2.5867495545     0.4231024252
   32      H       6.2970909762    -1.1906005697    -0.1861820828
   33      H       6.4130057537     3.3995187289    -0.8078528876
   34      H      -2.0854190655     1.4852889421    -0.4083570610
   35      H      -2.2468875871     4.0181735817    -0.2118365293
   36      H      -3.2673295002     7.8274660634     0.9926347616
   37      H      -1.7902465466     9.6003575151    -0.4826621063
   38      H      11.2835058387    -1.5257052226     0.5459269873
   39      C      11.9469519757    -0.6182535887    -1.3354216660
   40      H      10.6657948452    -2.3123093294    -0.9168078170
   41      H      12.2980507004     0.2725840989    -0.8014657690
   42      H      11.4106144521    -0.1336949871    -2.1601276878
   43      C      13.0129070408    -1.5606506291    -1.9481251975
   44      H      13.6360776476    -1.9705421194    -1.1441517147
   45      C      13.9647617490    -0.8876936160    -2.9532970599
   46      H      12.4806462976    -2.3948101864    -2.4229886874
   47      H      14.4905072986    -0.0547983453    -2.4706262766
   48      H      13.3440676680    -0.5978807939    -3.8101286571
   49      C      15.0538860774    -1.8288700326    -3.5316102538
   50      H      15.7143876940    -1.2564042441    -4.1944447246
   51      C      14.6031839332    -3.0754995492    -4.3018526997
   52      H      15.7180801384    -2.1409206753    -2.7171370217
   53      H      15.3671948097    -3.7000695514    -4.7828076799
   54      H      14.0126354068    -2.7400858399    -5.1629038489
   55      H      14.0772724289    -3.7626636334    -3.6278915650
   56      C       0.7080344653    -2.5344886962     1.6394383656
   57      C      -0.3406525030    -2.8049492570     2.5943994787
   58      N       0.4769695054    -1.8851180838     0.4919930327
   59      C      -1.6579460857    -2.3089178679     2.4521866869
   60      C      -0.7782282746    -1.4604104998     0.3032074365
   61      C      -1.8847790496    -1.8176336521     1.1428037690
   62      C      -3.2897689571    -1.5897461947     0.6917298654
   63      C      -4.1283369947    -0.6707763876     1.3059514377
   64      C      -3.8617067111    -2.3045942629    -0.3752286366
   65      N      -5.3712424948    -0.4402107935     0.9753286546
   66      N      -3.1421296871    -3.1169232018    -1.1506360144
   67      C      -5.1768685448    -2.1230092019    -0.7752339076
   68      C      -5.9300800671    -1.1279063785    -0.0354415221
   69      S      -4.2319373655    -3.8180062739    -2.1969240962
   70      N      -5.5373400053    -2.8266159971    -1.8852347202
   71      C      -7.3871496951    -0.9790521193    -0.2739231957
   72      S      -8.4368125018    -2.1505676510    -1.1471948323
   73      C      -8.1509233289    -0.0029300997     0.2267579795
   74      C      -9.8669262644    -1.2500052732    -0.7552407155
   75      S      -7.7116542256     1.3742149113     1.2034126133
   76      C      -9.5128411791    -0.1361665873    -0.0729115177
   77      C     -11.2304332044    -1.6291075399    -1.1752077333
   78      C      -9.4380787100     1.9363839514     1.0641521734
   79      C     -10.2501015652     1.0193220321     0.4049076675
   80      N     -12.3160140653    -0.9636053960    -0.7550088627
   81      S     -11.5792563622    -2.9023682155    -2.3261081011
   82      C     -13.4724667081    -1.3448778355    -1.3833380853
   83      C     -13.3131445815    -2.4515462892    -2.1356002694
   84      C       2.1198164262    -3.1578997931     1.8069564219
   85      H      -0.1604018506    -3.4175405571     3.4731773809
   86      H      -2.4547124012    -2.5792727487     3.1377132560
   87      H      -0.9063720065    -0.9965443753    -0.6734974333
   88      H      -3.7698206722    -0.1709518174     2.2041788285
   89      H      -9.7145100357     2.8692390348     1.5378621223
   90      H     -11.3260020345     1.0371250435     0.2776943315
   91      H     -14.4520029222    -0.9232217375    -1.2041177174
   92      H     -14.0164086119    -3.0720361962    -2.6752723724
   93      H       2.8288360321    -2.4737970252     1.3252660637
   94      C       2.1996213095    -4.4947732498     0.8993119202
   95      H       2.4375356041    -3.2063458986     2.8555595398
   96      H       1.8938138912    -4.2160778101    -0.1166667581
   97      H       1.4794705907    -5.2689984315     1.1911206078
   98      C       3.6564459188    -5.0940623264     0.9238814266
   99      H       3.5672632056    -6.0234510116     0.3481305122
  100      C       4.1584618677    -5.3680920995     2.3179982332
  101      H       4.3099045554    -4.4215423188     0.3542432522
  102      H       3.3911160868    -6.0389695651     2.7235692857
  103      H       4.2905558935    -4.3987932002     2.8130596559
  104      C       5.4635893194    -6.1824841519     2.2468510631
  105      H       5.5343640120    -6.5712461627     1.2239106730
  106      C       5.6257235439    -7.3416393621     3.1908185900
  107      H       6.3111396315    -5.4861875141     2.2721188422
  108      H       5.0231017665    -8.2237695876     2.9421455948
  109      H       5.1173198544    -7.0178182320     4.1068920391
  110      H       6.6879655895    -7.5856748238     3.3191834218
 ----------------------------------------------------------------

    9   -5663.4878855598      9.85E-06 Convergence criterion met
 Total energy in the final basis set = -5663.4878855598

                    Orbital Energies (a.u.)
 --------------------------------------------------------------

 Alpha MOs
 -- Occupied --
-88.988 -88.985 -88.928 -88.926 -88.924 -88.916 -88.908 -88.897
-14.393 -14.382 -14.379 -14.378 -14.352 -14.345 -14.343 -14.342
-14.337 -14.333 -10.278 -10.270 -10.265 -10.258 -10.255 -10.251
-10.250 -10.247 -10.243 -10.240 -10.236 -10.235 -10.235 -10.233
-10.232 -10.232 -10.232 -10.231 -10.230 -10.228 -10.227 -10.227
-10.226 -10.224 -10.220 -10.219 -10.219 -10.219 -10.215 -10.215
-10.214 -10.208 -10.206 -10.206 -10.198 -10.194 -10.193 -10.192
-10.187 -10.186 -10.185 -10.182 -10.180 -10.180 -10.178 -10.175
-10.174 -10.172 -10.169 -10.169  -8.043  -8.040  -7.990  -7.987
 -7.984  -7.975  -7.967  -7.958  -6.008  -6.005  -6.003  -6.001
 -5.999  -5.998  -5.954  -5.951  -5.951  -5.948  -5.948  -5.947
 -5.945  -5.944  -5.940  -5.940  -5.936  -5.932  -5.932  -5.928
 -5.923  -5.922  -5.919  -5.913  -1.034  -1.031  -0.970  -0.968
 -0.965  -0.961  -0.943  -0.923  -0.917  -0.917  -0.901  -0.901
 -0.841  -0.839  -0.834  -0.830  -0.813  -0.811  -0.807  -0.805
 -0.802  -0.800  -0.796  -0.795  -0.780  -0.778  -0.768  -0.764
 -0.750  -0.744  -0.739  -0.735  -0.724  -0.720  -0.709  -0.706
 -0.693  -0.689  -0.679  -0.670  -0.656  -0.650  -0.644  -0.640
 -0.638  -0.633  -0.630  -0.628  -0.611  -0.607  -0.595  -0.594
 -0.591  -0.590  -0.585  -0.583  -0.577  -0.571  -0.561  -0.561
 -0.553  -0.549  -0.544  -0.540  -0.522  -0.521  -0.512  -0.511
 -0.509  -0.507  -0.499  -0.497  -0.489  -0.482  -0.480  -0.475
 -0.473  -0.469  -0.466  -0.465  -0.464  -0.461  -0.449  -0.445
 -0.443  -0.441  -0.438  -0.436  -0.436  -0.434  -0.430  -0.429
 -0.428  -0.426  -0.422  -0.420  -0.415  -0.415  -0.413  -0.413
 -0.411  -0.408  -0.407  -0.405  -0.402  -0.400  -0.399  -0.394
 -0.392  -0.390  -0.389  -0.388  -0.385  -0.383  -0.383  -0.380
 -0.379  -0.378  -0.376  -0.375  -0.364  -0.358  -0.351  -0.351
 -0.351  -0.349  -0.347  -0.344  -0.343  -0.342  -0.338  -0.338
 -0.335  -0.334  -0.333  -0.327  -0.326  -0.325  -0.321  -0.320
 -0.312  -0.311  -0.308  -0.308  -0.305  -0.303  -0.299  -0.298
 -0.297  -0.294  -0.290  -0.289  -0.288  -0.288  -0.285  -0.279
 -0.276  -0.275  -0.263  -0.260  -0.257  -0.254  -0.253  -0.246
 -0.245  -0.240  -0.233  -0.231  -0.200  -0.186

          Ground-State Mulliken Net Atomic Charges

     Atom                 Charge (a.u.)
  ----------------------------------------
      1 C                     0.242575
      2 C                    -0.102007
      3 N                    -0.465671
      4 C                    -0.069432
      5 C                     0.079774
      6 C                     0.038392
      7 C                     0.000190
      8 C                     0.069871
      9 C                     0.199795
     10 N                    -0.512244
     11 N                    -0.536021
     12 C                     0.268093
     13 C                     0.271431
     14 S                     0.609981
     15 N                    -0.576233
     16 C                    -0.236801
     17 S                     0.291555
     18 C                    -0.099514
     19 C                    -0.189743
     20 S                     0.282156
     21 C                     0.133534
     22 C                     0.043891
     23 C                    -0.312366
     24 C                    -0.051147
     25 N                    -0.421929
     26 S                     0.289501
     27 C                     0.125936
     28 C                    -0.311699
     29 C                    -0.225189
     30 H                     0.083362
     31 H                     0.105191
     32 H                     0.115564
     33 H                     0.105130
     34 H                     0.123102
     35 H                     0.113983
     36 H                     0.117073
     37 H                     0.126380
     38 H                     0.115913
     39 C                    -0.191820
     40 H                     0.118061
     41 H                     0.090519
     42 H                     0.098074
     43 C                    -0.175671
     44 H                     0.090145
     45 C                    -0.170476
     46 H                     0.101659
     47 H                     0.094241
     48 H                     0.092241
     49 C                    -0.182460
     50 H                     0.089973
     51 C                    -0.319092
     52 H                     0.088580
     53 H                     0.101638
     54 H                     0.100844
     55 H                     0.106418
     56 C                     0.247965
     57 C                    -0.116693
     58 N                    -0.436221
     59 C                    -0.062388
     60 C                     0.083331
     61 C                     0.012920
     62 C                    -0.009579
     63 C                     0.065396
     64 C                     0.239904
     65 N                    -0.502121
     66 N                    -0.548644
     67 C                     0.218003
     68 C                     0.292880
     69 S                     0.592905
     70 N                    -0.565092
     71 C                    -0.226299
     72 S                     0.313387
     73 C                    -0.094338
     74 C                    -0.233288
     75 S                     0.273559
     76 C                     0.158136
     77 C                     0.068275
     78 C                    -0.319530
     79 C                    -0.041941
     80 N                    -0.450501
     81 S                     0.248811
     82 C                     0.142098
     83 C                    -0.302202
     84 C                    -0.235889
     85 H                     0.089007
     86 H                     0.112651
     87 H                     0.113080
     88 H                     0.113157
     89 H                     0.129407
     90 H                     0.128233
     91 H                     0.123203
     92 H                     0.132149
     93 H                     0.124554
     94 C                    -0.190576
     95 H                     0.099937
     96 H                     0.116725
     97 H                     0.093029
     98 C                    -0.193111
     99 H                     0.092418
    100 C                    -0.162744
    101 H                     0.099423
    102 H                     0.090562
    103 H                     0.099541
    104 C                    -0.180812
    105 H                     0.095293
    106 C                    -0.320186
    107 H                     0.099072
    108 H                     0.101809
    109 H                     0.099870
    110 H                     0.106221
  ----------------------------------------
  Sum of atomic charges =     0.000000

                    Cartesian Multipole Moments
 -----------------------------------------------------------------
    Charge (ESU x 10^10)
                 0.0000
    Dipole Moment (Debye)
         X      -2.4507      Y      -0.0341      Z      -0.0157
       Tot       2.4510
    Quadrupole Moments (Debye-Ang)
        XX    -378.4359     XY      12.7385     YY    -411.3911
        XZ      12.6144     YZ      -3.5947     ZZ    -442.3477

 Total job time:  82.59s(wall), 981.11s(cpu)
        *  Thank you very much for using Q-Chem.  Have a nice day.  *
