 Q-Chem 4.4, Q-Chem, Inc., Pleasanton, CA (2016)
 Q-Chem 4.4.2 for Intel X86 Linux

User input:
--------------------------------------------------------------
$comment
SP
$end

$rem
MEM_STATIC 5000
MEM_TOTAL 20000
JOBTYPE SP
EXCHANGE B3LYP
BASIS 6-31g(d,p)
$end

$molecule
0 1
C          -3.156000     -9.386000      1.158000
C          -2.421000     -8.866000      0.031000
N          -4.273000     -8.823000      1.557000
C          -2.874000     -7.755000     -0.686000
C          -4.648000     -7.659000      0.944000
C          -3.999000     -7.038000     -0.191000
C          -4.539000     -5.783000     -0.858000
C          -5.885000     -5.488000     -0.832000
C          -3.718000     -4.826000     -1.481000
N          -6.425000     -4.401000     -1.479000
N          -2.390000     -4.834000     -1.470000
C          -4.229000     -3.691000     -2.094000
C          -5.635000     -3.462000     -2.062000
S          -1.911000     -3.524000     -2.349000
N          -3.338000     -2.910000     -2.769000
C          -6.305000     -2.357000     -2.712000
S          -5.548000     -1.034000     -3.675000
C          -7.649000     -2.015000     -2.664000
C          -7.084000     -0.173000     -3.956000
S          -8.902000     -2.946000     -1.903000
C          -8.021000     -0.827000     -3.262000
C          -7.303000      0.995000     -4.691000
C          -9.944000     -1.549000     -2.291000
C          -9.351000     -0.556000     -3.030000
N          -8.421000      1.149000     -5.374000
S          -6.178000      2.331000     -4.749000
C          -8.533000      2.460000     -5.860000
C          -7.378000      3.161000     -5.665000
C          -2.753000    -10.680000      1.919000
H          -1.564000     -9.449000     -0.292000
H          -2.380000     -7.572000     -1.636000
H          -5.524000     -7.199000      1.399000
H          -6.615000     -6.215000     -0.480000
H         -10.971000     -1.607000     -1.955000
H          -9.867000      0.328000     -3.387000
H          -9.457000      2.719000     -6.361000
H          -7.119000      4.182000     -5.912000
H          -1.717000    -10.852000      1.600000
C          -3.714000    -11.919000      1.698000
H          -2.718000    -10.508000      3.002000
H          -3.110000    -12.801000      1.946000
H          -3.923000    -12.009000      0.625000
C          -5.037000    -11.825000      2.447000
H          -4.701000    -11.652000      3.477000
C          -5.842000    -13.160000      2.401000
H          -5.657000    -11.045000      1.987000
H          -5.500000    -13.846000      3.186000
H          -5.480000    -13.717000      1.528000
C          -7.376000    -13.046000      2.484000
H          -7.665000    -12.302000      1.731000
C          -7.855000    -12.565000      3.844000
H          -7.782000    -14.003000      2.135000
H          -7.945000    -13.433000      4.509000
H          -8.853000    -12.111000      3.867000
H          -7.228000    -11.818000      4.347000
C          -8.024000     -2.867000      2.116000
C          -8.836000     -2.069000      1.362000
N          -6.690000     -2.726000      2.160000
C          -8.242000     -0.930000      0.663000
C          -6.099000     -1.646000      1.566000
C          -6.890000     -0.698000      0.795000
C          -6.292000      0.486000     -0.030000
C          -7.053000      1.661000     -0.198000
C          -4.978000      0.604000     -0.487000
N          -6.565000      2.814000     -0.730000
N          -4.121000     -0.433000     -0.487000
C          -4.492000      1.759000     -1.062000
C          -5.300000      2.852000     -1.160000
S          -2.725000      0.137000     -1.057000
N          -3.143000      1.725000     -1.276000
C          -4.896000      4.158000     -1.824000
S          -3.261000      4.657000     -2.028000
C          -5.747000      5.155000     -2.214000
C          -3.730000      6.288000     -2.523000
S          -7.468000      5.190000     -2.359000
C          -5.088000      6.351000     -2.555000
C          -2.857000      7.347000     -2.968000
C          -7.295000      6.861000     -2.991000
C          -6.018000      7.385000     -2.966000
N          -1.659000      6.803000     -3.283000
S          -3.096000      9.002000     -3.373000
C          -0.874000      7.809000     -3.850000
C          -1.406000      9.046000     -3.872000
C          -8.481000     -4.115000      2.789000
H          -9.914000     -2.188000      1.297000
H          -8.841000     -0.273000      0.038000
H          -5.018000     -1.529000      1.620000
H          -8.102000      1.718000      0.090000
H          -8.182000      7.351000     -3.371000
H          -5.812000      8.386000     -3.329000
H           0.046000      7.468000     -4.306000
H          -0.970000      9.967000     -4.233000
H          -8.061000     -4.174000      3.801000
C          -8.310000     -5.485000      2.027000
H          -9.567000     -3.988000      2.877000
H          -7.272000     -5.793000      2.200000
H          -8.443000     -5.342000      0.947000
C          -9.289000     -6.575000      2.579000
H          -9.162000     -6.547000      3.668000
C          -8.862000     -7.914000      1.935000
H         -10.346000     -6.369000      2.366000
H          -7.832000     -8.081000      2.273000
H          -8.766000     -7.759000      0.853000
C          -9.667000     -9.087000      2.485000
H          -9.206000    -10.040000      2.200000
C         -11.140000     -9.165000      2.055000
H          -9.593000     -9.149000      3.578000
H         -11.666000     -8.440000      2.688000
H         -11.690000    -10.104000      2.194000
H         -11.288000     -8.877000      1.006000
$end

--------------------------------------------------------------

             Standard Nuclear Orientation (Angstroms)
    I     Atom           X                Y                Z
 ----------------------------------------------------------------
    1      C       7.8681144092     3.3559216942     0.0925351545
    2      C       6.9618863135     4.0825369430    -0.7627629916
    3      N       7.5660237893     2.1586734225     0.5388498789
    4      C       5.7374183351     3.5375325741    -1.1593325414
    5      C       6.3148753649     1.6788606456     0.2637184208
    6      C       5.3190454146     2.3083957315    -0.5771592670
    7      C       3.9817899311     1.6569301763    -0.8915704666
    8      C       3.8442054262     0.2856425749    -0.8991742921
    9      C       2.8045734123     2.3881689123    -1.1312998530
   10      N       2.6722820444    -0.3464813793    -1.2438377418
   11      N       2.6829698349     3.7046972287    -1.0058615728
   12      C       1.5944933946     1.7770960511    -1.4269538891
   13      C       1.5272875407     0.3540433082    -1.4535106986
   14      S       1.1279650849     4.0680058313    -1.4159214302
   15      N       0.5615007543     2.6019482869    -1.7616358190
   16      C       0.3503627885    -0.4089467079    -1.8072328535
   17      S      -1.2700351142     0.2328784835    -2.2688799703
   18      C       0.1746456452    -1.7851668811    -1.7799286337
   19      C      -2.0179235563    -1.3788201125    -2.4194406353
   20      S       1.4119226194    -2.9552341067    -1.4393711839
   21      C      -1.0950366841    -2.2657425544    -2.0334750887
   22      C      -3.3252159109    -1.6978629165    -2.7957495362
   23      C       0.0742325361    -4.1366944065    -1.4908862409
   24      C      -1.1493469472    -3.6294792215    -1.8506153113
   25      N      -3.5656286914    -2.7874023335    -3.4994785705
   26      S      -4.7217828197    -0.7422154038    -2.3596031150
   27      C      -4.9441147220    -3.0313587976    -3.5873563669
   28      C      -5.6652677580    -1.9825391723    -3.0940342692
   29      C       9.2843632913     3.8712300953     0.4728802027
   30      H       7.3317994720     5.0203953098    -1.1655693210
   31      H       5.2281577030     4.0566370062    -1.9663078801
   32      H       6.1032903571     0.7299376690     0.7544097381
   33      H       4.7125383151    -0.3686123935    -0.8418905212
   34      H       0.3330133041    -5.1657892330    -1.2787887345
   35      H      -2.0437344064    -4.2289316436    -1.9766663583
   36      H      -5.2485713055    -3.9513155957    -4.0698951514
   37      H      -6.7337231268    -1.8365596078    -3.0067182237
   38      H       9.2479019605     4.9362898857     0.2102793376
   39      C      10.4884643899     3.0815260211    -0.1858997451
   40      H       9.4443236566     3.8259863785     1.5573449036
   41      H      11.3393090911     3.7738897972    -0.1552452836
   42      H      10.2711263339     2.9438043583    -1.2521581158
   43      C      10.7571777131     1.7180810784     0.4377804919
   44      H      10.8701758571     1.9739189689     1.4986779390
   45      C      12.0895090366     1.0851247371    -0.0688016976
   46      H       9.9407259062     1.0338168776     0.1739833151
   47      H      12.9425605473     1.4647271730     0.5073841325
   48      H      12.3183222879     1.5592062907    -1.0312533465
   49      C      12.1594982187    -0.4535795423    -0.0918593368
   50      H      11.2558100986    -0.7894521293    -0.6158854687
   51      C      12.1612648284    -1.0609117904     1.3015345126
   52      H      13.0022282080    -0.7205547463    -0.7407171068
   53      H      13.1938150413    -1.0807831482     1.6719318490
   54      H      11.8372851122    -2.1064768132     1.3684667657
   55      H      11.5420450791    -0.5577601402     2.0548951958
   56      C       2.4612199447    -2.3136720805     2.4870596750
   57      C       1.5582104471    -3.1743924757     1.9317235168
   58      N       2.2076824661    -1.0111162043     2.6881565081
   59      C       0.2081512756    -2.6861217224     1.6529944278
   60      C       0.9455275652    -0.5243649176     2.4918017503
   61      C      -0.1069367863    -1.3815886170     1.9661475693
   62      C      -1.5380568070    -0.8879603896     1.5810350409
   63      C      -2.6269442968    -1.7759164309     1.6986279960
   64      C      -1.9188515535     0.4248709803     1.2967145257
   65      N      -3.9293480670    -1.4035028011     1.5736099661
   66      N      -1.0210532927     1.4003422622     1.0681711798
   67      C      -3.2359176161     0.7974023270     1.1311748556
   68      C      -4.2212546477    -0.1309763789     1.2871906005
   69      S      -1.8726991440     2.7456294521     0.8161439579
   70      N      -3.4028049300     2.1501657911     1.0366622384
   71      C      -5.7001560924     0.1467721104     1.0739904747
   72      S      -6.3979684545     1.7176185551     1.1706411559
   73      C      -6.6782172275    -0.7966366126     0.9200866173
   74      C      -8.0469789570     1.0814198124     1.1365453726
   75      S      -6.5834064891    -2.4986413718     0.6402979054
   76      C      -7.9808662956    -0.2703854649     1.0046036869
   77      C      -9.2724321157     1.8420905588     1.1007742744
   78      C      -8.3757122550    -2.4959658576     0.5442412383
   79      C      -8.9924611534    -1.2954450085     0.8345867001
   80      N      -8.9711120709     3.1127284119     0.7471492234
   81      S     -10.9400122140     1.4260173559     1.1797090921
   82      C     -10.1743143739     3.7992775984     0.5719224198
   83      C     -11.3008190306     3.1227831336     0.8669130932
   84      C       3.8931263393    -2.6514919541     2.7211618115
   85      H       1.7590117059    -4.2247629995     1.7397062855
   86      H      -0.5435152532    -3.3256235177     1.1979011591
   87      H       0.7430066884     0.5298214786     2.6730262974
   88      H      -2.4894871982    -2.8381852558     1.8968311483
   89      H      -8.8664164274    -3.4139392808     0.2479251750
   90      H     -10.0716401967    -1.1932394491     0.8009323390
   91      H     -10.0802598412     4.7773903491     0.1190800722
   92      H     -12.3264861871     3.4625574537     0.8320090028
   93      H       4.2123037335    -2.2832076557     3.7042780134
   94      C       4.9453725033    -2.2738817764     1.6089686790
   95      H       3.9075953565    -3.7480456647     2.7462537901
   96      H       5.1860184321    -1.2171096303     1.7749782217
   97      H       4.4974043581    -2.3642363235     0.6111216984
   98      C       6.2430598993    -3.1416674904     1.7281340137
   99      H       6.5321940499    -3.0785461096     2.7841885266
  100      C       7.2759472382    -2.5205407363     0.7599752972
  101      H       6.0889678059    -4.2026857381     1.4924437405
  102      H       7.4334427285    -1.4978360310     1.1237104428
  103      H       6.7931480391    -2.3852882736    -0.2160250639
  104      C       8.6343727169    -3.2056753824     0.8682561165
  105      H       9.4060990248    -2.6173577465     0.3580837290
  106      C       8.7256542123    -4.6326197291     0.3059301258
  107      H       9.0153414090    -3.1843538242     1.8970307501
  108      H       8.2815379536    -5.2765920726     1.0747281289
  109      H       9.7128265239    -5.0710911552     0.1141603795
  110      H       8.1510373736    -4.7571639610    -0.6211908065
 ----------------------------------------------------------------

   10   -5663.5136096190      8.32E-06 Convergence criterion met
 Total energy in the final basis set = -5663.5136096190

                    Orbital Energies (a.u.)
 --------------------------------------------------------------

 Alpha MOs
 -- Occupied --
-88.990 -88.988 -88.934 -88.924 -88.919 -88.916 -88.910 -88.906
-14.390 -14.386 -14.380 -14.379 -14.350 -14.348 -14.342 -14.339
-14.327 -14.324 -10.268 -10.263 -10.263 -10.259 -10.255 -10.253
-10.251 -10.248 -10.240 -10.239 -10.238 -10.233 -10.233 -10.232
-10.231 -10.229 -10.229 -10.229 -10.229 -10.228 -10.228 -10.227
-10.225 -10.225 -10.224 -10.223 -10.223 -10.219 -10.218 -10.217
-10.211 -10.208 -10.208 -10.206 -10.199 -10.197 -10.197 -10.192
-10.188 -10.181 -10.180 -10.177 -10.177 -10.176 -10.175 -10.175
-10.169 -10.169 -10.169 -10.167  -8.045  -8.044  -7.995  -7.985
 -7.978  -7.975  -7.970  -7.965  -6.010  -6.009  -6.005  -6.004
 -6.003  -6.002  -5.959  -5.956  -5.952  -5.949  -5.946  -5.942
 -5.942  -5.940  -5.938  -5.936  -5.934  -5.934  -5.932  -5.930
 -5.930  -5.927  -5.926  -5.922  -1.044  -1.039  -0.968  -0.963
 -0.960  -0.950  -0.937  -0.929  -0.918  -0.913  -0.910  -0.901
 -0.843  -0.843  -0.830  -0.829  -0.811  -0.808  -0.806  -0.806
 -0.801  -0.799  -0.795  -0.794  -0.779  -0.778  -0.768  -0.766
 -0.750  -0.747  -0.741  -0.740  -0.722  -0.716  -0.708  -0.705
 -0.692  -0.691  -0.677  -0.674  -0.653  -0.652  -0.647  -0.646
 -0.639  -0.635  -0.626  -0.624  -0.609  -0.608  -0.597  -0.596
 -0.593  -0.592  -0.583  -0.580  -0.577  -0.572  -0.566  -0.558
 -0.558  -0.543  -0.538  -0.537  -0.527  -0.527  -0.517  -0.516
 -0.506  -0.503  -0.499  -0.498  -0.487  -0.482  -0.478  -0.474
 -0.472  -0.471  -0.470  -0.467  -0.459  -0.450  -0.446  -0.446
 -0.439  -0.439  -0.437  -0.436  -0.433  -0.430  -0.430  -0.429
 -0.427  -0.424  -0.422  -0.419  -0.418  -0.414  -0.413  -0.412
 -0.411  -0.407  -0.403  -0.402  -0.399  -0.396  -0.394  -0.393
 -0.392  -0.391  -0.390  -0.389  -0.388  -0.387  -0.385  -0.381
 -0.379  -0.377  -0.375  -0.372  -0.363  -0.361  -0.359  -0.357
 -0.354  -0.352  -0.351  -0.348  -0.345  -0.344  -0.337  -0.336
 -0.335  -0.333  -0.330  -0.328  -0.327  -0.325  -0.323  -0.314
 -0.314  -0.312  -0.310  -0.306  -0.304  -0.303  -0.301  -0.296
 -0.295  -0.293  -0.290  -0.289  -0.286  -0.285  -0.281  -0.278
 -0.276  -0.269  -0.266  -0.263  -0.255  -0.250  -0.248  -0.245
 -0.241  -0.239  -0.234  -0.231  -0.196  -0.194

          Ground-State Mulliken Net Atomic Charges

     Atom                 Charge (a.u.)
  ----------------------------------------
      1 C                     0.270222
      2 C                    -0.127282
      3 N                    -0.468037
      4 C                    -0.054013
      5 C                     0.053110
      6 C                     0.033491
      7 C                     0.055427
      8 C                     0.061220
      9 C                     0.253807
     10 N                    -0.559933
     11 N                    -0.557860
     12 C                     0.181671
     13 C                     0.338573
     14 S                     0.592307
     15 N                    -0.554357
     16 C                    -0.216636
     17 S                     0.293777
     18 C                    -0.125731
     19 C                    -0.230152
     20 S                     0.298738
     21 C                     0.216183
     22 C                     0.024319
     23 C                    -0.330627
     24 C                    -0.053511
     25 N                    -0.424713
     26 S                     0.290492
     27 C                     0.110708
     28 C                    -0.296864
     29 C                    -0.228448
     30 H                     0.087121
     31 H                     0.110552
     32 H                     0.105451
     33 H                     0.119276
     34 H                     0.114923
     35 H                     0.115388
     36 H                     0.118908
     37 H                     0.136805
     38 H                     0.085896
     39 C                    -0.187901
     40 H                     0.115381
     41 H                     0.094207
     42 H                     0.092344
     43 C                    -0.147972
     44 H                     0.092172
     45 C                    -0.188720
     46 H                     0.119067
     47 H                     0.084881
     48 H                     0.082378
     49 C                    -0.180224
     50 H                     0.096401
     51 C                    -0.321299
     52 H                     0.093260
     53 H                     0.100087
     54 H                     0.100555
     55 H                     0.113796
     56 C                     0.276438
     57 C                    -0.106173
     58 N                    -0.488735
     59 C                    -0.092247
     60 C                     0.087981
     61 C                     0.047414
     62 C                     0.051974
     63 C                     0.045919
     64 C                     0.205483
     65 N                    -0.527467
     66 N                    -0.547063
     67 C                     0.235677
     68 C                     0.290938
     69 S                     0.623342
     70 N                    -0.557417
     71 C                    -0.240183
     72 S                     0.357487
     73 C                    -0.092354
     74 C                    -0.230877
     75 S                     0.271897
     76 C                     0.124572
     77 C                     0.046122
     78 C                    -0.306951
     79 C                    -0.074321
     80 N                    -0.432264
     81 S                     0.280531
     82 C                     0.129288
     83 C                    -0.315890
     84 C                    -0.224587
     85 H                     0.086792
     86 H                     0.107295
     87 H                     0.119613
     88 H                     0.110931
     89 H                     0.121450
     90 H                     0.115834
     91 H                     0.115358
     92 H                     0.135082
     93 H                     0.113053
     94 C                    -0.195774
     95 H                     0.082808
     96 H                     0.117340
     97 H                     0.109515
     98 C                    -0.173994
     99 H                     0.095794
    100 C                    -0.184303
    101 H                     0.096657
    102 H                     0.106737
    103 H                     0.092914
    104 C                    -0.189216
    105 H                     0.098616
    106 C                    -0.320215
    107 H                     0.096852
    108 H                     0.101203
    109 H                     0.100766
    110 H                     0.101747
  ----------------------------------------
  Sum of atomic charges =     0.000000

                    Cartesian Multipole Moments
 -----------------------------------------------------------------
    Charge (ESU x 10^10)
                 0.0000
    Dipole Moment (Debye)
         X      -3.7207      Y      -0.5003      Z      -1.4553
       Tot       4.0264
    Quadrupole Moments (Debye-Ang)
        XX    -386.0068     XY       9.0137     YY    -415.4527
        XZ       3.9453     YZ      -7.1911     ZZ    -460.3122

 Total job time:  110.03s(wall), 1319.70s(cpu)
        *  Thank you very much for using Q-Chem.  Have a nice day.  *
