 Q-Chem 4.4, Q-Chem, Inc., Pleasanton, CA (2016)
 Q-Chem 4.4.2 for Intel X86 Linux

User input:
--------------------------------------------------------------
$comment
SP
$end

$rem
MEM_STATIC 5000
MEM_TOTAL 20000
JOBTYPE SP
EXCHANGE B3LYP
BASIS 6-31g(d,p)
$end

$molecule
0 1
C           1.784000     11.407000     -1.870000
C           3.131000     11.231000     -1.282000
N           0.973000     10.369000     -1.892000
C           3.452000     10.037000     -0.710000
C           1.361000      9.110000     -1.453000
C           2.557000      8.913000     -0.763000
C           2.972000      7.539000     -0.292000
C           4.347000      7.221000     -0.242000
C           2.136000      6.572000      0.180000
N           4.810000      6.101000      0.278000
N           0.829000      6.752000      0.396000
C           2.626000      5.336000      0.702000
C           4.017000      5.124000      0.787000
S           0.269000      5.428000      1.168000
N           1.726000      4.629000      1.376000
C           4.571000      3.773000      1.075000
S           3.647000      2.376000      1.747000
C           5.913000      3.428000      1.029000
C           5.189000      1.581000      2.206000
S           7.224000      4.332000      0.317000
C           6.211000      2.233000      1.680000
C           5.224000      0.232000      2.738000
C           8.309000      3.070000      1.008000
C           7.659000      2.095000      1.753000
N           4.153000     -0.490000      2.511000
S           6.634000     -0.587000      3.242000
C           4.388000     -1.793000      2.955000
C           5.594000     -1.923000      3.519000
C           1.326000     12.641000     -2.624000
H           3.836000     12.049000     -1.173000
H           4.445000      9.847000     -0.313000
H           0.634000      8.303000     -1.526000
H           5.077000      7.979000     -0.521000
H           9.349000      3.037000      0.712000
H           8.202000      1.338000      2.306000
H           3.604000     -2.537000      2.893000
H           5.994000     -2.810000      3.994000
H           0.454000     12.417000     -3.250000
C           2.390000     13.336000     -3.574000
H           0.944000     13.406000     -1.937000
H           3.232000     13.765000     -3.016000
H           1.982000     14.237000     -4.047000
C           2.865000     12.216000     -4.542000
H           3.475000     11.394000     -4.147000
C           3.755000     12.823000     -5.653000
H           2.016000     11.720000     -5.030000
H           4.670000     13.219000     -5.196000
H           3.200000     13.712000     -5.978000
C           4.143000     11.790000     -6.739000
H           4.930000     11.130000     -6.355000
C           4.604000     12.682000     -7.858000
H           3.276000     11.221000     -7.096000
H           3.868000     13.452000     -8.120000
H           4.917000     12.110000     -8.741000
H           5.516000     13.214000     -7.561000
C          -8.024000     -2.867000      2.116000
C          -8.836000     -2.069000      1.362000
N          -6.690000     -2.726000      2.160000
C          -8.242000     -0.930000      0.663000
C          -6.099000     -1.646000      1.566000
C          -6.890000     -0.698000      0.795000
C          -6.292000      0.486000     -0.030000
C          -7.053000      1.661000     -0.198000
C          -4.978000      0.604000     -0.487000
N          -6.565000      2.814000     -0.730000
N          -4.121000     -0.433000     -0.487000
C          -4.492000      1.759000     -1.062000
C          -5.300000      2.852000     -1.160000
S          -2.725000      0.137000     -1.057000
N          -3.143000      1.725000     -1.276000
C          -4.896000      4.158000     -1.824000
S          -3.261000      4.657000     -2.028000
C          -5.747000      5.155000     -2.214000
C          -3.730000      6.288000     -2.523000
S          -7.468000      5.190000     -2.359000
C          -5.088000      6.351000     -2.555000
C          -2.857000      7.347000     -2.968000
C          -7.295000      6.861000     -2.991000
C          -6.018000      7.385000     -2.966000
N          -1.659000      6.803000     -3.283000
S          -3.096000      9.002000     -3.373000
C          -0.874000      7.809000     -3.850000
C          -1.406000      9.046000     -3.872000
C          -8.481000     -4.115000      2.789000
H          -9.914000     -2.188000      1.297000
H          -8.841000     -0.273000      0.038000
H          -5.018000     -1.529000      1.620000
H          -8.102000      1.718000      0.090000
H          -8.182000      7.351000     -3.371000
H          -5.812000      8.386000     -3.329000
H           0.046000      7.468000     -4.306000
H          -0.970000      9.967000     -4.233000
H          -8.061000     -4.174000      3.801000
C          -8.310000     -5.485000      2.027000
H          -9.567000     -3.988000      2.877000
H          -7.272000     -5.793000      2.200000
H          -8.443000     -5.342000      0.947000
C          -9.289000     -6.575000      2.579000
H          -9.162000     -6.547000      3.668000
C          -8.862000     -7.914000      1.935000
H         -10.346000     -6.369000      2.366000
H          -7.832000     -8.081000      2.273000
H          -8.766000     -7.759000      0.853000
C          -9.667000     -9.087000      2.485000
H          -9.206000    -10.040000      2.200000
C         -11.140000     -9.165000      2.055000
H          -9.593000     -9.149000      3.578000
H         -11.666000     -8.440000      2.688000
H         -11.690000    -10.104000      2.194000
H         -11.288000     -8.877000      1.006000
$end

--------------------------------------------------------------

             Standard Nuclear Orientation (Angstroms)
    I     Atom           X                Y                Z
 ----------------------------------------------------------------
    1      C       7.6871469150    -2.6846686203    -1.4804694574
    2      C       8.3083046529    -1.3513670136    -1.6465985941
    3      N       6.4043667719    -2.7423543575    -1.1858570676
    4      C       7.5211793017    -0.2417140958    -1.5761352441
    5      C       5.6399533318    -1.6059008834    -0.9567466272
    6      C       6.1272178199    -0.3289708391    -1.2348616764
    7      C       5.2891802344     0.9016331652    -0.9794232496
    8      C       5.9340150882     2.1009899357    -0.6052837725
    9      C       3.9414631235     0.9987876577    -1.1554590229
   10      N       5.3037061776     3.2537647583    -0.4913105926
   11      N       3.1847722846     0.0356273862    -1.6912260113
   12      C       3.2429266816     2.2334472018    -0.9882984728
   13      C       3.9688713221     3.4035672141    -0.6868460955
   14      S       1.6917162406     0.6518345743    -1.9228126055
   15      N       2.0036789244     2.2325614906    -1.4661993117
   16      C       3.2749958781     4.6461287152    -0.2513707412
   17      S       1.5134223220     4.9907526405    -0.4386191229
   18      C       3.8982728520     5.7945434284     0.2120669140
   19      C       1.8319684353     6.7388606917    -0.1873889201
   20      S       5.5557780998     5.9772823705     0.7240862815
   21      C       3.0793980611     6.9215137825     0.2086176165
   22      C       0.7542039007     7.7030849892    -0.0744946676
   23      C       5.1882023291     7.7349024213     0.8757761295
   24      C       3.8990384718     8.0893598362     0.5008541510
   25      N      -0.4224510145     7.2002435577     0.2127120618
   26      S       0.9605835526     9.3860569534     0.1201583744
   27      C      -1.3191320016     8.2496240562     0.4246879488
   28      C      -0.7503983171     9.4448249740     0.2311194544
   29      C       8.4523169547    -3.9936963011    -1.4357778328
   30      H       9.3430605737    -1.2184071117    -1.9459843800
   31      H       7.9422542352     0.7574209340    -1.6408120755
   32      H       4.5917044066    -1.7454760943    -0.6982897617
   33      H       7.0201287052     2.1185098992    -0.5321041176
   34      H       5.8967123781     8.3902221046     1.3645241456
   35      H       3.5805398455     9.1234934287     0.4476250429
   36      H      -2.3601632721     8.0396245909     0.6349024071
   37      H      -1.2409547611    10.4092058517     0.2725669860
   38      H       7.8519309396    -4.7831846522    -0.9681446687
   39      C       9.8451668976    -3.9836801355    -0.6758503936
   40      H       8.6273245013    -4.3849642035    -2.4454311333
   41      H      10.5907551007    -3.3533763729    -1.1770333924
   42      H      10.3404346961    -4.9604715507    -0.7266671141
   43      C       9.5267480767    -3.4566379819     0.7516947101
   44      H       9.2360711254    -2.4063649496     0.8791406497
   45      C      10.7753401379    -3.5967029600     1.6551711440
   46      H       8.7130757852    -4.0268892726     1.2182907531
   47      H      11.5645015064    -2.9384249160     1.2720466851
   48      H      11.1365142924    -4.6120582683     1.4488271886
   49      C      10.4887554415    -3.2297996344     3.1317483217
   50      H      10.4338283645    -2.1396269992     3.2363028125
   51      C      11.6711759319    -3.8388297938     3.8326834463
   52      H       9.5830100875    -3.7189023790     3.5103019623
   53      H      11.8149956590    -4.8975324177     3.5842792591
   54      H      11.6335012536    -3.6836562266     4.9186594049
   55      H      12.5910744838    -3.3227313790     3.5320074070
   56      C      -9.9604182235    -0.6612969285    -0.9313358847
   57      C      -9.7445828136    -2.0004221082    -0.7737832619
   58      N      -9.0034479118     0.2632396718    -0.7557998566
   59      C      -8.3804632121    -2.4629241123    -0.5207464882
   60      C      -7.7060995992    -0.1255655512    -0.5707732250
   61      C      -7.3629495249    -1.5356402382    -0.4577979912
   62      C      -5.9374114546    -2.0726741763    -0.1120802458
   63      C      -5.5312482593    -3.3233098408    -0.6209141022
   64      C      -4.9078770790    -1.3643481107     0.5105770872
   65      N      -4.2594901531    -3.7998643979    -0.5427855328
   66      N      -5.1162029408    -0.1876185618     1.1284167946
   67      C      -3.6271527988    -1.8617643482     0.6253307575
   68      C      -3.3259567219    -3.0738245263     0.0800711424
   69      S      -3.6783003184     0.2943245781     1.6750271296
   70      N      -2.7363964668    -0.9439112856     1.1058012691
   71      C      -1.9690470253    -3.7491009464     0.1920793192
   72      S      -0.5036510708    -2.8980193803     0.4955869208
   73      C      -1.7065344718    -5.0666341738    -0.0638569113
   74      C       0.4933069492    -4.3141099999     0.1407502493
   75      S      -2.7636448810    -6.4114349623    -0.3049366120
   76      C      -0.3316690472    -5.3587795919    -0.1371652937
   77      C       1.9270521961    -4.4210976465     0.2614283772
   78      C      -1.2942845401    -7.4353410030    -0.4240609518
   79      C      -0.0887320761    -6.7628319668    -0.4066009197
   80      N       2.3659414669    -3.3882216773     1.0170132104
   81      S       3.0719323615    -5.6424767654    -0.1356276073
   82      C       3.7287776465    -3.5839343175     1.2496591001
   83      C       4.2987045968    -4.6367585131     0.6328759253
   84      C     -11.3107913471    -0.0517210010    -1.0868724256
   85      H     -10.5156071129    -2.7574240334    -0.8875356911
   86      H      -8.1569578008    -3.5161545388    -0.3730102372
   87      H      -6.9323579718     0.6300047916    -0.4458598505
   88      H      -6.2262984363    -4.0013145685    -1.1146841304
   89      H      -1.4297836734    -8.5076024453    -0.4803138116
   90      H       0.8544601780    -7.2943318083    -0.4706500438
   91      H       4.1660091522    -2.9225360425     1.9858641886
   92      H       5.3313547110    -4.9562107438     0.6484327182
   93      H     -11.2895124502     0.7195598388    -1.8670634758
   94      C     -12.0515995811     0.4716878998     0.2031009396
   95      H     -11.9374234991    -0.8791275481    -1.4418365814
   96      H     -11.6423946970     1.4706116991     0.3952977295
   97      H     -11.8117109759    -0.1620308821     1.0664617926
   98      C     -13.5985225000     0.5627752158    -0.0204557286
   99      H     -13.7184265768     1.1057156791    -0.9657983467
  100      C     -14.1751790863     1.3082468190     1.2049932790
  101      H     -14.0868140453    -0.4133584196    -0.1378801408
  102      H     -13.7012204978     2.2972741037     1.1901175773
  103      H     -13.7780320465     0.8356022541     2.1121020620
  104      C     -15.6702309808     1.5701126266     1.0543276503
  105      H     -16.0145362139     2.2900322968     1.8060753307
  106      C     -16.5918463998     0.3456038383     1.1634892126
  107      H     -15.8913716930     2.1232949850     0.1328858107
  108      H     -16.5282892369    -0.1533946599     0.1888349222
  109      H     -17.6660446613     0.4961195495     1.3277606818
  110      H     -16.2614002328    -0.3624084091     1.9347044798
 ----------------------------------------------------------------

   10   -5663.4964957679      4.57E-06 Convergence criterion met
 Total energy in the final basis set = -5663.4964957679

                    Orbital Energies (a.u.)
 --------------------------------------------------------------

 Alpha MOs
 -- Occupied --
-88.989 -88.979 -88.928 -88.926 -88.915 -88.912 -88.911 -88.905
-14.385 -14.379 -14.379 -14.373 -14.347 -14.344 -14.339 -14.333
-14.326 -14.326 -10.263 -10.260 -10.260 -10.257 -10.251 -10.247
-10.246 -10.245 -10.239 -10.238 -10.237 -10.236 -10.232 -10.231
-10.229 -10.228 -10.228 -10.227 -10.226 -10.226 -10.223 -10.223
-10.221 -10.221 -10.220 -10.220 -10.219 -10.217 -10.216 -10.214
-10.213 -10.209 -10.208 -10.205 -10.203 -10.202 -10.200 -10.200
-10.194 -10.192 -10.181 -10.180 -10.178 -10.178 -10.178 -10.177
-10.177 -10.175 -10.170 -10.169  -8.044  -8.034  -7.991  -7.987
 -7.973  -7.971  -7.970  -7.965  -6.009  -6.003  -6.002  -5.999
 -5.994  -5.992  -5.955  -5.951  -5.951  -5.948  -5.948  -5.944
 -5.937  -5.935  -5.935  -5.933  -5.931  -5.931  -5.929  -5.929
 -5.928  -5.926  -5.926  -5.921  -1.039  -1.028  -0.976  -0.959
 -0.955  -0.955  -0.931  -0.931  -0.911  -0.908  -0.901  -0.900
 -0.838  -0.836  -0.830  -0.829  -0.814  -0.808  -0.807  -0.804
 -0.802  -0.799  -0.795  -0.792  -0.782  -0.781  -0.768  -0.764
 -0.750  -0.744  -0.742  -0.738  -0.718  -0.717  -0.710  -0.704
 -0.695  -0.690  -0.675  -0.674  -0.653  -0.649  -0.647  -0.643
 -0.634  -0.629  -0.626  -0.617  -0.608  -0.606  -0.599  -0.595
 -0.592  -0.586  -0.583  -0.580  -0.577  -0.575  -0.571  -0.567
 -0.545  -0.539  -0.538  -0.534  -0.525  -0.523  -0.519  -0.512
 -0.505  -0.503  -0.498  -0.493  -0.484  -0.482  -0.474  -0.474
 -0.469  -0.468  -0.468  -0.467  -0.462  -0.460  -0.448  -0.445
 -0.443  -0.439  -0.439  -0.436  -0.434  -0.430  -0.429  -0.429
 -0.425  -0.424  -0.423  -0.420  -0.417  -0.416  -0.414  -0.411
 -0.409  -0.407  -0.404  -0.399  -0.397  -0.396  -0.393  -0.392
 -0.391  -0.389  -0.388  -0.387  -0.385  -0.384  -0.382  -0.380
 -0.379  -0.373  -0.372  -0.372  -0.365  -0.363  -0.359  -0.357
 -0.353  -0.353  -0.349  -0.347  -0.346  -0.343  -0.343  -0.335
 -0.335  -0.334  -0.333  -0.331  -0.328  -0.327  -0.324  -0.324
 -0.324  -0.315  -0.308  -0.303  -0.300  -0.299  -0.296  -0.295
 -0.295  -0.290  -0.288  -0.283  -0.283  -0.282  -0.280  -0.279
 -0.274  -0.267  -0.262  -0.261  -0.254  -0.249  -0.246  -0.241
 -0.239  -0.237  -0.232  -0.232  -0.193  -0.190

          Ground-State Mulliken Net Atomic Charges

     Atom                 Charge (a.u.)
  ----------------------------------------
      1 C                     0.293627
      2 C                    -0.129232
      3 N                    -0.495852
      4 C                    -0.074226
      5 C                     0.055892
      6 C                     0.053281
      7 C                     0.044377
      8 C                     0.062754
      9 C                     0.215258
     10 N                    -0.513780
     11 N                    -0.550080
     12 C                     0.187919
     13 C                     0.308144
     14 S                     0.605975
     15 N                    -0.547498
     16 C                    -0.230617
     17 S                     0.346998
     18 C                    -0.116439
     19 C                    -0.242913
     20 S                     0.288075
     21 C                     0.167424
     22 C                     0.064937
     23 C                    -0.302998
     24 C                    -0.085502
     25 N                    -0.429586
     26 S                     0.282161
     27 C                     0.118590
     28 C                    -0.305030
     29 C                    -0.235716
     30 H                     0.091307
     31 H                     0.093832
     32 H                     0.139490
     33 H                     0.105363
     34 H                     0.126171
     35 H                     0.115239
     36 H                     0.119670
     37 H                     0.126882
     38 H                     0.117282
     39 C                    -0.193633
     40 H                     0.106171
     41 H                     0.095119
     42 H                     0.099468
     43 C                    -0.171107
     44 H                     0.102400
     45 C                    -0.178859
     46 H                     0.090839
     47 H                     0.089931
     48 H                     0.086288
     49 C                    -0.174211
     50 H                     0.099629
     51 C                    -0.309368
     52 H                     0.096302
     53 H                     0.105337
     54 H                     0.087234
     55 H                     0.098937
     56 C                     0.273715
     57 C                    -0.119041
     58 N                    -0.484745
     59 C                    -0.099430
     60 C                     0.089983
     61 C                     0.051212
     62 C                     0.046523
     63 C                     0.046111
     64 C                     0.194958
     65 N                    -0.525422
     66 N                    -0.540009
     67 C                     0.231468
     68 C                     0.289472
     69 S                     0.617808
     70 N                    -0.551121
     71 C                    -0.241729
     72 S                     0.350353
     73 C                    -0.088207
     74 C                    -0.229095
     75 S                     0.268589
     76 C                     0.125189
     77 C                     0.046344
     78 C                    -0.304189
     79 C                    -0.072236
     80 N                    -0.436381
     81 S                     0.279620
     82 C                     0.117746
     83 C                    -0.285056
     84 C                    -0.222637
     85 H                     0.091760
     86 H                     0.102294
     87 H                     0.123799
     88 H                     0.109882
     89 H                     0.121830
     90 H                     0.116514
     91 H                     0.113135
     92 H                     0.141830
     93 H                     0.112921
     94 C                    -0.175319
     95 H                     0.083433
     96 H                     0.113094
     97 H                     0.093797
     98 C                    -0.175163
     99 H                     0.094802
    100 C                    -0.173296
    101 H                     0.096332
    102 H                     0.094834
    103 H                     0.095660
    104 C                    -0.180886
    105 H                     0.087894
    106 C                    -0.319259
    107 H                     0.094787
    108 H                     0.101795
    109 H                     0.100340
    110 H                     0.101739
  ----------------------------------------
  Sum of atomic charges =     0.000000

                    Cartesian Multipole Moments
 -----------------------------------------------------------------
    Charge (ESU x 10^10)
                 0.0000
    Dipole Moment (Debye)
         X       2.3083      Y       0.5910      Z       0.7874
       Tot       2.5095
    Quadrupole Moments (Debye-Ang)
        XX    -386.4176     XY      -0.5591     YY    -382.4930
        XZ      -0.5572     YZ       8.9116     ZZ    -453.1754

 Total job time:  89.19s(wall), 1051.07s(cpu)
        *  Thank you very much for using Q-Chem.  Have a nice day.  *
