 Q-Chem 4.4, Q-Chem, Inc., Pleasanton, CA (2016)
 Q-Chem 4.4.2 for Intel X86 Linux

User input:
--------------------------------------------------------------
$comment
SP
$end

$rem
MEM_STATIC 5000
MEM_TOTAL 20000
JOBTYPE SP
EXCHANGE B3LYP
BASIS 6-31g(d,p)
$end

$molecule
0 1
C          14.042000    -19.902000     -6.413000
C          15.219000    -20.675000     -6.383000
N          13.892000    -18.982000     -7.373000
C          16.226000    -20.483000     -7.302000
C          14.880000    -18.796000     -8.244000
C          16.149000    -19.447000     -8.255000
C          17.344000    -19.007000     -8.994000
C          17.558000    -17.638000     -9.370000
C          18.364000    -19.940000     -9.475000
N          18.671000    -17.141000     -9.934000
N          18.354000    -21.265000     -9.300000
C          19.448000    -19.424000    -10.267000
C          19.617000    -18.001000    -10.379000
S          19.629000    -21.848000    -10.120000
N          20.296000    -20.411000    -10.610000
C          20.889000    -17.497000    -10.887000
S          22.365000    -18.510000    -11.259000
C          21.262000    -16.168000    -10.985000
C          23.282000    -17.032000    -11.754000
S          20.295000    -14.710000    -10.660000
C          22.529000    -15.931000    -11.479000
C          24.658000    -17.082000    -12.184000
C          21.652000    -13.783000    -11.362000
C          22.782000    -14.524000    -11.575000
N          25.106000    -18.343000    -12.349000
S          25.698000    -15.839000    -12.641000
C          26.430000    -18.324000    -12.720000
C          26.945000    -17.064000    -13.042000
C          12.849000    -20.186000     -5.427000
H          15.327000    -21.440000     -5.619000
H          17.011000    -21.216000     -7.142000
H          14.632000    -18.042000     -8.990000
H          16.804000    -16.880000     -9.165000
H          21.600000    -12.703000    -11.336000
H          23.649000    -14.113000    -12.081000
H          26.992000    -19.228000    -12.913000
H          27.941000    -16.778000    -13.353000
H          13.369000    -20.412000     -4.487000
C          12.004000    -21.475000     -5.606000
H          12.244000    -19.282000     -5.289000
H          12.723000    -22.303000     -5.648000
H          11.595000    -21.326000     -6.613000
C          10.919000    -21.814000     -4.529000
H          10.089000    -21.099000     -4.593000
C          11.419000    -21.877000     -3.138000
H          10.600000    -22.820000     -4.827000
H          11.687000    -20.823000     -2.992000
H          12.288000    -22.530000     -2.987000
C          10.309000    -22.172000     -2.061000
H           9.447000    -21.519000     -2.242000
C          10.827000    -22.026000     -0.623000
H           9.875000    -23.179000     -2.091000
H          10.078000    -22.274000      0.140000
H          11.136000    -20.982000     -0.493000
H          11.687000    -22.676000     -0.421000
C          19.430000    -26.616000    -12.492000
C          18.883000    -27.831000    -12.219000
N          19.355000    -25.600000    -11.611000
C          18.407000    -28.095000    -10.933000
C          18.857000    -25.753000    -10.406000
C          18.352000    -27.015000    -10.040000
C          17.756000    -27.244000     -8.673000
C          16.562000    -28.021000     -8.523000
C          18.278000    -26.754000     -7.520000
N          15.937000    -28.165000     -7.302000
N          19.428000    -26.044000     -7.440000
C          17.729000    -27.017000     -6.257000
C          16.532000    -27.690000     -6.204000
S          19.643000    -25.675000     -5.845000
N          18.346000    -26.426000     -5.135000
C          15.905000    -28.013000     -4.892000
S          16.534000    -27.772000     -3.215000
C          14.670000    -28.659000     -4.813000
C          15.036000    -28.515000     -2.574000
S          13.607000    -29.242000     -6.095000
C          14.168000    -28.832000     -3.566000
C          14.738000    -28.518000     -1.218000
C          12.325000    -29.429000     -4.859000
C          12.833000    -29.397000     -3.575000
N          15.030000    -27.419000     -0.537000
S          13.720000    -29.753000     -0.462000
C          14.442000    -27.521000      0.720000
C          13.847000    -28.756000      0.945000
C          20.084000    -26.195000    -13.874000
H          18.969000    -28.595000    -12.986000
H          18.063000    -29.086000    -10.653000
H          18.880000    -24.884000     -9.750000
H          16.124000    -28.525000     -9.383000
H          11.352000    -29.801000     -5.153000
H          12.226000    -29.539000     -2.688000
H          14.799000    -26.800000      1.443000
H          13.548000    -28.994000      1.957000
H          21.065000    -25.738000    -13.693000
C          19.242000    -25.279000    -14.722000
H          20.254000    -27.145000    -14.396000
H          19.942000    -24.725000    -15.359000
H          18.753000    -24.539000    -14.076000
C          18.126000    -25.988000    -15.515000
H          18.372000    -26.926000    -16.027000
C          17.509000    -25.033000    -16.540000
H          17.391000    -26.335000    -14.778000
H          18.375000    -24.633000    -17.082000
H          16.849000    -24.304000    -16.054000
C          16.674000    -25.781000    -17.674000
H          17.324000    -26.585000    -18.041000
C          16.199000    -24.803000    -18.812000
H          15.782000    -26.241000    -17.229000
H          15.401000    -24.135000    -18.467000
H          16.075000    -25.351000    -19.755000
H          16.990000    -24.064000    -18.988000
$end

--------------------------------------------------------------

             Standard Nuclear Orientation (Angstroms)
    I     Atom           X                Y                Z
 ----------------------------------------------------------------
    1      C      -1.1147258993     4.2923428629    -2.6839010885
    2      C      -0.9895141905     3.4822681095    -1.5385369883
    3      N      -0.0625695822     4.4349953731    -3.4982212625
    4      C       0.1985132702     2.8599823733    -1.2273694852
    5      C       1.0835109389     3.8414647812    -3.1763488103
    6      C       1.3560975929     3.0805898081    -2.0011684873
    7      C       2.6890082729     2.7198248505    -1.4903419371
    8      C       3.8637417536     3.4896554968    -1.7881590378
    9      C       2.9347439536     1.5058033478    -0.7105882797
   10      N       5.0854847303     3.2964699293    -1.2648069237
   11      N       2.0125574667     0.6046972376    -0.3585515468
   12      C       4.2873209463     1.1929915744    -0.3347422032
   13      C       5.3160042797     2.1752537200    -0.5421203047
   14      S       2.8068809538    -0.6023013683     0.3831482330
   15      N       4.3282926608     0.0574372886     0.3862014718
   16      C       6.5924791402     1.9895188640     0.1406523470
   17      S       6.9641321725     0.6888489744     1.3707990300
   18      C       7.6622313051     2.8672728159     0.1283111357
   19      C       8.6448657101     1.3260412191     1.5695924374
   20      S       7.8587014845     4.3751680035    -0.7958801713
   21      C       8.7638435564     2.4875051314     0.8683928565
   22      C       9.5896858663     0.7445483530     2.4915235190
   23      C       9.5539253224     4.3756802970    -0.2303734278
   24      C       9.8173505068     3.4503376076     0.7420966641
   25      N       9.1475488764    -0.4094919031     3.0307414429
   26      S      11.1682360772     1.2008692498     2.8595567659
   27      C      10.0726850004    -0.8915728442     3.9266762164
   28      C      11.3066015921    -0.2328189001     3.9281204155
   29      C      -2.4963558280     4.9233566709    -3.0950231070
   30      H      -1.8529902659     3.3460070622    -0.8932254402
   31      H       0.0659594178     2.2398151918    -0.3459296726
   32      H       1.8561535687     4.0088075053    -3.9257190654
   33      H       3.8127875943     4.3467277940    -2.4574390622
   34      H      10.1746315953     5.2259319076    -0.4785183881
   35      H      10.8229943210     3.2771092774     1.1099532458
   36      H       9.9261390475    -1.8136586751     4.4731110287
   37      H      12.1882353511    -0.4078314333     4.5303043811
   38      H      -2.9163143250     5.2226401840    -2.1259306245
   39      C      -3.6259700720     4.0018292103    -3.6263853180
   40      H      -2.3399581835     5.8203980478    -3.7058762358
   41      H      -3.7324478746     3.1985625042    -2.8862947314
   42      H      -3.1555642091     3.5801432397    -4.5232856839
   43      C      -5.0383399229     4.6248498665    -3.8893143316
   44      H      -4.9970384664     5.2993719818    -4.7539154568
   45      C      -5.6345007555     5.3294541480    -2.7330379511
   46      H      -5.6479709209     3.7393253354    -4.1056412857
   47      H      -4.9325637244     6.1686050941    -2.6483851663
   48      H      -5.6685343443     4.7477264400    -1.8030887113
   49      C      -7.0329658340     5.9911089441    -3.0255483868
   50      H      -6.9775768675     6.5529940851    -3.9654585691
   51      C      -7.5190180156     6.8803271327    -1.8720631074
   52      H      -7.8615188217     5.2927321523    -3.1960617388
   53      H      -8.5141020928     7.3117370629    -2.0404886146
   54      H      -6.7922767449     7.6937034946    -1.7598890490
   55      H      -7.5859913520     6.3340312598    -0.9233906710
   56      C       1.1720753101    -5.6550627340    -0.0604981228
   57      C      -0.0221151932    -6.3030875759    -0.1232344443
   58      N       1.2374679955    -4.3239392984     0.1341199544
   59      C      -1.1920187479    -5.6181466336     0.2118022379
   60      C       0.1719351759    -3.5996097989     0.3859623387
   61      C      -1.0838956023    -4.2349006610     0.4162868697
   62      C      -2.3430167981    -3.4491675626     0.6875493114
   63      C      -3.5352268266    -3.7073182879    -0.0633557764
   64      C      -2.4477118769    -2.4733934195     1.6250442512
   65      N      -4.6713085609    -2.9405198129     0.0900730074
   66      N      -1.4553039396    -2.1161803935     2.4738818918
   67      C      -3.6417535137    -1.7869947807     1.8874570523
   68      C      -4.7144910244    -2.0247776210     1.0620840737
   69      S      -2.0559349477    -0.8989646347     3.4141154737
   70      N      -3.6162911828    -0.7725062658     2.8667520655
   71      C      -6.0151965579    -1.3382199339     1.2978925922
   72      S      -6.5255177553    -0.2523167297     2.6493501412
   73      C      -7.1066168474    -1.5317304802     0.4492834831
   74      C      -8.1457713994    -0.1213255155     1.8979824347
   75      S      -7.2669107133    -2.5478326740    -0.9843218351
   76      C      -8.2112871939    -0.7960529993     0.7239179121
   77      C      -9.1032211987     0.7695353656     2.3640358355
   78      C      -8.7830193069    -1.6712559034    -1.3574396419
   79      C      -9.2535687856    -0.9615215920    -0.2699634835
   80      N      -8.6763797144     1.9666559203     2.7402468469
   81      S     -10.8415431852     0.4984527513     2.1695213440
   82      C      -9.7884674680     2.7800837211     2.9346511705
   83      C     -10.9918396198     2.0970734830     2.8110895303
   84      C       2.5883976820    -6.3153390299    -0.3305854269
   85      H       0.0058475541    -7.3742378282    -0.2999721645
   86      H      -2.1462288515    -6.1322321249     0.2751756229
   87      H       0.3310853072    -2.5386605477     0.5732693646
   88      H      -3.5677432457    -4.5309035314    -0.7747698817
   89      H      -9.3488168098    -1.9380085752    -2.2407658545
   90      H     -10.1821170172    -0.4019457599    -0.2773843857
   91      H      -9.5844320774     3.7014944924     3.4632254320
   92      H     -11.8913942535     2.5976648443     3.1433526040
   93      H       3.2772010908    -6.0547677925     0.4828169915
   94      C       3.2089415711    -5.9664944541    -1.6573697890
   95      H       2.4018004085    -7.3949617523    -0.2715919131
   96      H       4.2919878482    -6.0771966330    -1.5253062080
   97      H       3.0260720871    -4.9061451378    -1.8724397292
   98      C       2.6552314891    -6.7676673877    -2.8525739873
   99      H       2.5099931958    -7.8474242088    -2.7279343254
  100      C       3.5221261150    -6.5434373136    -4.0941671500
  101      H       1.6220143787    -6.4305733834    -3.0030167833
  102      H       4.5417074895    -6.7469584722    -3.7438059667
  103      H       3.3370682140    -5.5550153732    -4.5323596202
  104      C       3.2929091173    -7.6407887948    -5.2281708073
  105      H       3.3565170142    -8.6113118573    -4.7205843412
  106      C       4.3150498358    -7.4972290060    -6.4163509025
  107      H       2.2800042828    -7.5373160275    -5.6387876394
  108      H       4.1032132475    -6.6139017414    -7.0302818461
  109      H       4.4692081896    -8.4690789186    -6.9028403159
  110      H       5.2877616587    -7.2022220147    -6.0045492700
 ----------------------------------------------------------------

   10   -5663.5144376413      3.91E-06 Convergence criterion met
 Total energy in the final basis set = -5663.5144376413

                    Orbital Energies (a.u.)
 --------------------------------------------------------------

 Alpha MOs
 -- Occupied --
-88.991 -88.982 -88.937 -88.932 -88.924 -88.917 -88.909 -88.906
-14.398 -14.384 -14.381 -14.377 -14.352 -14.350 -14.346 -14.341
-14.325 -14.322 -10.267 -10.264 -10.262 -10.258 -10.255 -10.253
-10.253 -10.252 -10.248 -10.238 -10.238 -10.238 -10.237 -10.235
-10.233 -10.233 -10.233 -10.230 -10.228 -10.227 -10.227 -10.227
-10.227 -10.226 -10.226 -10.224 -10.222 -10.222 -10.217 -10.215
-10.214 -10.205 -10.204 -10.203 -10.202 -10.200 -10.199 -10.188
-10.185 -10.183 -10.181 -10.180 -10.179 -10.177 -10.176 -10.176
-10.176 -10.174 -10.173 -10.170  -8.045  -8.037  -7.997  -7.994
 -7.981  -7.974  -7.968  -7.965  -6.010  -6.005  -6.003  -6.003
 -5.997  -5.995  -5.961  -5.958  -5.958  -5.954  -5.954  -5.951
 -5.946  -5.942  -5.938  -5.938  -5.935  -5.933  -5.930  -5.930
 -5.929  -5.926  -5.924  -5.921  -1.029  -1.028  -0.970  -0.965
 -0.957  -0.952  -0.947  -0.937  -0.912  -0.907  -0.901  -0.898
 -0.838  -0.834  -0.833  -0.826  -0.814  -0.809  -0.807  -0.805
 -0.805  -0.800  -0.799  -0.791  -0.783  -0.778  -0.766  -0.762
 -0.748  -0.748  -0.738  -0.738  -0.724  -0.718  -0.711  -0.707
 -0.693  -0.693  -0.673  -0.672  -0.657  -0.649  -0.646  -0.639
 -0.635  -0.630  -0.629  -0.618  -0.614  -0.606  -0.601  -0.600
 -0.594  -0.591  -0.584  -0.580  -0.576  -0.575  -0.570  -0.557
 -0.546  -0.542  -0.539  -0.537  -0.522  -0.518  -0.518  -0.513
 -0.511  -0.500  -0.494  -0.492  -0.487  -0.483  -0.476  -0.475
 -0.472  -0.470  -0.468  -0.465  -0.464  -0.454  -0.450  -0.446
 -0.442  -0.440  -0.439  -0.439  -0.434  -0.433  -0.431  -0.429
 -0.428  -0.427  -0.426  -0.420  -0.416  -0.415  -0.414  -0.412
 -0.409  -0.408  -0.405  -0.403  -0.402  -0.400  -0.397  -0.394
 -0.392  -0.391  -0.391  -0.389  -0.389  -0.386  -0.386  -0.383
 -0.381  -0.375  -0.372  -0.367  -0.366  -0.362  -0.356  -0.355
 -0.353  -0.351  -0.348  -0.345  -0.344  -0.341  -0.340  -0.338
 -0.335  -0.330  -0.329  -0.327  -0.327  -0.327  -0.322  -0.317
 -0.315  -0.314  -0.307  -0.306  -0.301  -0.300  -0.300  -0.297
 -0.296  -0.292  -0.292  -0.292  -0.290  -0.288  -0.282  -0.280
 -0.277  -0.273  -0.269  -0.262  -0.255  -0.249  -0.249  -0.245
 -0.244  -0.242  -0.236  -0.229  -0.194  -0.191

          Ground-State Mulliken Net Atomic Charges

     Atom                 Charge (a.u.)
  ----------------------------------------
      1 C                     0.266346
      2 C                    -0.120350
      3 N                    -0.475914
      4 C                    -0.057232
      5 C                     0.058149
      6 C                     0.032280
      7 C                     0.042624
      8 C                     0.052717
      9 C                     0.209520
     10 N                    -0.523605
     11 N                    -0.560973
     12 C                     0.225889
     13 C                     0.318315
     14 S                     0.621934
     15 N                    -0.574916
     16 C                    -0.235365
     17 S                     0.364256
     18 C                    -0.129014
     19 C                    -0.245827
     20 S                     0.284561
     21 C                     0.184165
     22 C                     0.060122
     23 C                    -0.294149
     24 C                    -0.093544
     25 N                    -0.431532
     26 S                     0.281307
     27 C                     0.129808
     28 C                    -0.319735
     29 C                    -0.229894
     30 H                     0.085125
     31 H                     0.114863
     32 H                     0.095895
     33 H                     0.115089
     34 H                     0.126710
     35 H                     0.109471
     36 H                     0.119103
     37 H                     0.136877
     38 H                     0.100892
     39 C                    -0.181661
     40 H                     0.108127
     41 H                     0.092532
     42 H                     0.104057
     43 C                    -0.176518
     44 H                     0.094548
     45 C                    -0.164236
     46 H                     0.096575
     47 H                     0.100047
     48 H                     0.093117
     49 C                    -0.181272
     50 H                     0.091033
     51 C                    -0.316965
     52 H                     0.091657
     53 H                     0.096972
     54 H                     0.101538
     55 H                     0.103942
     56 C                     0.259489
     57 C                    -0.119312
     58 N                    -0.482433
     59 C                    -0.073292
     60 C                     0.119537
     61 C                     0.016078
     62 C                     0.011076
     63 C                     0.062384
     64 C                     0.250667
     65 N                    -0.545671
     66 N                    -0.558976
     67 C                     0.178085
     68 C                     0.319629
     69 S                     0.612679
     70 N                    -0.547906
     71 C                    -0.227648
     72 S                     0.351481
     73 C                    -0.127843
     74 C                    -0.226829
     75 S                     0.279366
     76 C                     0.183182
     77 C                     0.021935
     78 C                    -0.303736
     79 C                    -0.084182
     80 N                    -0.399854
     81 S                     0.282466
     82 C                     0.097697
     83 C                    -0.290719
     84 C                    -0.208404
     85 H                     0.088901
     86 H                     0.105910
     87 H                     0.114898
     88 H                     0.117861
     89 H                     0.126381
     90 H                     0.111954
     91 H                     0.119365
     92 H                     0.128948
     93 H                     0.113099
     94 C                    -0.167965
     95 H                     0.085224
     96 H                     0.091226
     97 H                     0.116703
     98 C                    -0.183524
     99 H                     0.082737
    100 C                    -0.169650
    101 H                     0.092869
    102 H                     0.096443
    103 H                     0.096619
    104 C                    -0.188452
    105 H                     0.089960
    106 C                    -0.322886
    107 H                     0.093770
    108 H                     0.107389
    109 H                     0.104975
    110 H                     0.100839
  ----------------------------------------
  Sum of atomic charges =     0.000000

                    Cartesian Multipole Moments
 -----------------------------------------------------------------
    Charge (ESU x 10^10)
                 0.0000
    Dipole Moment (Debye)
         X      -1.6660      Y      -1.7562      Z       2.3113
       Tot       3.3469
    Quadrupole Moments (Debye-Ang)
        XX    -348.5518     XY      -5.0765     YY    -428.0488
        XZ      15.6803     YZ       7.6838     ZZ    -444.3753

 Total job time:  84.82s(wall), 981.03s(cpu)
        *  Thank you very much for using Q-Chem.  Have a nice day.  *
