 Q-Chem 4.4, Q-Chem, Inc., Pleasanton, CA (2016)
 Q-Chem 4.4.2 for Intel X86 Linux

User input:
--------------------------------------------------------------
$comment
SP
$end

$rem
MEM_STATIC 5000
MEM_TOTAL 20000
JOBTYPE SP
EXCHANGE B3LYP
BASIS 6-31g(d,p)
$end

$molecule
0 1
C          17.212000    -21.761000     -0.505000
C          17.422000    -21.716000      0.862000
N          17.044000    -22.917000     -1.221000
C          17.478000    -22.956000      1.530000
C          17.050000    -24.076000     -0.498000
C          17.206000    -24.143000      0.880000
C          17.003000    -25.365000      1.754000
C          16.233000    -25.307000      2.972000
C          17.570000    -26.675000      1.478000
N          15.970000    -26.355000      3.745000
N          18.374000    -26.984000      0.462000
C          17.296000    -27.768000      2.341000
C          16.447000    -27.563000      3.437000
S          18.769000    -28.555000      0.622000
N          18.010000    -28.876000      2.023000
C          15.932000    -28.605000      4.278000
S          15.129000    -28.146000      5.778000
C          15.708000    -29.917000      4.068000
C          14.908000    -29.863000      6.242000
S          15.835000    -30.877000      2.601000
C          15.298000    -30.628000      5.138000
C          14.233000    -30.288000      7.359000
C          15.563000    -32.356000      3.606000
C          15.222000    -32.033000      4.921000
N          14.180000    -31.553000      7.633000
S          13.725000    -29.153000      8.576000
C          13.664000    -31.760000      8.842000
C          13.439000    -30.592000      9.600000
C          17.037000    -20.535000     -1.354000
H          17.596000    -20.815000      1.443000
H          17.707000    -23.040000      2.588000
H          16.945000    -24.983000     -1.090000
H          15.742000    -24.388000      3.289000
H          15.679000    -33.331000      3.151000
H          14.993000    -32.802000      5.649000
H          13.557000    -32.769000      9.218000
H          13.202000    -30.554000     10.655000
H          17.548000    -19.650000     -0.954000
C          15.617000    -20.184000     -1.917000
H          17.752000    -20.703000     -2.169000
H          15.313000    -20.811000     -2.764000
H          15.656000    -19.156000     -2.300000
C          14.660000    -20.252000     -0.671000
H          13.628000    -20.276000     -1.044000
C          14.672000    -19.068000      0.223000
H          14.714000    -21.192000     -0.108000
H          14.760000    -18.165000     -0.394000
H          15.619000    -19.110000      0.775000
C          13.553000    -19.107000      1.229000
H          12.570000    -19.129000      0.742000
C          13.589000    -18.039000      2.372000
H          13.595000    -20.090000      1.714000
H          13.291000    -17.095000      1.900000
H          14.531000    -17.946000      2.927000
H          12.783000    -18.234000      3.090000
C          19.430000    -26.616000    -12.492000
C          18.883000    -27.831000    -12.219000
N          19.355000    -25.600000    -11.611000
C          18.407000    -28.095000    -10.933000
C          18.857000    -25.753000    -10.406000
C          18.352000    -27.015000    -10.040000
C          17.756000    -27.244000     -8.673000
C          16.562000    -28.021000     -8.523000
C          18.278000    -26.754000     -7.520000
N          15.937000    -28.165000     -7.302000
N          19.428000    -26.044000     -7.440000
C          17.729000    -27.017000     -6.257000
C          16.532000    -27.690000     -6.204000
S          19.643000    -25.675000     -5.845000
N          18.346000    -26.426000     -5.135000
C          15.905000    -28.013000     -4.892000
S          16.534000    -27.772000     -3.215000
C          14.670000    -28.659000     -4.813000
C          15.036000    -28.515000     -2.574000
S          13.607000    -29.242000     -6.095000
C          14.168000    -28.832000     -3.566000
C          14.738000    -28.518000     -1.218000
C          12.325000    -29.429000     -4.859000
C          12.833000    -29.397000     -3.575000
N          15.030000    -27.419000     -0.537000
S          13.720000    -29.753000     -0.462000
C          14.442000    -27.521000      0.720000
C          13.847000    -28.756000      0.945000
C          20.084000    -26.195000    -13.874000
H          18.969000    -28.595000    -12.986000
H          18.063000    -29.086000    -10.653000
H          18.880000    -24.884000     -9.750000
H          16.124000    -28.525000     -9.383000
H          11.352000    -29.801000     -5.153000
H          12.226000    -29.539000     -2.688000
H          14.799000    -26.800000      1.443000
H          13.548000    -28.994000      1.957000
H          21.065000    -25.738000    -13.693000
C          19.242000    -25.279000    -14.722000
H          20.254000    -27.145000    -14.396000
H          19.942000    -24.725000    -15.359000
H          18.753000    -24.539000    -14.076000
C          18.126000    -25.988000    -15.515000
H          18.372000    -26.926000    -16.027000
C          17.509000    -25.033000    -16.540000
H          17.391000    -26.335000    -14.778000
H          18.375000    -24.633000    -17.082000
H          16.849000    -24.304000    -16.054000
C          16.674000    -25.781000    -17.674000
H          17.324000    -26.585000    -18.041000
C          16.199000    -24.803000    -18.812000
H          15.782000    -26.241000    -17.229000
H          15.401000    -24.135000    -18.467000
H          16.075000    -25.351000    -19.755000
H          16.990000    -24.064000    -18.988000
$end

--------------------------------------------------------------

             Standard Nuclear Orientation (Angstroms)
    I     Atom           X                Y                Z
 ----------------------------------------------------------------
    1      C      -0.8542597344    -5.3828911635    -0.8423410192
    2      C      -2.1529114616    -5.6325930387    -1.2497310840
    3      N      -0.3335174307    -4.1297272449    -0.6535987446
    4      C      -2.9623759655    -4.5047454502    -1.4940403841
    5      C      -1.1939238881    -3.0872273276    -0.8509326001
    6      C      -2.5267104968    -3.2250293118    -1.2147999781
    7      C      -3.5761535054    -2.1310890884    -1.2330526307
    8      C      -4.8815926559    -2.3224989526    -0.6508336957
    9      C      -3.3906818910    -0.8257597125    -1.8458172681
   10      N      -5.8185514338    -1.3831303610    -0.5822997797
   11      N      -2.3108772083    -0.4167096599    -2.5097848137
   12      C      -4.4234168716     0.1458459104    -1.7830879022
   13      C      -5.6023980062    -0.1694893387    -1.0941690645
   14      S      -2.6137893336     1.0933457295    -3.0367031806
   15      N      -4.1468833947     1.2499812236    -2.5199721849
   16      C      -6.6447844651     0.7671140187    -0.7868018226
   17      S      -8.1781437085     0.1408654808    -0.1850442308
   18      C      -6.6487206902     2.1053382316    -0.6294472484
   19      C      -8.8949196466     1.7833771857    -0.1602742174
   20      S      -5.3206076148     3.2565842504    -0.6056509611
   21      C      -7.8547250223     2.6768078972    -0.4358058988
   22      C     -10.1506803891     2.0789490378     0.3083847609
   23      C      -6.5432229123     4.5894475474    -0.5939349089
   24      C      -7.8408513070     4.1004176898    -0.4300894096
   25      N     -10.5950743149     3.2931282784     0.2284297087
   26      S     -11.2709180972     0.8097029607     0.7102054586
   27      C     -11.8868868986     3.3520108324     0.5423390799
   28      C     -12.5090208218     2.1010356265     0.7357904068
   29      C       0.1117272630    -6.4650799647    -0.4547348798
   30      H      -2.5744530988    -6.6147824283    -1.4427198169
   31      H      -3.9727843874    -4.5839284081    -1.8834834225
   32      H      -0.7515492427    -2.1010578566    -0.7247880496
   33      H      -5.1471209596    -3.2510273336    -0.1473848248
   34      H      -6.2091373854     5.6120792539    -0.7110555886
   35      H      -8.6913850813     4.7686621784    -0.3682217908
   36      H     -12.4056146872     4.3013688430     0.5189542758
   37      H     -13.5736788334     1.9254284515     0.8151846027
   38      H      -0.0817519027    -7.4228712602    -0.9542823217
   39      C       0.4856460861    -6.6595723907     1.0548767955
   40      H       0.9995434504    -6.2194759149    -1.0506669801
   41      H       1.1833863179    -5.9037599255     1.4354816908
   42      H       1.0030381248    -7.6232507835     1.1477392393
   43      C      -0.8933651808    -6.7208845491     1.8082410799
   44      H      -0.6940547339    -6.5914936121     2.8798111108
   45      C      -1.6091396013    -8.0191055590     1.7488677812
   46      H      -1.5605722022    -5.8745475508     1.6032204080
   47      H      -0.8716413454    -8.8284200035     1.8192130178
   48      H      -2.0057585075    -8.1043939433     0.7297032534
   49      C      -2.7749563469    -8.0666782485     2.6998284297
   50      H      -2.4561084622    -7.9255397394     3.7401927638
   51      C      -3.7460117483    -9.2868864047     2.5713276007
   52      H      -3.3734332194    -7.1661247213     2.5151482258
   53      H      -3.2057450668   -10.1376920784     3.0037228116
   54      H      -4.1284331214    -9.5057959430     1.5664044656
   55      H      -4.6014234609    -9.1552207703     3.2452118360
   56      C      10.5805447679     1.0089939064    -1.5958456627
   57      C      10.0659773907     2.1990640538    -1.1848511876
   58      N       9.8414907804    -0.1168738048    -1.5796252962
   59      C       8.6975478397     2.3012966584    -0.9259746561
   60      C       8.5635950922    -0.1117189765    -1.2789692836
   61      C       7.9583961489     1.1094374655    -0.9266396321
   62      C       6.4964530123     1.1716614565    -0.5589489465
   63      C       6.0585090728     1.9792368588     0.5400924884
   64      C       5.5154149698     0.4966235522    -1.2100105311
   65      N       4.7461526520     1.9796902703     0.9642651175
   66      N       5.7124672628    -0.2752071871    -2.3047468938
   67      C       4.1581299044     0.6048605034    -0.8756439455
   68      C       3.8284394918     1.3235861926     0.2483154023
   69      S       4.2345001965    -0.8778848873    -2.7275990435
   70      N       3.2357939729    -0.1704471201    -1.6084798879
   71      C       2.4029577067     1.4881362581     0.6479739520
   72      S       0.8929490606     0.9792224542    -0.2046289032
   73      C       2.0454250181     2.1784089398     1.8074893687
   74      C      -0.0688255557     1.6988134246     1.1235700362
   75      S       3.0551619603     2.9913037884     3.0045755278
   76      C       0.7231449774     2.1975614499     2.1043911627
   77      C      -1.4430786711     1.5240129835     1.2153424754
   78      C       1.6189625256     3.0656094315     4.0713458195
   79      C       0.4467312215     2.8253826414     3.3814843414
   80      N      -1.9176117323     0.3258555242     0.9054020351
   81      S      -2.5071136342     2.6891269905     2.0174795883
   82      C      -3.2537947610     0.2777833111     1.2907602790
   83      C      -3.7316045546     1.4968999265     1.7547941993
   84      C      12.0917864945     0.7561544353    -2.0046263445
   85      H      10.7286592266     3.0590446476    -1.2106806779
   86      H       8.2378314147     3.2585992777    -0.7000332839
   87      H       8.0406358196    -1.0652531742    -1.3365204176
   88      H       6.7641974940     2.6221408571     1.0636746701
   89      H       1.7040620181     3.5247544719     5.0478154341
   90      H      -0.5356857462     2.8704682832     3.8377805024
   91      H      -3.8093695391    -0.5560055405     0.8831430358
   92      H      -4.8005850320     1.6034001575     1.8817880569
   93      H      12.1298075095     0.2286575637    -2.9660172394
   94      C      12.9106127757     0.0142521968    -0.9817731831
   95      H      12.5032575420     1.7608552818    -2.1632194904
   96      H      13.7177247961    -0.4784132542    -1.5372332986
   97      H      12.2996913461    -0.7842495811    -0.5422200948
   98      C      13.4167614851     0.8848181266     0.1856660855
   99      H      13.8320074343     1.8723609310    -0.0485005460
  100      C      14.4494005294     0.1180841726     1.0157953815
  101      H      12.5337601205     1.1604157688     0.7757148375
  102      H      15.1692462073    -0.2443278588     0.2713494671
  103      H      13.9666616938    -0.6380626330     1.6470181828
  104      C      15.3283102008     1.0614049193     1.9540644038
  105      H      15.6830696724     1.8752665897     1.3095646763
  106      C      16.4969402999     0.2807782273     2.6626394945
  107      H      14.6913261232     1.4982552209     2.7342580329
  108      H      16.1223505947    -0.3879733071     3.4465444236
  109      H      17.3274535433     0.9629858124     2.8857304253
  110      H      16.8918228762    -0.4649972219     1.9621648480
 ----------------------------------------------------------------

   10   -5663.4937894129      4.03E-06 Convergence criterion met
 Total energy in the final basis set = -5663.4937894129

                    Orbital Energies (a.u.)
 --------------------------------------------------------------

 Alpha MOs
 -- Occupied --
-88.988 -88.987 -88.933 -88.928 -88.922 -88.919 -88.908 -88.903
-14.393 -14.382 -14.380 -14.376 -14.349 -14.349 -14.344 -14.340
-14.327 -14.320 -10.262 -10.262 -10.259 -10.255 -10.255 -10.253
-10.249 -10.249 -10.245 -10.243 -10.236 -10.235 -10.235 -10.235
-10.233 -10.233 -10.231 -10.230 -10.228 -10.227 -10.225 -10.224
-10.223 -10.223 -10.223 -10.221 -10.219 -10.219 -10.214 -10.212
-10.208 -10.207 -10.205 -10.202 -10.201 -10.200 -10.196 -10.196
-10.183 -10.183 -10.180 -10.177 -10.177 -10.176 -10.175 -10.174
-10.173 -10.173 -10.168 -10.167  -8.043  -8.041  -7.993  -7.989
 -7.979  -7.978  -7.968  -7.962  -6.008  -6.006  -6.002  -6.001
 -6.001  -5.999  -5.957  -5.954  -5.953  -5.950  -5.950  -5.946
 -5.944  -5.942  -5.940  -5.939  -5.936  -5.935  -5.933  -5.929
 -5.927  -5.924  -5.923  -5.919  -1.037  -1.024  -0.987  -0.969
 -0.967  -0.954  -0.943  -0.929  -0.921  -0.909  -0.901  -0.897
 -0.844  -0.836  -0.830  -0.828  -0.816  -0.810  -0.807  -0.805
 -0.805  -0.803  -0.799  -0.796  -0.781  -0.781  -0.768  -0.764
 -0.747  -0.746  -0.739  -0.735  -0.726  -0.722  -0.710  -0.706
 -0.693  -0.690  -0.676  -0.669  -0.654  -0.653  -0.646  -0.643
 -0.637  -0.633  -0.630  -0.627  -0.612  -0.610  -0.600  -0.598
 -0.596  -0.591  -0.582  -0.579  -0.578  -0.574  -0.570  -0.562
 -0.553  -0.542  -0.539  -0.536  -0.529  -0.519  -0.515  -0.509
 -0.508  -0.503  -0.502  -0.492  -0.484  -0.482  -0.475  -0.474
 -0.472  -0.469  -0.468  -0.464  -0.463  -0.462  -0.450  -0.447
 -0.444  -0.439  -0.438  -0.437  -0.436  -0.436  -0.432  -0.432
 -0.430  -0.425  -0.425  -0.424  -0.421  -0.417  -0.414  -0.411
 -0.409  -0.407  -0.404  -0.403  -0.402  -0.399  -0.398  -0.395
 -0.393  -0.391  -0.390  -0.388  -0.387  -0.386  -0.383  -0.383
 -0.378  -0.376  -0.373  -0.371  -0.366  -0.356  -0.354  -0.352
 -0.350  -0.348  -0.347  -0.344  -0.343  -0.342  -0.340  -0.338
 -0.338  -0.334  -0.330  -0.327  -0.326  -0.325  -0.316  -0.315
 -0.313  -0.311  -0.308  -0.305  -0.303  -0.300  -0.300  -0.298
 -0.296  -0.295  -0.293  -0.289  -0.287  -0.286  -0.284  -0.281
 -0.276  -0.274  -0.267  -0.266  -0.253  -0.251  -0.246  -0.245
 -0.244  -0.241  -0.235  -0.232  -0.192  -0.190

          Ground-State Mulliken Net Atomic Charges

     Atom                 Charge (a.u.)
  ----------------------------------------
      1 C                     0.252937
      2 C                    -0.106497
      3 N                    -0.476464
      4 C                    -0.096086
      5 C                     0.069176
      6 C                     0.068054
      7 C                     0.007337
      8 C                     0.038597
      9 C                     0.248158
     10 N                    -0.503857
     11 N                    -0.555218
     12 C                     0.232176
     13 C                     0.281695
     14 S                     0.613889
     15 N                    -0.549786
     16 C                    -0.228265
     17 S                     0.296204
     18 C                    -0.118249
     19 C                    -0.213091
     20 S                     0.261489
     21 C                     0.145859
     22 C                     0.072492
     23 C                    -0.309936
     24 C                    -0.044536
     25 N                    -0.428557
     26 S                     0.262510
     27 C                     0.132395
     28 C                    -0.319211
     29 C                    -0.226056
     30 H                     0.096723
     31 H                     0.096636
     32 H                     0.143808
     33 H                     0.115360
     34 H                     0.131571
     35 H                     0.131329
     36 H                     0.112540
     37 H                     0.132603
     38 H                     0.090557
     39 C                    -0.176344
     40 H                     0.110783
     41 H                     0.113769
     42 H                     0.093915
     43 C                    -0.184825
     44 H                     0.080205
     45 C                    -0.150611
     46 H                     0.103650
     47 H                     0.086120
     48 H                     0.083501
     49 C                    -0.181144
     50 H                     0.093071
     51 C                    -0.323722
     52 H                     0.092419
     53 H                     0.104513
     54 H                     0.103040
     55 H                     0.100150
     56 C                     0.258320
     57 C                    -0.119105
     58 N                    -0.472605
     59 C                    -0.074145
     60 C                     0.114724
     61 C                     0.014433
     62 C                     0.011446
     63 C                     0.061159
     64 C                     0.249994
     65 N                    -0.546033
     66 N                    -0.559379
     67 C                     0.176959
     68 C                     0.321256
     69 S                     0.616711
     70 N                    -0.543588
     71 C                    -0.227673
     72 S                     0.351709
     73 C                    -0.129485
     74 C                    -0.232410
     75 S                     0.277888
     76 C                     0.185275
     77 C                     0.023200
     78 C                    -0.303450
     79 C                    -0.084525
     80 N                    -0.411494
     81 S                     0.282395
     82 C                     0.099461
     83 C                    -0.291465
     84 C                    -0.207803
     85 H                     0.086914
     86 H                     0.104555
     87 H                     0.119114
     88 H                     0.116461
     89 H                     0.125532
     90 H                     0.112873
     91 H                     0.108557
     92 H                     0.142908
     93 H                     0.111732
     94 C                    -0.168271
     95 H                     0.084348
     96 H                     0.088976
     97 H                     0.117684
     98 C                    -0.183085
     99 H                     0.082619
    100 C                    -0.169303
    101 H                     0.093385
    102 H                     0.095635
    103 H                     0.095880
    104 C                    -0.188663
    105 H                     0.090254
    106 C                    -0.322697
    107 H                     0.093865
    108 H                     0.106853
    109 H                     0.105067
    110 H                     0.100264
  ----------------------------------------
  Sum of atomic charges =     0.000000

                    Cartesian Multipole Moments
 -----------------------------------------------------------------
    Charge (ESU x 10^10)
                 0.0000
    Dipole Moment (Debye)
         X      -3.1813      Y       2.4321      Z       0.5614
       Tot       4.0437
    Quadrupole Moments (Debye-Ang)
        XX    -398.4401     XY       6.3856     YY    -418.0896
        XZ      -6.4095     YZ       5.3702     ZZ    -442.6911

 Total job time:  95.12s(wall), 1132.98s(cpu)
        *  Thank you very much for using Q-Chem.  Have a nice day.  *
