 Q-Chem 4.4, Q-Chem, Inc., Pleasanton, CA (2016)
 Q-Chem 4.4.2 for Intel X86 Linux

User input:
--------------------------------------------------------------
$comment
SP
$end

$rem
MEM_STATIC 5000
MEM_TOTAL 20000
JOBTYPE SP
EXCHANGE B3LYP
BASIS 6-31g(d,p)
$end

$molecule
0 1
C          22.318000    -21.234000    -16.910000
C          21.961000    -22.567000    -16.522000
N          23.095000    -20.435000    -16.172000
C          22.464000    -23.039000    -15.286000
C          23.592000    -20.948000    -15.021000
C          23.260000    -22.178000    -14.471000
C          23.769000    -22.527000    -13.131000
C          22.886000    -23.097000    -12.239000
C          25.107000    -22.388000    -12.715000
N          23.268000    -23.698000    -11.114000
N          26.076000    -21.798000    -13.468000
C          25.512000    -22.981000    -11.549000
C          24.549000    -23.720000    -10.732000
S          27.411000    -21.871000    -12.559000
N          26.887000    -22.772000    -11.277000
C          24.886000    -24.291000     -9.438000
S          26.422000    -23.977000     -8.529000
C          24.139000    -25.196000     -8.741000
C          25.784000    -24.981000     -7.208000
S          22.608000    -25.984000     -9.216000
C          24.628000    -25.568000     -7.537000
C          26.440000    -25.224000     -5.962000
C          22.574000    -26.737000     -7.561000
C          23.734000    -26.437000     -6.851000
N          27.524000    -24.507000     -5.834000
S          26.318000    -26.679000     -5.008000
C          28.367000    -25.034000     -4.873000
C          27.840000    -26.203000     -4.263000
C          21.920000    -20.728000    -18.286000
H          21.283000    -23.152000    -17.137000
H          22.254000    -24.074000    -15.034000
H          24.264000    -20.230000    -14.552000
H          21.862000    -23.257000    -12.573000
H          21.752000    -27.349000     -7.213000
H          23.888000    -26.891000     -5.879000
H          29.326000    -24.588000     -4.643000
H          28.213000    -26.844000     -3.474000
H          22.777000    -20.189000    -18.708000
C          20.636000    -19.792000    -18.242000
H          21.634000    -21.618000    -18.860000
H          20.319000    -19.524000    -19.257000
H          20.905000    -18.864000    -17.722000
C          19.472000    -20.457000    -17.506000
H          19.256000    -21.469000    -17.869000
C          18.175000    -19.555000    -17.670000
H          19.702000    -20.534000    -16.436000
H          18.210000    -18.967000    -18.595000
H          18.114000    -18.865000    -16.820000
C          16.828000    -20.351000    -17.733000
H          16.110000    -19.647000    -18.171000
C          16.322000    -21.016000    -16.352000
H          16.897000    -21.093000    -18.538000
H          16.259000    -20.359000    -15.476000
H          17.129000    -21.706000    -16.074000
H          15.362000    -21.543000    -16.410000
C          19.430000    -26.616000    -12.492000
C          18.883000    -27.831000    -12.219000
N          19.355000    -25.600000    -11.611000
C          18.407000    -28.095000    -10.933000
C          18.857000    -25.753000    -10.406000
C          18.352000    -27.015000    -10.040000
C          17.756000    -27.244000     -8.673000
C          16.562000    -28.021000     -8.523000
C          18.278000    -26.754000     -7.520000
N          15.937000    -28.165000     -7.302000
N          19.428000    -26.044000     -7.440000
C          17.729000    -27.017000     -6.257000
C          16.532000    -27.690000     -6.204000
S          19.643000    -25.675000     -5.845000
N          18.346000    -26.426000     -5.135000
C          15.905000    -28.013000     -4.892000
S          16.534000    -27.772000     -3.215000
C          14.670000    -28.659000     -4.813000
C          15.036000    -28.515000     -2.574000
S          13.607000    -29.242000     -6.095000
C          14.168000    -28.832000     -3.566000
C          14.738000    -28.518000     -1.218000
C          12.325000    -29.429000     -4.859000
C          12.833000    -29.397000     -3.575000
N          15.030000    -27.419000     -0.537000
S          13.720000    -29.753000     -0.462000
C          14.442000    -27.521000      0.720000
C          13.847000    -28.756000      0.945000
C          20.084000    -26.195000    -13.874000
H          18.969000    -28.595000    -12.986000
H          18.063000    -29.086000    -10.653000
H          18.880000    -24.884000     -9.750000
H          16.124000    -28.525000     -9.383000
H          11.352000    -29.801000     -5.153000
H          12.226000    -29.539000     -2.688000
H          14.799000    -26.800000      1.443000
H          13.548000    -28.994000      1.957000
H          21.065000    -25.738000    -13.693000
C          19.242000    -25.279000    -14.722000
H          20.254000    -27.145000    -14.396000
H          19.942000    -24.725000    -15.359000
H          18.753000    -24.539000    -14.076000
C          18.126000    -25.988000    -15.515000
H          18.372000    -26.926000    -16.027000
C          17.509000    -25.033000    -16.540000
H          17.391000    -26.335000    -14.778000
H          18.375000    -24.633000    -17.082000
H          16.849000    -24.304000    -16.054000
C          16.674000    -25.781000    -17.674000
H          17.324000    -26.585000    -18.041000
C          16.199000    -24.803000    -18.812000
H          15.782000    -26.241000    -17.229000
H          15.401000    -24.135000    -18.467000
H          16.075000    -25.351000    -19.755000
H          16.990000    -24.064000    -18.988000
$end

--------------------------------------------------------------

             Standard Nuclear Orientation (Angstroms)
    I     Atom           X                Y                Z
 ----------------------------------------------------------------
    1      C      -8.5030254855    -1.6967442891     0.7451614080
    2      C      -7.4917054922    -1.8608093165    -0.2574334942
    3      N      -8.5804962652    -0.6290629181     1.5456792207
    4      C      -6.5316730668    -0.8285205299    -0.3847386519
    5      C      -7.6690939636     0.3545057604     1.3535399506
    6      C      -6.5812011391     0.2959340718     0.4940735116
    7      C      -5.5907946888     1.3891972687     0.5128523705
    8      C      -4.2561592503     1.0445497726     0.4980419058
    9      C      -5.9034083879     2.7615386743     0.4731945642
   10      N      -3.2790551385     1.9123571068     0.2432322017
   11      N      -7.1728455026     3.2503645967     0.5335984493
   12      C      -4.9068888106     3.6698916411     0.2342937063
   13      C      -3.5281019389     3.2127923821     0.0582652154
   14      S      -7.0032570410     4.8568548785     0.4683012189
   15      N      -5.3795376619     5.0054804265     0.2011929557
   16      C      -2.4082430126     4.1262574991    -0.1015580167
   17      S      -2.4849844303     5.9206712509     0.1400264238
   18      C      -1.1527612452     3.7914892186    -0.5193363431
   19      C      -0.7378849740     5.9860680491    -0.1816376065
   20      S      -0.5376412252     2.1998606236    -1.0474232456
   21      C      -0.2529678096     4.7992506011    -0.5630372512
   22      C       0.0693995375     7.1640781761    -0.1317892553
   23      C       1.1084956102     2.9636907595    -1.1656900736
   24      C       1.0437032946     4.3326730036    -0.9179208841
   25      N      -0.5976733300     8.1933777635     0.3166359322
   26      S       1.4798852853     7.4800426970    -1.1078637283
   27      C       0.0152131668     9.3827469497    -0.0321764541
   28      C       1.2120125913     9.1867205284    -0.7708474091
   29      C      -9.6351238956    -2.7060231831     0.8319099171
   30      H      -7.4467067693    -2.7742153181    -0.8437769015
   31      H      -5.8154090054    -0.9219706023    -1.1953321865
   32      H      -7.8825123978     1.1950269055     2.0131199507
   33      H      -4.0075331089    -0.0153311390     0.4741778093
   34      H       1.9982422223     2.4011751220    -1.4172037389
   35      H       1.9387512309     4.9318948689    -1.0380805604
   36      H      -0.4046982925    10.3446319035     0.2323017154
   37      H       1.9406050169     9.8789539215    -1.1739565839
   38      H     -10.5696841992    -2.1522991789     0.9837017681
   39      C      -9.4168758060    -3.7664000261     1.9958071300
   40      H      -9.6053593740    -3.2694155299    -0.1088744030
   41      H     -10.1987189805    -4.5348719004     1.9691570096
   42      H      -9.4978631088    -3.2431849574     2.9568649059
   43      C      -8.0446427499    -4.4355284597     1.9060264021
   44      H      -7.8271067880    -4.8379099130     0.9093638357
   45      C      -7.9731977156    -5.6113634191     2.9713980534
   46      H      -7.2584499306    -3.7087187103     2.1455622851
   47      H      -8.9684742144    -6.0185887760     3.1863078009
   48      H      -7.5478977048    -5.2194844916     3.9029944289
   49      C      -7.1061804916    -6.8395330502     2.5333632482
   50      H      -7.4278930236    -7.6552778297     3.1921845454
   51      C      -5.5074701621    -6.6180691630     2.5109795726
   52      H      -7.4777857465    -7.2039900575     1.5677387744
   53      H      -5.0470270248    -6.2161978698     3.4217405627
   54      H      -5.3586235327    -5.8038016075     1.7902535296
   55      H      -4.9164755639    -7.4984669779     2.2311259103
   56      C      -1.5022509226    -2.2030631966    -2.0040182303
   57      C      -0.5474754207    -2.5849161965    -2.8942738270
   58      N      -1.1789984495    -1.7966720570    -0.7612808968
   59      C       0.7984319256    -2.3705295764    -2.5899059702
   60      C       0.0665030581    -1.6376385531    -0.3780416251
   61      C       1.0963728193    -1.9386128278    -1.2893087434
   62      C       2.5455956895    -1.7870768860    -0.8979828809
   63      C       3.5079387393    -2.7762978536    -1.2816529626
   64      C       3.0383792753    -0.7459996156    -0.1801281221
   65      N       4.8184451800    -2.7192794509    -0.8555968975
   66      N       2.3067250176     0.3165847704     0.2304768826
   67      C       4.3975976721    -0.6063389265     0.1341317095
   68      C       5.2412316670    -1.6425843949    -0.1868418282
   69      S       3.3375380669     1.3058111658     1.0582851914
   70      N       4.7825765607     0.5053648259     0.9117948900
   71      C       6.6984468524    -1.5484563343     0.1072088676
   72      S       7.6649299542    -0.1636725372     0.7508976505
   73      C       7.5685834971    -2.6038787231    -0.1715881924
   74      C       9.1399420055    -1.1724971285     0.6345086806
   75      S       7.2485753206    -4.1817069582    -0.8936926361
   76      C       8.8576037369    -2.4282153264     0.2085580854
   77      C      10.3570445689    -0.7598662732     1.1598144272
   78      C       8.8776912208    -4.6891022440    -0.3508110580
   79      C       9.6682929246    -3.6112108672    -0.0031860794
   80      N      10.3249664066    -0.1310288680     2.3261593630
   81      S      11.9135974758    -1.3121329754     0.5232380077
   82      C      11.6308569021    -0.0226068829     2.7942316723
   83      C      12.5765125316    -0.4705909022     1.8804916936
   84      C      -3.0673272536    -2.3050115001    -2.2385893744
   85      H      -0.8871854036    -2.9165630431    -3.8709971741
   86      H       1.5781006286    -2.5649147483    -3.3200758946
   87      H       0.2266187307    -1.2626853336     0.6318093810
   88      H       3.2183012860    -3.5998590461    -1.9322812036
   89      H       9.2223723939    -5.6922620974    -0.5662506029
   90      H      10.7028724016    -3.7038792378     0.3073616282
   91      H      11.7580012215     0.6703333461     3.6150161514
   92      H      13.6147428515    -0.2373190765     2.0750451779
   93      H      -3.5406049249    -1.3479089506    -1.9857377272
   94      C      -3.7489667902    -3.4240571919    -1.4968156343
   95      H      -3.1721146857    -2.4488801267    -3.3212737294
   96      H      -4.7925647899    -3.1125644174    -1.3681281583
   97      H      -3.3189503452    -3.5030057582    -0.4903912800
   98      C      -3.6030613519    -4.8101375095    -2.1559658117
   99      H      -3.7381833720    -4.8826616571    -3.2417771616
  100      C      -4.5412033444    -5.8201473008    -1.4903016146
  101      H      -2.5485216917    -5.0953132627    -2.0538683348
  102      H      -5.5190090170    -5.3228539348    -1.5080604082
  103      H      -4.1594584407    -6.1271495439    -0.5088448141
  104      C      -4.7758113021    -7.1324906532    -2.3651724803
  105      H      -5.0273598574    -6.7778492754    -3.3724250889
  106      C      -5.8762112455    -8.0743830793    -1.7494520711
  107      H      -3.8396839583    -7.7024677236    -2.4290531135
  108      H      -5.5216579139    -8.5731189617    -0.8397227407
  109      H      -6.3524480960    -8.6679829175    -2.5405062376
  110      H      -6.6665383589    -7.4492036421    -1.3166568251
 ----------------------------------------------------------------

   10   -5663.4996394399      4.51E-06 Convergence criterion met
 Total energy in the final basis set = -5663.4996394399

                    Orbital Energies (a.u.)
 --------------------------------------------------------------

 Alpha MOs
 -- Occupied --
-88.991 -88.986 -88.937 -88.928 -88.924 -88.919 -88.906 -88.902
-14.398 -14.387 -14.384 -14.378 -14.353 -14.346 -14.341 -14.339
-14.324 -14.323 -10.265 -10.260 -10.260 -10.259 -10.254 -10.253
-10.252 -10.249 -10.248 -10.238 -10.236 -10.235 -10.233 -10.233
-10.231 -10.230 -10.228 -10.227 -10.227 -10.226 -10.226 -10.226
-10.225 -10.224 -10.222 -10.219 -10.217 -10.217 -10.215 -10.214
-10.211 -10.210 -10.205 -10.204 -10.202 -10.200 -10.199 -10.194
-10.188 -10.183 -10.183 -10.183 -10.181 -10.180 -10.180 -10.178
-10.178 -10.176 -10.176 -10.176  -8.046  -8.041  -7.998  -7.989
 -7.982  -7.976  -7.965  -7.961  -6.011  -6.006  -6.005  -6.004
 -6.001  -5.999  -5.961  -5.958  -5.954  -5.953  -5.950  -5.946
 -5.946  -5.943  -5.941  -5.938  -5.937  -5.933  -5.930  -5.926
 -5.925  -5.922  -5.922  -5.917  -1.029  -1.027  -0.970  -0.970
 -0.957  -0.955  -0.947  -0.933  -0.912  -0.912  -0.902  -0.889
 -0.839  -0.834  -0.832  -0.831  -0.814  -0.809  -0.808  -0.806
 -0.803  -0.799  -0.798  -0.793  -0.784  -0.774  -0.768  -0.761
 -0.749  -0.741  -0.738  -0.732  -0.725  -0.721  -0.710  -0.703
 -0.694  -0.687  -0.673  -0.667  -0.658  -0.653  -0.647  -0.637
 -0.637  -0.634  -0.631  -0.620  -0.616  -0.612  -0.603  -0.601
 -0.595  -0.594  -0.581  -0.579  -0.578  -0.574  -0.572  -0.562
 -0.543  -0.539  -0.539  -0.538  -0.522  -0.521  -0.519  -0.512
 -0.512  -0.502  -0.495  -0.489  -0.487  -0.479  -0.478  -0.474
 -0.471  -0.469  -0.466  -0.465  -0.462  -0.453  -0.450  -0.446
 -0.442  -0.440  -0.439  -0.435  -0.435  -0.434  -0.432  -0.430
 -0.429  -0.427  -0.424  -0.419  -0.418  -0.415  -0.414  -0.412
 -0.409  -0.408  -0.406  -0.404  -0.402  -0.400  -0.395  -0.392
 -0.391  -0.389  -0.389  -0.388  -0.387  -0.387  -0.386  -0.383
 -0.381  -0.377  -0.373  -0.370  -0.370  -0.363  -0.357  -0.354
 -0.353  -0.351  -0.349  -0.347  -0.344  -0.342  -0.340  -0.338
 -0.336  -0.333  -0.331  -0.330  -0.330  -0.324  -0.320  -0.318
 -0.316  -0.314  -0.312  -0.308  -0.303  -0.300  -0.299  -0.297
 -0.295  -0.294  -0.292  -0.291  -0.290  -0.288  -0.283  -0.279
 -0.277  -0.270  -0.267  -0.260  -0.249  -0.249  -0.248  -0.245
 -0.244  -0.243  -0.236  -0.231  -0.195  -0.189

          Ground-State Mulliken Net Atomic Charges

     Atom                 Charge (a.u.)
  ----------------------------------------
      1 C                     0.279700
      2 C                    -0.120371
      3 N                    -0.484665
      4 C                    -0.083923
      5 C                     0.077796
      6 C                     0.033794
      7 C                     0.011151
      8 C                     0.048554
      9 C                     0.245037
     10 N                    -0.508790
     11 N                    -0.545609
     12 C                     0.165597
     13 C                     0.296660
     14 S                     0.615717
     15 N                    -0.555408
     16 C                    -0.216046
     17 S                     0.354508
     18 C                    -0.133009
     19 C                    -0.234379
     20 S                     0.283701
     21 C                     0.200717
     22 C                     0.061024
     23 C                    -0.298083
     24 C                    -0.096464
     25 N                    -0.427881
     26 S                     0.279450
     27 C                     0.117280
     28 C                    -0.324397
     29 C                    -0.229408
     30 H                     0.096374
     31 H                     0.103798
     32 H                     0.112785
     33 H                     0.125290
     34 H                     0.126204
     35 H                     0.110001
     36 H                     0.121608
     37 H                     0.137934
     38 H                     0.116935
     39 C                    -0.180005
     40 H                     0.092475
     41 H                     0.093442
     42 H                     0.114170
     43 C                    -0.179180
     44 H                     0.086592
     45 C                    -0.184539
     46 H                     0.108437
     47 H                     0.090578
     48 H                     0.099056
     49 C                    -0.188161
     50 H                     0.089163
     51 C                    -0.331883
     52 H                     0.093439
     53 H                     0.104814
     54 H                     0.114398
     55 H                     0.103178
     56 C                     0.264075
     57 C                    -0.119279
     58 N                    -0.473717
     59 C                    -0.073864
     60 C                     0.121843
     61 C                     0.009328
     62 C                     0.012715
     63 C                     0.061773
     64 C                     0.251159
     65 N                    -0.545557
     66 N                    -0.566419
     67 C                     0.175328
     68 C                     0.319519
     69 S                     0.617802
     70 N                    -0.544253
     71 C                    -0.227400
     72 S                     0.352422
     73 C                    -0.128128
     74 C                    -0.227056
     75 S                     0.279228
     76 C                     0.184202
     77 C                     0.021495
     78 C                    -0.303643
     79 C                    -0.084415
     80 N                    -0.398737
     81 S                     0.282029
     82 C                     0.098499
     83 C                    -0.290709
     84 C                    -0.217790
     85 H                     0.088055
     86 H                     0.105122
     87 H                     0.125465
     88 H                     0.117674
     89 H                     0.126249
     90 H                     0.112374
     91 H                     0.119558
     92 H                     0.128908
     93 H                     0.114269
     94 C                    -0.173329
     95 H                     0.086846
     96 H                     0.085222
     97 H                     0.120246
     98 C                    -0.184324
     99 H                     0.083410
    100 C                    -0.173383
    101 H                     0.095242
    102 H                     0.091508
    103 H                     0.104570
    104 C                    -0.189879
    105 H                     0.090199
    106 C                    -0.326448
    107 H                     0.095053
    108 H                     0.110692
    109 H                     0.105671
    110 H                     0.101428
  ----------------------------------------
  Sum of atomic charges =     0.000000

                    Cartesian Multipole Moments
 -----------------------------------------------------------------
    Charge (ESU x 10^10)
                 0.0000
    Dipole Moment (Debye)
         X       5.1787      Y      -0.7696      Z      -3.2734
       Tot       6.1747
    Quadrupole Moments (Debye-Ang)
        XX    -398.8850     XY      11.8837     YY    -412.8185
        XZ       9.9188     YZ       3.2321     ZZ    -443.8068

 Total job time:  93.47s(wall), 1124.07s(cpu)
        *  Thank you very much for using Q-Chem.  Have a nice day.  *
