 Q-Chem 4.4, Q-Chem, Inc., Pleasanton, CA (2016)
 Q-Chem 4.4.2 for Intel X86 Linux

User input:
--------------------------------------------------------------
$comment
SP
$end

$rem
MEM_STATIC 5000
MEM_TOTAL 20000
JOBTYPE SP
EXCHANGE B3LYP
BASIS 6-31g(d,p)
$end

$molecule
0 1
C          15.532000    -24.923000    -11.151000
C          15.703000    -23.914000    -10.166000
N          14.803000    -26.001000    -10.848000
C          15.246000    -24.082000     -8.848000
C          14.333000    -26.134000     -9.572000
C          14.514000    -25.217000     -8.470000
C          13.851000    -25.355000     -7.166000
C          12.531000    -25.944000     -7.053000
C          14.396000    -24.897000     -5.929000
N          11.965000    -26.220000     -5.841000
N          15.605000    -24.206000     -5.859000
C          13.781000    -25.090000     -4.730000
C          12.546000    -25.770000     -4.696000
S          15.731000    -23.821000     -4.298000
N          14.368000    -24.515000     -3.623000
C          11.740000    -25.948000     -3.503000
S          12.289000    -26.030000     -1.750000
C          10.401000    -26.176000     -3.515000
C          10.708000    -26.256000     -1.136000
S           9.264000    -26.292000     -4.804000
C           9.942000    -26.503000     -2.232000
C          10.348000    -26.485000      0.280000
C           8.074000    -26.750000     -3.556000
C           8.546000    -26.821000     -2.282000
N           9.437000    -27.390000      0.516000
S          11.120000    -25.779000      1.662000
C           9.279000    -27.590000      1.860000
C           9.952000    -26.640000      2.625000
C          15.828000    -24.710000    -12.633000
H          16.229000    -22.991000    -10.393000
H          15.423000    -23.283000     -8.133000
H          13.723000    -27.035000     -9.530000
H          12.021000    -26.335000     -7.932000
H           7.020000    -26.851000     -3.779000
H           7.917000    -27.060000     -1.433000
H           8.540000    -28.276000      2.252000
H           9.946000    -26.355000      3.669000
H          16.887000    -24.480000    -12.805000
C          15.171000    -23.473000    -13.262000
H          15.600000    -25.612000    -13.214000
H          15.579000    -23.379000    -14.276000
H          15.590000    -22.608000    -12.735000
C          13.633000    -23.518000    -13.283000
H          13.240000    -23.587000    -12.262000
C          13.098000    -24.678000    -14.110000
H          13.249000    -22.546000    -13.616000
H          12.009000    -24.559000    -14.177000
H          13.257000    -25.652000    -13.631000
C          13.609000    -24.859000    -15.565000
H          13.294000    -23.967000    -16.121000
C          13.007000    -26.099000    -16.254000
H          14.701000    -24.882000    -15.665000
H          11.920000    -25.953000    -16.223000
H          13.188000    -26.980000    -15.625000
H          13.317000    -26.181000    -17.303000
C          19.430000    -26.616000    -12.492000
C          18.883000    -27.831000    -12.219000
N          19.355000    -25.600000    -11.611000
C          18.407000    -28.095000    -10.933000
C          18.857000    -25.753000    -10.406000
C          18.352000    -27.015000    -10.040000
C          17.756000    -27.244000     -8.673000
C          16.562000    -28.021000     -8.523000
C          18.278000    -26.754000     -7.520000
N          15.937000    -28.165000     -7.302000
N          19.428000    -26.044000     -7.440000
C          17.729000    -27.017000     -6.257000
C          16.532000    -27.690000     -6.204000
S          19.643000    -25.675000     -5.845000
N          18.346000    -26.426000     -5.135000
C          15.905000    -28.013000     -4.892000
S          16.534000    -27.772000     -3.215000
C          14.670000    -28.659000     -4.813000
C          15.036000    -28.515000     -2.574000
S          13.607000    -29.242000     -6.095000
C          14.168000    -28.832000     -3.566000
C          14.738000    -28.518000     -1.218000
C          12.325000    -29.429000     -4.859000
C          12.833000    -29.397000     -3.575000
N          15.030000    -27.419000     -0.537000
S          13.720000    -29.753000     -0.462000
C          14.442000    -27.521000      0.720000
C          13.847000    -28.756000      0.945000
C          20.084000    -26.195000    -13.874000
H          18.969000    -28.595000    -12.986000
H          18.063000    -29.086000    -10.653000
H          18.880000    -24.884000     -9.750000
H          16.124000    -28.525000     -9.383000
H          11.352000    -29.801000     -5.153000
H          12.226000    -29.539000     -2.688000
H          14.799000    -26.800000      1.443000
H          13.548000    -28.994000      1.957000
H          21.065000    -25.738000    -13.693000
C          19.242000    -25.279000    -14.722000
H          20.254000    -27.145000    -14.396000
H          19.942000    -24.725000    -15.359000
H          18.753000    -24.539000    -14.076000
C          18.126000    -25.988000    -15.515000
H          18.372000    -26.926000    -16.027000
C          17.509000    -25.033000    -16.540000
H          17.391000    -26.335000    -14.778000
H          18.375000    -24.633000    -17.082000
H          16.849000    -24.304000    -16.054000
C          16.674000    -25.781000    -17.674000
H          17.324000    -26.585000    -18.041000
C          16.199000    -24.803000    -18.812000
H          15.782000    -26.241000    -17.229000
H          15.401000    -24.135000    -18.467000
H          16.075000    -25.351000    -19.755000
H          16.990000    -24.064000    -18.988000
$end

--------------------------------------------------------------

             Standard Nuclear Orientation (Angstroms)
    I     Atom           X                Y                Z
 ----------------------------------------------------------------
    1      C      -4.6347123210     0.9045938704    -0.8066920633
    2      C      -3.9001700187     0.6189638562    -1.9883900370
    3      N      -3.9686747822     1.2712615385     0.2920721598
    4      C      -2.4957299847     0.5776280830    -1.9944352758
    5      C      -2.6027553369     1.2624664202     0.2612222837
    6      C      -1.7522958473     0.9114960579    -0.8530453956
    7      C      -0.2916281077     1.0710716411    -0.8568385236
    8      C       0.3490724173     2.1410845282    -0.1174703753
    9      C       0.6097636954     0.2505144521    -1.5992243511
   10      N       1.7063978014     2.2143929520     0.0158325753
   11      N       0.1660558087    -0.7570366111    -2.4548096282
   12      C       1.9625280970     0.3894428285    -1.5375609095
   13      C       2.5106377969     1.3891157715    -0.7074941869
   14      S       1.5247601964    -1.3102570387    -3.1246540468
   15      N       2.7146172961    -0.4047797431    -2.3767363044
   16      C       3.9235278154     1.7095632603    -0.6324995027
   17      S       5.3661682257     0.6119778302    -0.9410912560
   18      C       4.4122904086     2.9078566013    -0.2198820087
   19      C       6.5211349998     1.8295177147    -0.6075026168
   20      S       3.6313501423     4.3590854069     0.2819279695
   21      C       5.8037368009     2.8490962212    -0.0645657021
   22      C       7.9894669114     1.6545887972    -0.5851806253
   23      C       5.2639957226     4.9625619490     0.6739132657
   24      C       6.2879983643     4.0951539377     0.4504788644
   25      N       8.6371763237     2.2449649326     0.3825851191
   26      S       8.9159495826     0.6245417663    -1.6268029052
   27      C       9.9639116850     1.9123868366     0.3610191459
   28      C      10.3239335274     1.2230869108    -0.7947939382
   29      C      -6.1397993095     1.1572331146    -0.7927074517
   30      H      -4.4056619567     0.3852052599    -2.9211112275
   31      H      -1.9890748885     0.3342598781    -2.9245038380
   32      H      -2.2418808314     1.6387414965     1.2171781709
   33      H      -0.2403541066     2.8250048537     0.4911767814
   34      H       5.4412688695     5.9908941416     0.9601878420
   35      H       7.3263235908     4.3527362209     0.6210516975
   36      H      10.6697734471     2.3349352041     1.0635809224
   37      H      11.2612732721     0.9418992648    -1.2568812791
   38      H      -6.7006568990     0.2785425392    -1.1352080166
   39      C      -6.6375948655     2.2099444062    -1.7934359468
   40      H      -6.4919143154     1.3839872339     0.2210709226
   41      H      -7.7338581027     2.1827604978    -1.7623884045
   42      H      -6.3986898372     1.8170638557    -2.7884657255
   43      C      -6.1085098453     3.6306120519    -1.5294615506
   44      H      -5.0140017072     3.6464629848    -1.5882125818
   45      C      -6.5500097573     4.1719841530    -0.1775192161
   46      H      -6.3967294676     4.2826869102    -2.3630422776
   47      H      -6.2415850152     5.2241353605    -0.1282950851
   48      H      -6.0465829711     3.6798210032     0.6637506009
   49      C      -8.0594416721     4.1407716952     0.1851763544
   50      H      -8.5695393105     4.7865796798    -0.5406042229
   51      C      -8.3397545552     4.6834641808     1.5999677007
   52      H      -8.5352505829     3.1590813701     0.0716731122
   53      H      -7.9442765644     5.7068974374     1.6052144376
   54      H      -7.7158765064     4.1398168706     2.3209301008
   55      H      -9.4130938218     4.7243596526     1.8224432702
   56      C      -7.0561126318    -2.5888313275     0.5318649663
   57      C      -6.4660204219    -2.4071537264     1.7437838716
   58      N      -6.3320214443    -2.6115321586    -0.6035726694
   59      C      -5.0732268774    -2.4389954719     1.8395974700
   60      C      -5.0197409016    -2.5750492937    -0.5983979377
   61      C      -4.3526234867    -2.4717523063     0.6368789896
   62      C      -2.8464052315    -2.4123621730     0.7011081092
   63      C      -2.1936657202    -1.5073404174     1.5992905808
   64      C      -2.0186255668    -3.1779579965    -0.0542969885
   65      N      -0.8227400209    -1.3568948051     1.6107293219
   66      N      -2.4344570779    -4.1305417631    -0.9218615808
   67      C      -0.6215099775    -3.1345583734     0.0548978054
   68      C      -0.0700166798    -2.1748993869     0.8694263636
   69      S      -1.0737458933    -4.7803029592    -1.5946813636
   70      N       0.1320132898    -3.9583463871    -0.8067459690
   71      C       1.4072123423    -2.0869992213     1.0393380382
   72      S       2.7129088772    -3.1712577429     0.4183782832
   73      C       1.9930681433    -1.0954881055     1.8282998165
   74      C       3.9246855425    -2.1392587134     1.2390544169
   75      S       1.2476495562     0.1947371196     2.7733141013
   76      C       3.3481022231    -1.0729232191     1.8460612450
   77      C       5.2887384596    -2.3082010453     1.0431791305
   78      C       2.8696435307     0.9396164135     2.9164203002
   79      C       3.8780438536     0.0555474540     2.5858225635
   80      N       5.6877818532    -2.5888111555    -0.1892365202
   81      S       6.4958105154    -1.8529071623     2.2551071533
   82      C       7.0740869102    -2.4762553755    -0.2303033593
   83      C       7.6389498814    -2.2383325290     1.0163712345
   84      C      -8.6194184543    -2.6598412605     0.2751287302
   85      H      -7.1179664473    -2.3832419824     2.6119863874
   86      H      -4.5748025506    -2.4040653610     2.8035321555
   87      H      -4.5217130231    -2.6431349910    -1.5645027819
   88      H      -2.7775433856    -0.9180760604     2.3044957916
   89      H       2.9844254755     1.8638955681     3.4678567421
   90      H       4.9324060824     0.2990897976     2.6520752420
   91      H       7.5337997669    -2.9038013374    -1.1111481470
   92      H       8.7118654511    -2.3391421070     1.1105976074
   93      H      -8.8519365448    -3.5380909497    -0.3401629252
   94      C      -9.2171930452    -1.4263673081    -0.3480338065
   95      H      -9.0516916275    -2.8297917734     1.2691814083
   96      H     -10.1210593164    -1.7581419377    -0.8730446245
   97      H      -8.5323569975    -1.0425672293    -1.1146719788
   98      C      -9.4751899713    -0.2715862769     0.6403509141
   99      H      -9.9264451420    -0.5127835361     1.6102460904
  100      C     -10.3213119086     0.8192779458    -0.0210354441
  101      H      -8.4906073755     0.0998300348     0.9509149742
  102      H     -11.1774573836     0.2730980551    -0.4362732708
  103      H      -9.7232634270     1.4114961887    -0.7244930238
  104      C     -10.9904234964     1.8182748370     1.0263326357
  105      H     -11.4656423152     1.1818453630     1.7831216412
  106      C     -11.9942899100     2.8192480866     0.3426237962
  107      H     -10.2080277513     2.4086639893     1.5208895555
  108      H     -11.4711462101     3.5734771331    -0.2569695781
  109      H     -12.7609107306     3.1367659012     1.0612363168
  110      H     -12.5243207739     2.2881271103    -0.4572235592
 ----------------------------------------------------------------

   10   -5663.4945211588      5.19E-06 Convergence criterion met
 Total energy in the final basis set = -5663.4945211588

                    Orbital Energies (a.u.)
 --------------------------------------------------------------

 Alpha MOs
 -- Occupied --
-88.986 -88.983 -88.933 -88.930 -88.921 -88.912 -88.904 -88.899
-14.392 -14.386 -14.382 -14.379 -14.347 -14.345 -14.345 -14.342
-14.327 -14.318 -10.272 -10.260 -10.254 -10.253 -10.251 -10.247
-10.247 -10.246 -10.241 -10.239 -10.237 -10.235 -10.234 -10.232
-10.230 -10.230 -10.228 -10.228 -10.227 -10.226 -10.224 -10.221
-10.221 -10.219 -10.219 -10.217 -10.215 -10.215 -10.211 -10.209
-10.209 -10.205 -10.198 -10.197 -10.196 -10.195 -10.193 -10.183
-10.183 -10.179 -10.178 -10.178 -10.177 -10.176 -10.173 -10.173
-10.173 -10.173 -10.171 -10.170  -8.041  -8.038  -7.993  -7.991
 -7.978  -7.971  -7.963  -7.958  -6.006  -6.003  -6.000  -5.999
 -5.997  -5.996  -5.957  -5.955  -5.954  -5.952  -5.950  -5.948
 -5.942  -5.939  -5.935  -5.934  -5.931  -5.928  -5.927  -5.924
 -5.923  -5.919  -5.919  -5.914  -1.026  -1.022  -0.979  -0.966
 -0.952  -0.945  -0.941  -0.932  -0.908  -0.907  -0.896  -0.893
 -0.838  -0.833  -0.829  -0.827  -0.812  -0.810  -0.805  -0.804
 -0.803  -0.799  -0.794  -0.792  -0.780  -0.775  -0.763  -0.761
 -0.746  -0.745  -0.734  -0.733  -0.719  -0.715  -0.707  -0.705
 -0.690  -0.689  -0.668  -0.666  -0.652  -0.650  -0.642  -0.638
 -0.632  -0.631  -0.625  -0.619  -0.611  -0.609  -0.600  -0.597
 -0.592  -0.588  -0.582  -0.576  -0.573  -0.570  -0.570  -0.552
 -0.548  -0.537  -0.534  -0.529  -0.521  -0.517  -0.513  -0.511
 -0.506  -0.499  -0.494  -0.489  -0.482  -0.481  -0.477  -0.471
 -0.469  -0.466  -0.463  -0.462  -0.460  -0.458  -0.446  -0.444
 -0.442  -0.437  -0.435  -0.434  -0.431  -0.430  -0.430  -0.427
 -0.424  -0.422  -0.419  -0.418  -0.417  -0.414  -0.413  -0.410
 -0.408  -0.405  -0.402  -0.400  -0.397  -0.397  -0.395  -0.392
 -0.389  -0.389  -0.386  -0.384  -0.383  -0.382  -0.381  -0.379
 -0.377  -0.376  -0.372  -0.369  -0.366  -0.362  -0.353  -0.351
 -0.350  -0.348  -0.345  -0.344  -0.342  -0.341  -0.337  -0.336
 -0.334  -0.331  -0.326  -0.326  -0.324  -0.322  -0.317  -0.316
 -0.314  -0.311  -0.310  -0.305  -0.303  -0.301  -0.298  -0.296
 -0.294  -0.291  -0.291  -0.286  -0.286  -0.284  -0.283  -0.278
 -0.272  -0.267  -0.264  -0.259  -0.253  -0.250  -0.244  -0.242
 -0.239  -0.236  -0.230  -0.223  -0.190  -0.188

          Ground-State Mulliken Net Atomic Charges

     Atom                 Charge (a.u.)
  ----------------------------------------
      1 C                     0.291344
      2 C                    -0.129459
      3 N                    -0.482837
      4 C                    -0.072437
      5 C                     0.042866
      6 C                     0.043630
      7 C                     0.043083
      8 C                     0.061346
      9 C                     0.208286
     10 N                    -0.519972
     11 N                    -0.550037
     12 C                     0.231275
     13 C                     0.275519
     14 S                     0.619406
     15 N                    -0.556554
     16 C                    -0.226529
     17 S                     0.319010
     18 C                    -0.064477
     19 C                    -0.207629
     20 S                     0.276061
     21 C                     0.091172
     22 C                     0.061248
     23 C                    -0.315660
     24 C                    -0.040943
     25 N                    -0.415250
     26 S                     0.272117
     27 C                     0.114090
     28 C                    -0.310410
     29 C                    -0.244930
     30 H                     0.090245
     31 H                     0.115021
     32 H                     0.108041
     33 H                     0.117530
     34 H                     0.112475
     35 H                     0.117486
     36 H                     0.117150
     37 H                     0.137325
     38 H                     0.120075
     39 C                    -0.190677
     40 H                     0.120089
     41 H                     0.100768
     42 H                     0.086098
     43 C                    -0.175372
     44 H                     0.101111
     45 C                    -0.178086
     46 H                     0.086037
     47 H                     0.085653
     48 H                     0.108666
     49 C                    -0.187957
     50 H                     0.088059
     51 C                    -0.318492
     52 H                     0.098959
     53 H                     0.098798
     54 H                     0.104762
     55 H                     0.107375
     56 C                     0.257349
     57 C                    -0.116197
     58 N                    -0.479564
     59 C                    -0.070811
     60 C                     0.116395
     61 C                     0.022102
     62 C                     0.016484
     63 C                     0.061353
     64 C                     0.253611
     65 N                    -0.549079
     66 N                    -0.560590
     67 C                     0.189851
     68 C                     0.318113
     69 S                     0.606768
     70 N                    -0.556931
     71 C                    -0.238199
     72 S                     0.343526
     73 C                    -0.131683
     74 C                    -0.228475
     75 S                     0.273817
     76 C                     0.183442
     77 C                     0.026720
     78 C                    -0.285622
     79 C                    -0.089359
     80 N                    -0.393366
     81 S                     0.285019
     82 C                     0.093953
     83 C                    -0.283630
     84 C                    -0.208213
     85 H                     0.085999
     86 H                     0.104467
     87 H                     0.117875
     88 H                     0.125458
     89 H                     0.130072
     90 H                     0.120291
     91 H                     0.117365
     92 H                     0.127246
     93 H                     0.110846
     94 C                    -0.171638
     95 H                     0.085240
     96 H                     0.088696
     97 H                     0.117276
     98 C                    -0.187350
     99 H                     0.083933
    100 C                    -0.177476
    101 H                     0.099643
    102 H                     0.094790
    103 H                     0.099109
    104 C                    -0.194888
    105 H                     0.088741
    106 C                    -0.326532
    107 H                     0.104586
    108 H                     0.109667
    109 H                     0.105446
    110 H                     0.099884
  ----------------------------------------
  Sum of atomic charges =     0.000000

                    Cartesian Multipole Moments
 -----------------------------------------------------------------
    Charge (ESU x 10^10)
                 0.0000
    Dipole Moment (Debye)
         X       3.6103      Y      -0.1747      Z       0.0562
       Tot       3.6150
    Quadrupole Moments (Debye-Ang)
        XX    -377.7523     XY      -1.4315     YY    -445.7614
        XZ      -2.4242     YZ       2.1616     ZZ    -436.9784

 Total job time:  120.70s(wall), 1448.03s(cpu)
        *  Thank you very much for using Q-Chem.  Have a nice day.  *
