 Q-Chem 4.4, Q-Chem, Inc., Pleasanton, CA (2016)
 Q-Chem 4.4.2 for Intel X86 Linux

User input:
--------------------------------------------------------------
$comment
SP
$end

$rem
MEM_STATIC 5000
MEM_TOTAL 20000
JOBTYPE SP
EXCHANGE B3LYP
BASIS 6-31g(d,p)
$end

$molecule
0 1
C         -16.969000     14.748000      4.105000
C         -16.592000     13.799000      3.162000
N         -16.559000     16.015000      4.143000
C         -15.487000     14.180000      2.310000
C         -15.642000     16.421000      3.288000
C         -15.054000     15.561000      2.345000
C         -13.950000     15.987000      1.407000
C         -12.699000     16.278000      1.985000
C         -14.063000     16.049000     -0.004000
N         -11.550000     16.497000      1.259000
N         -15.143000     15.770000     -0.755000
C         -12.906000     16.437000     -0.733000
C         -11.649000     16.636000     -0.092000
S         -14.694000     16.102000     -2.268000
N         -13.140000     16.388000     -2.036000
C         -10.434000     16.965000     -0.876000
S         -10.440000     17.463000     -2.529000
C          -9.158000     17.006000     -0.365000
C          -8.773000     17.981000     -2.498000
S          -8.597000     16.811000      1.222000
C          -8.272000     17.681000     -1.235000
C          -7.964000     18.443000     -3.600000
C          -6.946000     17.172000      0.647000
C          -6.949000     17.799000     -0.634000
N          -6.664000     18.615000     -3.535000
S          -8.696000     18.872000     -5.171000
C          -6.193000     19.066000     -4.726000
C          -7.081000     19.143000     -5.747000
C         -18.020000     14.475000      5.125000
H         -17.055000     12.818000      3.112000
H         -15.141000     13.494000      1.542000
H         -15.319000     17.461000      3.322000
H         -12.576000     16.217000      3.065000
H          -6.136000     16.999000      1.344000
H          -6.052000     18.170000     -1.116000
H          -5.157000     19.377000     -4.683000
H          -6.878000     19.463000     -6.760000
H         -18.704000     15.328000      5.205000
C         -17.511000     13.937000      6.415000
H         -18.710000     13.789000      4.618000
H         -16.615000     14.465000      6.763000
H         -17.176000     12.895000      6.347000
C         -18.551000     14.052000      7.541000
H         -18.406000     15.046000      7.983000
C         -18.337000     12.991000      8.624000
H         -19.571000     13.981000      7.142000
H         -17.281000     12.890000      8.904000
H         -18.596000     12.000000      8.232000
C         -19.275000     13.354000      9.782000
H         -19.226000     12.582000     10.561000
C         -20.744000     13.447000      9.273000
H         -18.982000     14.260000     10.326000
H         -20.975000     14.463000      8.929000
H         -21.467000     13.276000     10.080000
H         -20.952000     12.722000      8.477000
C         -13.609000     24.757000     16.659000
C         -14.643000     24.627000     15.733000
N         -12.291000     24.738000     16.400000
C         -14.285000     24.400000     14.403000
C         -11.939000     24.443000     15.108000
C         -12.877000     24.362000     14.051000
C         -12.413000     24.026000     12.675000
C         -13.165000     23.117000     11.877000
C         -11.180000     24.488000     12.062000
N         -12.713000     22.563000     10.687000
N         -10.241000     25.392000     12.545000
C         -10.859000     24.050000     10.763000
C         -11.582000     23.063000     10.108000
S          -9.018000     25.433000     11.529000
N          -9.628000     24.505000     10.370000
C         -11.143000     22.348000      8.976000
S         -11.306000     20.590000      8.768000
C         -10.612000     22.906000      7.835000
C         -10.644000     20.667000      7.117000
S         -10.469000     24.596000      7.396000
C         -10.316000     22.020000      6.847000
C         -10.343000     19.505000      6.333000
C          -9.908000     24.001000      5.745000
C          -9.851000     22.624000      5.687000
N         -10.305000     19.621000      5.003000
S         -10.155000     17.883000      6.892000
C          -9.919000     18.507000      4.367000
C          -9.564000     17.548000      5.294000
C         -13.925000     25.008000     18.187000
H         -15.672000     24.700000     16.074000
H         -14.985000     24.457000     13.575000
H         -10.876000     24.265000     14.957000
H         -14.117000     22.763000     12.270000
H          -9.558000     24.671000      4.970000
H          -9.550000     22.095000      4.790000
H          -9.793000     18.417000      3.296000
H          -9.170000     16.556000      5.115000
H         -14.996000     24.837000     18.355000
C         -13.510000     26.431000     18.683000
H         -13.425000     24.228000     18.774000
H         -13.753000     27.091000     17.841000
H         -12.418000     26.504000     18.757000
C         -14.212000     26.947000     19.988000
H         -15.289000     26.781000     19.863000
C         -14.015000     28.432000     20.170000
H         -13.931000     26.360000     20.871000
H         -14.093000     28.948000     19.206000
H         -12.985000     28.577000     20.519000
C         -15.080000     29.151000     21.128000
H         -15.138000     30.240000     21.006000
C         -14.675000     28.857000     22.589000
H         -16.076000     28.692000     21.135000
H         -14.663000     27.768000     22.718000
H         -15.490000     29.219000     23.227000
H         -13.774000     29.369000     22.952000
$end

--------------------------------------------------------------

             Standard Nuclear Orientation (Angstroms)
    I     Atom           X                Y                Z
 ----------------------------------------------------------------
    1      C      -3.6669198856    -6.3691203990     0.4936997175
    2      C      -4.9676783065    -6.4616781202     0.0126180210
    3      N      -3.1188298331    -5.2936136923     1.0573623987
    4      C      -5.6807496530    -5.2070637171    -0.0851672237
    5      C      -3.8025826392    -4.1676683351     1.0958221531
    6      C      -5.0875109663    -4.0441435779     0.5405800180
    7      C      -5.8571327091    -2.7453869589     0.5081822145
    8      C      -5.3533919353    -1.7262129721    -0.3232596761
    9      C      -7.0730828010    -2.5054643296     1.1947945549
   10      N      -6.0308049108    -0.5618466891    -0.6071625110
   11      N      -7.7445552006    -3.3505280589     1.9968133266
   12      C      -7.6793698335    -1.2318584079     1.0187889005
   13      C      -7.1608790159    -0.2767717190     0.0971014867
   14      S      -8.9945714524    -2.4941870901     2.5492022433
   15      N      -8.8347660751    -1.1743419381     1.6643254064
   16      C      -7.8486563900     1.0168908226    -0.1320742365
   17      S      -9.0992453773     1.6529966455     0.8738311104
   18      C      -7.5178214409     1.9174073727    -1.1172626344
   19      C      -9.0284080726     3.2415313621     0.1529195135
   20      S      -6.2538912556     1.9049750078    -2.2458196436
   21      C      -8.0925918359     3.1857252123    -0.8753332009
   22      C      -9.8952384864     4.3690719944     0.3970222710
   23      C      -6.7900588924     3.5101983808    -2.8137361761
   24      C      -7.6528534943     4.1506008212    -1.8758826751
   25      N      -9.9061694237     5.4588597591    -0.3351335476
   26      S     -11.0224668918     4.3887367108     1.7815349726
   27      C     -10.8194321782     6.3382776964     0.1509716188
   28      C     -11.5952890846     5.9119313791     1.1772215292
   29      C      -2.7625966889    -7.5511837438     0.5604515323
   30      H      -5.3941522326    -7.4020215851    -0.3236915958
   31      H      -6.7060575281    -5.1998226553    -0.4440924643
   32      H      -3.3486821623    -3.2958338200     1.5658901645
   33      H      -4.4327381763    -1.8900164732    -0.8807675856
   34      H      -6.3363335677     3.8847986590    -3.7223868028
   35      H      -8.0178376025     5.1635201732    -1.9997979168
   36      H     -10.7591104634     7.3140253742    -0.3139410181
   37      H     -12.3781558145     6.4695285214     1.6731883729
   38      H      -2.2382286690    -7.5758627109     1.5228932854
   39      C      -1.9088197104    -7.7506949110    -0.6411661961
   40      H      -3.4401922914    -8.3934026154     0.7482721167
   41      H      -1.4655220363    -6.8134283859    -0.9985492302
   42      H      -2.4671591005    -8.1112231284    -1.5134560161
   43      C      -0.7398992104    -8.7107529222    -0.3680096846
   44      H       0.0766611695    -8.0871807795     0.0177518076
   45      C      -0.2686481044    -9.4116352076    -1.6451519699
   46      H      -1.0128152487    -9.4557235016     0.3903950041
   47      H      -0.1816774569    -8.7189168875    -2.4915055813
   48      H      -1.0266795545   -10.1312223491    -1.9774299658
   49      C       1.0269947786   -10.1495001482    -1.2853716911
   50      H       1.3737526093   -10.7396138124    -2.1437136220
   51      C       0.7786569389   -11.1174564385    -0.0907671802
   52      H       1.8789702976    -9.4864809706    -1.0925912845
   53      H       0.9471990624   -10.6083609235     0.8665041028
   54      H       1.5019311856   -11.9420127799    -0.0766178391
   55      H      -0.2271019504   -11.5537732208    -0.1148860945
   56      C      11.5565374735    -0.2909215021    -0.1182162963
   57      C      10.7900217543    -0.9744304175     0.8245462479
   58      N      11.1707979630     0.7632723518    -0.8560823738
   59      C       9.4659878594    -0.5644739521     0.9902657144
   60      C       9.8512046213     1.1195979507    -0.7470022190
   61      C       8.9790472038     0.5664049336     0.2209713988
   62      C       7.5540905651     1.0011338221     0.2665495867
   63      C       6.5258286611     0.0356891411     0.4644966110
   64      C       7.0752936451     2.3542328088     0.0443365322
   65      N       5.1714257402     0.2908915201     0.2978098577
   66      N       7.8001340667     3.5248714243    -0.1465498088
   67      C       5.6897255413     2.6014626415     0.0812748507
   68      C       4.7510472549     1.5816973928     0.1511669986
   69      S       6.7776836583     4.6975850301    -0.4767072884
   70      N       5.4038807089     3.9036972197    -0.2338645393
   71      C       3.3785665315     1.7173988229    -0.1373668567
   72      S       2.4346556214     0.5687700805    -1.1120879481
   73      C       2.5504131090     2.6975522734     0.3612984843
   74      C       0.9253860481     1.4624145928    -0.8063448523
   75      S       2.8906027401     3.9221661480     1.5670604314
   76      C       1.2464642405     2.5901845200    -0.0087630159
   77      C      -0.3195131209     1.1497229943    -1.4450552900
   78      C       1.0956014778     4.3307229303     1.4922351417
   79      C       0.4290793676     3.5514161957     0.5696456934
   80      N      -1.4563193724     1.5218070577    -0.8508962236
   81      S      -0.5597070874     0.1960646870    -2.8633471116
   82      C      -2.5577379285     1.2731999219    -1.5717010906
   83      C      -2.1959708012     0.7744689970    -2.8067828734
   84      C      13.0627402609    -0.6946303754    -0.3751468486
   85      H      11.2404240425    -1.7906402069     1.3825698661
   86      H       8.8321418532    -0.8980547347     1.8062290114
   87      H       9.5197316151     1.8593250785    -1.4732139116
   88      H       6.8252326321    -0.9909409287     0.6705474834
   89      H       0.6628837781     5.1647239935     2.0300293578
   90      H      -0.6366554897     3.6457199281     0.3953843380
   91      H      -3.5648481553     1.5349062090    -1.2746222956
   92      H      -2.8375866183     0.5123369165    -3.6380210556
   93      H      13.2560001368    -1.6556145996     0.1184784559
   94      C      14.0868831669     0.3854584615     0.1020422255
   95      H      13.1848278781    -0.9037394853    -1.4448837293
   96      H      13.6561605934     0.7715144195     1.0342717369
   97      H      14.0633795467     1.2535605781    -0.5681184232
   98      C      15.5547007591    -0.1084314594     0.3543699136
   99      H      15.4900381652    -1.0109511651     0.9743593730
  100      C      16.3510330914     0.9061060772     1.1377768343
  101      H      16.0499463499    -0.4294274835    -0.5702447939
  102      H      15.7297003493     1.3566159195     1.9204788885
  103      H      16.6110334091     1.7138781489     0.4423416360
  104      C      17.6401306456     0.3275212435     1.8943593387
  105      H      18.0192675959     0.9683081935     2.7004711533
  106      C      18.7655320771     0.1610202790     0.8499786385
  107      H      17.5544520571    -0.7174843206     2.2158691369
  108      H      18.3977495768    -0.5165436515     0.0700112337
  109      H      19.5841785664    -0.3763881395     1.3432565695
  110      H      19.2145533941     1.0893524418     0.4727608601
 ----------------------------------------------------------------

   10   -5663.5137383851      3.56E-06 Convergence criterion met
 Total energy in the final basis set = -5663.5137383851

                    Orbital Energies (a.u.)
 --------------------------------------------------------------

 Alpha MOs
 -- Occupied --
-88.992 -88.991 -88.928 -88.926 -88.923 -88.920 -88.913 -88.904
-14.385 -14.382 -14.374 -14.374 -14.358 -14.348 -14.344 -14.332
-14.331 -14.323 -10.274 -10.271 -10.262 -10.261 -10.259 -10.257
-10.252 -10.251 -10.245 -10.243 -10.243 -10.241 -10.239 -10.231
-10.231 -10.231 -10.230 -10.229 -10.229 -10.228 -10.228 -10.226
-10.224 -10.223 -10.222 -10.221 -10.221 -10.221 -10.220 -10.220
-10.219 -10.216 -10.215 -10.208 -10.204 -10.204 -10.200 -10.189
-10.185 -10.180 -10.179 -10.178 -10.177 -10.176 -10.175 -10.173
-10.173 -10.171 -10.170 -10.167  -8.049  -8.047  -7.988  -7.987
 -7.985  -7.979  -7.973  -7.964  -6.014  -6.012  -6.008  -6.006
 -6.006  -6.005  -5.953  -5.951  -5.949  -5.948  -5.947  -5.945
 -5.945  -5.944  -5.944  -5.942  -5.940  -5.937  -5.936  -5.934
 -5.929  -5.929  -5.925  -5.919  -1.053  -1.035  -0.977  -0.969
 -0.954  -0.946  -0.945  -0.934  -0.920  -0.912  -0.908  -0.889
 -0.850  -0.837  -0.832  -0.827  -0.812  -0.810  -0.808  -0.808
 -0.802  -0.798  -0.796  -0.794  -0.788  -0.781  -0.768  -0.762
 -0.749  -0.746  -0.740  -0.737  -0.726  -0.719  -0.709  -0.709
 -0.693  -0.690  -0.677  -0.667  -0.653  -0.649  -0.648  -0.642
 -0.638  -0.630  -0.628  -0.627  -0.612  -0.607  -0.597  -0.595
 -0.591  -0.587  -0.585  -0.580  -0.580  -0.569  -0.565  -0.565
 -0.552  -0.548  -0.544  -0.537  -0.527  -0.522  -0.516  -0.509
 -0.506  -0.505  -0.504  -0.500  -0.490  -0.483  -0.480  -0.476
 -0.473  -0.470  -0.469  -0.465  -0.462  -0.458  -0.450  -0.448
 -0.445  -0.443  -0.440  -0.439  -0.437  -0.434  -0.432  -0.431
 -0.429  -0.425  -0.425  -0.421  -0.420  -0.416  -0.415  -0.414
 -0.410  -0.408  -0.407  -0.403  -0.401  -0.400  -0.398  -0.398
 -0.393  -0.392  -0.390  -0.388  -0.383  -0.382  -0.382  -0.380
 -0.379  -0.379  -0.374  -0.368  -0.361  -0.359  -0.357  -0.356
 -0.354  -0.351  -0.350  -0.347  -0.345  -0.342  -0.340  -0.339
 -0.337  -0.336  -0.333  -0.327  -0.325  -0.324  -0.321  -0.320
 -0.314  -0.313  -0.308  -0.306  -0.303  -0.299  -0.297  -0.297
 -0.294  -0.291  -0.291  -0.288  -0.285  -0.284  -0.282  -0.277
 -0.274  -0.270  -0.265  -0.263  -0.254  -0.254  -0.250  -0.248
 -0.247  -0.241  -0.239  -0.229  -0.200  -0.187

          Ground-State Mulliken Net Atomic Charges

     Atom                 Charge (a.u.)
  ----------------------------------------
      1 C                     0.259040
      2 C                    -0.108057
      3 N                    -0.462161
      4 C                    -0.072059
      5 C                     0.089816
      6 C                     0.009383
      7 C                    -0.022219
      8 C                     0.072440
      9 C                     0.243543
     10 N                    -0.541262
     11 N                    -0.549170
     12 C                     0.200209
     13 C                     0.331473
     14 S                     0.605975
     15 N                    -0.549344
     16 C                    -0.218618
     17 S                     0.339163
     18 C                    -0.103098
     19 C                    -0.223697
     20 S                     0.279194
     21 C                     0.109907
     22 C                     0.071378
     23 C                    -0.315170
     24 C                    -0.049774
     25 N                    -0.433395
     26 S                     0.255006
     27 C                     0.129848
     28 C                    -0.309085
     29 C                    -0.219794
     30 H                     0.098979
     31 H                     0.105991
     32 H                     0.104364
     33 H                     0.126313
     34 H                     0.131306
     35 H                     0.132675
     36 H                     0.111153
     37 H                     0.135606
     38 H                     0.116279
     39 C                    -0.174491
     40 H                     0.085601
     41 H                     0.106661
     42 H                     0.088205
     43 C                    -0.170750
     44 H                     0.101416
     45 C                    -0.183070
     46 H                     0.099981
     47 H                     0.088496
     48 H                     0.091052
     49 C                    -0.175152
     50 H                     0.085622
     51 C                    -0.324784
     52 H                     0.096527
     53 H                     0.110554
     54 H                     0.094758
     55 H                     0.105626
     56 C                     0.253498
     57 C                    -0.107793
     58 N                    -0.470334
     59 C                    -0.091963
     60 C                     0.081119
     61 C                     0.037347
     62 C                     0.028613
     63 C                     0.057314
     64 C                     0.210778
     65 N                    -0.518499
     66 N                    -0.548921
     67 C                     0.204141
     68 C                     0.250927
     69 S                     0.630264
     70 N                    -0.539774
     71 C                    -0.202469
     72 S                     0.307058
     73 C                    -0.101837
     74 C                    -0.207081
     75 S                     0.244504
     76 C                     0.162959
     77 C                     0.040646
     78 C                    -0.305650
     79 C                    -0.048895
     80 N                    -0.432825
     81 S                     0.267654
     82 C                     0.133159
     83 C                    -0.317709
     84 C                    -0.220239
     85 H                     0.099732
     86 H                     0.107725
     87 H                     0.116838
     88 H                     0.113308
     89 H                     0.124886
     90 H                     0.127210
     91 H                     0.141512
     92 H                     0.124268
     93 H                     0.083378
     94 C                    -0.174997
     95 H                     0.114721
     96 H                     0.094510
     97 H                     0.114710
     98 C                    -0.177598
     99 H                     0.088339
    100 C                    -0.169098
    101 H                     0.096858
    102 H                     0.089703
    103 H                     0.095717
    104 C                    -0.184782
    105 H                     0.094278
    106 C                    -0.319081
    107 H                     0.096982
    108 H                     0.103862
    109 H                     0.090641
    110 H                     0.101998
  ----------------------------------------
  Sum of atomic charges =     0.000000

                    Cartesian Multipole Moments
 -----------------------------------------------------------------
    Charge (ESU x 10^10)
                 0.0000
    Dipole Moment (Debye)
         X      -3.9957      Y      -0.1102      Z       0.1829
       Tot       4.0014
    Quadrupole Moments (Debye-Ang)
        XX    -405.7448     XY     -21.2346     YY    -408.4581
        XZ       3.5966     YZ       5.4564     ZZ    -438.2267

 Total job time:  85.05s(wall), 992.56s(cpu)
        *  Thank you very much for using Q-Chem.  Have a nice day.  *
