 Q-Chem 4.4, Q-Chem, Inc., Pleasanton, CA (2016)
 Q-Chem 4.4.2 for Intel X86 Linux

User input:
--------------------------------------------------------------
$comment
SP
$end

$rem
MEM_STATIC 5000
MEM_TOTAL 20000
JOBTYPE SP
EXCHANGE B3LYP
BASIS 6-31g(d,p)
$end

$molecule
0 1
C          -7.088000     28.050000      9.632000
C          -5.913000     27.899000      8.972000
N          -7.106000     28.004000     11.016000
C          -4.725000     27.542000      9.588000
C          -5.924000     27.808000     11.653000
C          -4.689000     27.486000     10.969000
C          -3.465000     26.985000     11.717000
C          -2.664000     25.949000     11.170000
C          -3.134000     27.334000     13.016000
N          -1.559000     25.463000     11.788000
N          -3.775000     28.350000     13.625000
C          -2.010000     26.784000     13.721000
C          -1.216000     25.818000     13.054000
S          -2.906000     28.534000     15.027000
N          -1.774000     27.291000     14.881000
C           0.023000     25.150000     13.561000
S           0.720000     25.273000     15.255000
C           0.931000     24.368000     12.833000
C           2.119000     24.257000     14.844000
S           0.883000     23.877000     11.144000
C           2.055000     23.881000     13.549000
C           3.095000     23.837000     15.820000
C           2.220000     22.698000     11.497000
C           2.745000     22.922000     12.760000
N           4.382000     23.848000     15.358000
S           2.931000     23.945000     17.496000
C           5.269000     23.750000     16.380000
C           4.651000     23.676000     17.664000
C          -8.411000     28.091000      8.882000
H          -5.862000     28.054000      7.899000
H          -3.832000     27.250000      9.042000
H          -6.015000     27.887000     12.736000
H          -2.953000     25.535000     10.205000
H           2.559000     21.951000     10.792000
H           3.651000     22.460000     13.137000
H           6.313000     23.622000     16.129000
H           5.011000     23.260000     18.596000
H          -8.200000     28.202000      7.812000
C          -9.293000     29.196000      9.387000
H          -8.955000     27.148000      9.016000
H          -8.854000     29.491000     10.348000
H         -10.338000     28.973000      9.636000
C          -9.247000     30.442000      8.436000
H          -8.201000     30.770000      8.483000
C         -10.154000     31.579000      9.065000
H          -9.492000     30.188000      7.398000
H          -9.871000     31.682000     10.121000
H         -11.220000     31.330000      9.132000
C          -9.991000     33.014000      8.429000
H          -8.971000     33.397000      8.558000
C         -10.988000     34.019000      9.076000
H         -10.173000     32.945000      7.349000
H         -11.997000     33.613000      8.929000
H         -10.850000     35.014000      8.637000
H         -10.948000     34.181000     10.160000
C         -13.609000     24.757000     16.659000
C         -14.643000     24.627000     15.733000
N         -12.291000     24.738000     16.400000
C         -14.285000     24.400000     14.403000
C         -11.939000     24.443000     15.108000
C         -12.877000     24.362000     14.051000
C         -12.413000     24.026000     12.675000
C         -13.165000     23.117000     11.877000
C         -11.180000     24.488000     12.062000
N         -12.713000     22.563000     10.687000
N         -10.241000     25.392000     12.545000
C         -10.859000     24.050000     10.763000
C         -11.582000     23.063000     10.108000
S          -9.018000     25.433000     11.529000
N          -9.628000     24.505000     10.370000
C         -11.143000     22.348000      8.976000
S         -11.306000     20.590000      8.768000
C         -10.612000     22.906000      7.835000
C         -10.644000     20.667000      7.117000
S         -10.469000     24.596000      7.396000
C         -10.316000     22.020000      6.847000
C         -10.343000     19.505000      6.333000
C          -9.908000     24.001000      5.745000
C          -9.851000     22.624000      5.687000
N         -10.305000     19.621000      5.003000
S         -10.155000     17.883000      6.892000
C          -9.919000     18.507000      4.367000
C          -9.564000     17.548000      5.294000
C         -13.925000     25.008000     18.187000
H         -15.672000     24.700000     16.074000
H         -14.985000     24.457000     13.575000
H         -10.876000     24.265000     14.957000
H         -14.117000     22.763000     12.270000
H          -9.558000     24.671000      4.970000
H          -9.550000     22.095000      4.790000
H          -9.793000     18.417000      3.296000
H          -9.170000     16.556000      5.115000
H         -14.996000     24.837000     18.355000
C         -13.510000     26.431000     18.683000
H         -13.425000     24.228000     18.774000
H         -13.753000     27.091000     17.841000
H         -12.418000     26.504000     18.757000
C         -14.212000     26.947000     19.988000
H         -15.289000     26.781000     19.863000
C         -14.015000     28.432000     20.170000
H         -13.931000     26.360000     20.871000
H         -14.093000     28.948000     19.206000
H         -12.985000     28.577000     20.519000
C         -15.080000     29.151000     21.128000
H         -15.138000     30.240000     21.006000
C         -14.675000     28.857000     22.589000
H         -16.076000     28.692000     21.135000
H         -14.663000     27.768000     22.718000
H         -15.490000     29.219000     23.227000
H         -13.774000     29.369000     22.952000
$end

--------------------------------------------------------------

             Standard Nuclear Orientation (Angstroms)
    I     Atom           X                Y                Z
 ----------------------------------------------------------------
    1      C      -0.5366635644     0.6757344176     3.7800354376
    2      C       0.4825491333     1.5254533999     4.0596943870
    3      N      -0.2827239185    -0.4880979374     3.0737034294
    4      C       1.7619672086     1.3871118102     3.5476397090
    5      C       0.9978292617    -0.7238222023     2.6916999957
    6      C       2.0680721137     0.2404578607     2.8383601400
    7      C       3.4061822955     0.0658651919     2.1400338972
    8      C       4.0651640228     1.1821671826     1.5623497719
    9      C       3.9925816681    -1.1545396028     1.8476114071
   10      N       5.2613026615     1.0899107755     0.9299842824
   11      N       3.5022889707    -2.2852208423     2.3909262382
   12      C       5.2233232734    -1.2865838716     1.1190920785
   13      C       5.8530774984    -0.1030411078     0.6596172234
   14      S       4.6333942617    -3.4162519028     1.9482180265
   15      N       5.6920672750    -2.4822176781     1.0237827838
   16      C       7.1554656760     0.0123375654    -0.0676150617
   17      S       8.1743447112    -1.3696422921    -0.7176852005
   18      C       7.8882600744     1.1790555817    -0.3279099717
   19      C       9.4466573348    -0.2713718194    -1.2950936837
   20      S       7.4999728346     2.8530003046     0.0505713143
   21      C       9.1222950579     1.0069504379    -1.0066871657
   22      C      10.5879865773    -0.7250321872    -2.0521351825
   23      C       8.8589649654     3.3663760407    -1.0411267859
   24      C       9.6262132010     2.2725923550    -1.4098236721
   25      N      11.7588630602    -0.1031720567    -1.7170646823
   26      S      10.7590375964    -2.2397487781    -2.7759522852
   27      C      12.8277686703    -0.7689162749    -2.2221215429
   28      C      12.4733593646    -1.9419558393    -2.9531675227
   29      C      -1.9804528450     1.0580227023     4.0695836732
   30      H       0.3241238219     2.3763722469     4.7145176735
   31      H       2.5246555105     2.1571020180     3.6267006602
   32      H       1.1232026182    -1.7043840851     2.2332341677
   33      H       3.5845122667     2.1563002406     1.6409670393
   34      H       9.0391369169     4.3936903012    -1.3276900044
   35      H      10.5802717213     2.3387281794    -1.9214948484
   36      H      13.7994794964    -0.3036285821    -2.1293506773
   37      H      13.0022506624    -2.4711500732    -3.7351569458
   38      H      -1.9822317348     1.9566718213     4.6974121502
   39      C      -2.7258678124    -0.0705800527     4.7211865796
   40      H      -2.5042358812     1.3041942376     3.1378155120
   41      H      -2.1010933629    -0.9563063346     4.5526254898
   42      H      -3.7052387116    -0.3635261970     4.3227267971
   43      C      -2.8456426311     0.1442269493     6.2699102298
   44      H      -1.8051502272     0.1332509395     6.6179965477
   45      C      -3.5905848351    -1.1104498262     6.8878959106
   46      H      -3.2946651854     1.1108357841     6.5268754146
   47      H      -3.1034732551    -2.0121011227     6.4934580218
   48      H      -4.6268296367    -1.2389701468     6.5524480930
   49      C      -3.5302821997    -1.2357438497     8.4598230717
   50      H      -2.4981521239    -1.3482678970     8.8144719762
   51      C      -4.3622702605    -2.4578150384     8.9466298878
   52      H      -3.9225009688    -0.3118927589     8.9036119844
   53      H      -5.3875721115    -2.3167270672     8.5814226881
   54      H      -4.2955796622    -2.5418828844    10.0376271203
   55      H      -4.1067976277    -3.4559760171     8.5707197993
   56      C      -5.6049072950    -4.9051703146    -2.9958354922
   57      C      -6.8031012084    -4.2370620008    -2.7478543903
   58      N      -4.3642237161    -4.4366283995    -2.7819693409
   59      C      -6.7180080371    -2.9251572415    -2.2785378078
   60      C      -4.2787505996    -3.1251951830    -2.3907785114
   61      C      -5.4077449140    -2.3516314744    -2.0293576669
   62      C      -5.2297487720    -0.9282296313    -1.6246200154
   63      C      -6.1402626870     0.0604727210    -2.0958111328
   64      C      -4.1334509126    -0.4065276476    -0.8274625379
   65      N      -5.9413242548     1.4288143215    -1.9717757972
   66      N      -3.1017156502    -1.0897957387    -0.1943013706
   67      C      -4.0823051212     0.9748831900    -0.5603030242
   68      C      -4.9376417466     1.8845500594    -1.1659666635
   69      S      -2.1020815660    -0.0205583939     0.4278957028
   70      N      -2.9447912603     1.3115864908     0.1249181834
   71      C      -4.7429143139     3.2793196310    -1.2114536859
   72      S      -4.9751235301     4.2832059852    -2.6601386302
   73      C      -4.4369745853     4.0788894146    -0.1333558037
   74      C      -4.6497638795     5.7764200669    -1.7466689788
   75      S      -4.3529356888     3.6575055146     1.5650678987
   76      C      -4.3571458395     5.4079785212    -0.4088653646
   77      C      -4.5298240263     7.0663576612    -2.3608158946
   78      C      -4.1386187923     5.4595135386     1.8834738493
   79      C      -4.1188201249     6.1894889208     0.7132234683
   80      N      -4.7522758796     8.1535787976    -1.6176703008
   81      S      -4.2645549507     7.4118299802    -4.0308428987
   82      C      -4.5190226557     9.3089985834    -2.2541340092
   83      C      -4.0057415854     9.0474240193    -3.5083892824
   84      C      -5.6094273840    -6.3904127698    -3.5359053192
   85      H      -7.7433785027    -4.7498036561    -2.9306810971
   86      H      -7.5661521459    -2.3715253658    -1.8874159381
   87      H      -3.2696273281    -2.7176200900    -2.3881772900
   88      H      -7.0024710805    -0.2750185976    -2.6703642298
   89      H      -3.9360643026     5.8590690133     2.8690458159
   90      H      -4.0097851586     7.2679662423     0.7062203875
   91      H      -4.6079214777    10.2909745730    -1.8082224089
   92      H      -3.6725113478     9.7542981235    -4.2571399815
   93      H      -6.6292971221    -6.6441233763    -3.8521372680
   94      C      -5.0795024029    -7.4319504814    -2.4978548822
   95      H      -5.0177218739    -6.4223087415    -4.4588550666
   96      H      -5.4716172882    -7.0773048690    -1.5365612713
   97      H      -3.9931698953    -7.3336064321    -2.3817552225
   98      C      -5.5015549623    -8.9252236670    -2.7304313864
   99      H      -6.5848870808    -8.9320099287    -2.9020573388
  100      C      -5.2460231300    -9.7678949500    -1.5049655192
  101      H      -5.0628123620    -9.3435794961    -3.6445989481
  102      H      -5.5029845061    -9.2091086688    -0.5975710388
  103      H      -4.1650507920    -9.9508364125    -1.4630462440
  104      C      -6.0885787498   -11.1288865070    -1.4227949076
  105      H      -6.1499443944   -11.5650341744    -0.4177185573
  106      C      -5.4092687394   -12.1614891648    -2.3486737662
  107      H      -7.0717748790   -11.0912905757    -1.9072099337
  108      H      -5.3916179416   -11.7396283275    -3.3608140150
  109      H      -6.0761338958   -13.0301011843    -2.4045040683
  110      H      -4.4454235650   -12.5582821722    -2.0033162860
 ----------------------------------------------------------------

    9   -5663.4983772113      9.74E-06 Convergence criterion met
 Total energy in the final basis set = -5663.4983772113

                    Orbital Energies (a.u.)
 --------------------------------------------------------------

 Alpha MOs
 -- Occupied --
-88.986 -88.981 -88.937 -88.925 -88.925 -88.921 -88.908 -88.906
-14.390 -14.389 -14.370 -14.369 -14.351 -14.349 -14.347 -14.339
-14.335 -14.330 -10.272 -10.270 -10.265 -10.258 -10.257 -10.256
-10.250 -10.250 -10.247 -10.245 -10.244 -10.243 -10.241 -10.239
-10.239 -10.235 -10.234 -10.231 -10.230 -10.230 -10.230 -10.229
-10.227 -10.226 -10.225 -10.224 -10.224 -10.222 -10.221 -10.219
-10.218 -10.212 -10.207 -10.203 -10.201 -10.198 -10.196 -10.191
-10.185 -10.185 -10.180 -10.179 -10.179 -10.179 -10.177 -10.176
-10.176 -10.170 -10.170 -10.166  -8.041  -8.037  -7.999  -7.987
 -7.983  -7.980  -7.967  -7.965  -6.006  -6.002  -6.000  -5.999
 -5.997  -5.994  -5.963  -5.959  -5.957  -5.951  -5.948  -5.948
 -5.945  -5.944  -5.944  -5.941  -5.939  -5.937  -5.932  -5.930
 -5.928  -5.927  -5.923  -5.921  -1.038  -1.031  -0.972  -0.971
 -0.952  -0.945  -0.936  -0.932  -0.920  -0.909  -0.906  -0.885
 -0.838  -0.836  -0.833  -0.825  -0.816  -0.806  -0.805  -0.804
 -0.802  -0.799  -0.797  -0.795  -0.780  -0.778  -0.767  -0.762
 -0.748  -0.747  -0.740  -0.738  -0.720  -0.719  -0.709  -0.706
 -0.692  -0.690  -0.673  -0.666  -0.653  -0.648  -0.645  -0.640
 -0.635  -0.628  -0.627  -0.626  -0.614  -0.607  -0.599  -0.594
 -0.592  -0.590  -0.584  -0.579  -0.575  -0.573  -0.570  -0.564
 -0.555  -0.548  -0.538  -0.536  -0.526  -0.520  -0.515  -0.511
 -0.510  -0.504  -0.500  -0.498  -0.488  -0.482  -0.476  -0.474
 -0.472  -0.470  -0.467  -0.463  -0.458  -0.457  -0.450  -0.448
 -0.448  -0.446  -0.445  -0.438  -0.437  -0.432  -0.430  -0.429
 -0.427  -0.424  -0.423  -0.422  -0.421  -0.416  -0.411  -0.410
 -0.407  -0.406  -0.406  -0.399  -0.399  -0.397  -0.396  -0.395
 -0.391  -0.389  -0.388  -0.386  -0.385  -0.384  -0.384  -0.382
 -0.379  -0.378  -0.376  -0.366  -0.366  -0.358  -0.357  -0.352
 -0.350  -0.347  -0.346  -0.345  -0.342  -0.340  -0.339  -0.337
 -0.336  -0.332  -0.331  -0.326  -0.326  -0.324  -0.323  -0.321
 -0.319  -0.315  -0.312  -0.306  -0.302  -0.299  -0.296  -0.295
 -0.292  -0.291  -0.289  -0.288  -0.287  -0.287  -0.283  -0.274
 -0.273  -0.270  -0.269  -0.266  -0.258  -0.253  -0.250  -0.249
 -0.247  -0.242  -0.234  -0.228  -0.195  -0.188

          Ground-State Mulliken Net Atomic Charges

     Atom                 Charge (a.u.)
  ----------------------------------------
      1 C                     0.275045
      2 C                    -0.129270
      3 N                    -0.490682
      4 C                    -0.075161
      5 C                     0.083680
      6 C                     0.040977
      7 C                     0.035064
      8 C                     0.065707
      9 C                     0.198233
     10 N                    -0.535461
     11 N                    -0.541035
     12 C                     0.257502
     13 C                     0.322213
     14 S                     0.572499
     15 N                    -0.581841
     16 C                    -0.219377
     17 S                     0.299657
     18 C                    -0.125761
     19 C                    -0.226368
     20 S                     0.276446
     21 C                     0.196823
     22 C                     0.008924
     23 C                    -0.315275
     24 C                    -0.053944
     25 N                    -0.401476
     26 S                     0.305366
     27 C                     0.122875
     28 C                    -0.323715
     29 C                    -0.235468
     30 H                     0.086770
     31 H                     0.103973
     32 H                     0.125741
     33 H                     0.114488
     34 H                     0.130703
     35 H                     0.115912
     36 H                     0.122849
     37 H                     0.145696
     38 H                     0.096781
     39 C                    -0.190733
     40 H                     0.139300
     41 H                     0.128842
     42 H                     0.089150
     43 C                    -0.183364
     44 H                     0.094720
     45 C                    -0.177747
     46 H                     0.089885
     47 H                     0.097220
     48 H                     0.089797
     49 C                    -0.178988
     50 H                     0.092948
     51 C                    -0.321749
     52 H                     0.093780
     53 H                     0.101659
     54 H                     0.098112
     55 H                     0.102924
     56 C                     0.252982
     57 C                    -0.107336
     58 N                    -0.469968
     59 C                    -0.092277
     60 C                     0.081863
     61 C                     0.037557
     62 C                     0.028252
     63 C                     0.056150
     64 C                     0.207325
     65 N                    -0.519650
     66 N                    -0.550487
     67 C                     0.201862
     68 C                     0.248008
     69 S                     0.661842
     70 N                    -0.554328
     71 C                    -0.202016
     72 S                     0.307277
     73 C                    -0.103506
     74 C                    -0.208054
     75 S                     0.246141
     76 C                     0.164981
     77 C                     0.041831
     78 C                    -0.308324
     79 C                    -0.047648
     80 N                    -0.431384
     81 S                     0.273098
     82 C                     0.134695
     83 C                    -0.308313
     84 C                    -0.219859
     85 H                     0.099094
     86 H                     0.107230
     87 H                     0.117628
     88 H                     0.111835
     89 H                     0.123039
     90 H                     0.124710
     91 H                     0.120776
     92 H                     0.121037
     93 H                     0.083015
     94 C                    -0.175834
     95 H                     0.114370
     96 H                     0.095026
     97 H                     0.114995
     98 C                    -0.176891
     99 H                     0.088128
    100 C                    -0.169758
    101 H                     0.096537
    102 H                     0.090194
    103 H                     0.095677
    104 C                    -0.184677
    105 H                     0.094318
    106 C                    -0.319052
    107 H                     0.096868
    108 H                     0.103754
    109 H                     0.090494
    110 H                     0.101928
  ----------------------------------------
  Sum of atomic charges =     0.000000

                    Cartesian Multipole Moments
 -----------------------------------------------------------------
    Charge (ESU x 10^10)
                 0.0000
    Dipole Moment (Debye)
         X       3.0723      Y       1.5397      Z      -1.2468
       Tot       3.6557
    Quadrupole Moments (Debye-Ang)
        XX    -399.9866     XY       1.6808     YY    -408.9763
        XZ     -18.9092     YZ       2.4143     ZZ    -431.6299

 Total job time:  80.11s(wall), 944.68s(cpu)
        *  Thank you very much for using Q-Chem.  Have a nice day.  *
