 Q-Chem 4.4, Q-Chem, Inc., Pleasanton, CA (2016)
 Q-Chem 4.4.2 for Intel X86 Linux

User input:
--------------------------------------------------------------
$comment
SP
$end

$rem
MEM_STATIC 5000
MEM_TOTAL 20000
JOBTYPE SP
EXCHANGE B3LYP
BASIS 6-31g(d,p)
$end

$molecule
0 1
C         -14.025000     15.348000      9.080000
C         -13.278000     16.127000      8.162000
N         -15.283000     15.686000      9.399000
C         -13.939000     17.186000      7.435000
C         -15.937000     16.662000      8.708000
C         -15.257000     17.477000      7.772000
C         -15.928000     18.640000      7.075000
C         -17.188000     18.421000      6.472000
C         -15.414000     19.943000      7.019000
N         -17.868000     19.384000      5.799000
N         -14.190000     20.353000      7.527000
C         -16.071000     20.883000      6.273000
C         -17.287000     20.582000      5.612000
S         -14.169000     21.946000      7.198000
N         -15.622000     22.101000      6.401000
C         -18.099000     21.534000      4.789000
S         -18.008000     23.333000      4.918000
C         -18.987000     21.157000      3.799000
C         -19.192000     23.492000      3.595000
S         -19.238000     19.566000      3.151000
C         -19.500000     22.269000      3.122000
C         -19.544000     24.768000      3.031000
C         -19.972000     20.416000      1.797000
C         -20.054000     21.798000      1.903000
N         -20.737000     24.910000      2.484000
S         -18.607000     26.324000      3.270000
C         -20.967000     26.237000      2.115000
C         -19.878000     27.083000      2.305000
C         -13.432000     14.227000      9.872000
H         -12.219000     15.905000      8.067000
H         -13.282000     17.762000      6.790000
H         -16.946000     16.933000      9.014000
H         -17.610000     17.418000      6.433000
H         -20.361000     19.854000      0.958000
H         -20.520000     22.456000      1.178000
H         -21.948000     26.457000      1.713000
H         -19.781000     28.148000      2.139000
H         -12.443000     13.901000      9.527000
C         -14.225000     12.916000      9.873000
H         -13.195000     14.602000     10.875000
H         -13.544000     12.059000      9.810000
H         -14.782000     12.851000      8.930000
C         -15.231000     12.753000     11.063000
H         -15.817000     13.645000     11.315000
C         -14.529000     12.268000     12.377000
H         -16.022000     12.083000     10.702000
H         -13.712000     12.955000     12.630000
H         -14.079000     11.268000     12.330000
C         -15.515000     12.061000     13.563000
H         -16.120000     12.959000     13.738000
C         -14.806000     11.749000     14.850000
H         -16.168000     11.206000     13.350000
H         -14.219000     10.823000     14.871000
H         -15.574000     11.577000     15.613000
H         -14.089000     12.494000     15.218000
C         -13.609000     24.757000     16.659000
C         -14.643000     24.627000     15.733000
N         -12.291000     24.738000     16.400000
C         -14.285000     24.400000     14.403000
C         -11.939000     24.443000     15.108000
C         -12.877000     24.362000     14.051000
C         -12.413000     24.026000     12.675000
C         -13.165000     23.117000     11.877000
C         -11.180000     24.488000     12.062000
N         -12.713000     22.563000     10.687000
N         -10.241000     25.392000     12.545000
C         -10.859000     24.050000     10.763000
C         -11.582000     23.063000     10.108000
S          -9.018000     25.433000     11.529000
N          -9.628000     24.505000     10.370000
C         -11.143000     22.348000      8.976000
S         -11.306000     20.590000      8.768000
C         -10.612000     22.906000      7.835000
C         -10.644000     20.667000      7.117000
S         -10.469000     24.596000      7.396000
C         -10.316000     22.020000      6.847000
C         -10.343000     19.505000      6.333000
C          -9.908000     24.001000      5.745000
C          -9.851000     22.624000      5.687000
N         -10.305000     19.621000      5.003000
S         -10.155000     17.883000      6.892000
C          -9.919000     18.507000      4.367000
C          -9.564000     17.548000      5.294000
C         -13.925000     25.008000     18.187000
H         -15.672000     24.700000     16.074000
H         -14.985000     24.457000     13.575000
H         -10.876000     24.265000     14.957000
H         -14.117000     22.763000     12.270000
H          -9.558000     24.671000      4.970000
H          -9.550000     22.095000      4.790000
H          -9.793000     18.417000      3.296000
H          -9.170000     16.556000      5.115000
H         -14.996000     24.837000     18.355000
C         -13.510000     26.431000     18.683000
H         -13.425000     24.228000     18.774000
H         -13.753000     27.091000     17.841000
H         -12.418000     26.504000     18.757000
C         -14.212000     26.947000     19.988000
H         -15.289000     26.781000     19.863000
C         -14.015000     28.432000     20.170000
H         -13.931000     26.360000     20.871000
H         -14.093000     28.948000     19.206000
H         -12.985000     28.577000     20.519000
C         -15.080000     29.151000     21.128000
H         -15.138000     30.240000     21.006000
C         -14.675000     28.857000     22.589000
H         -16.076000     28.692000     21.135000
H         -14.663000     27.768000     22.718000
H         -15.490000     29.219000     23.227000
H         -13.774000     29.369000     22.952000
$end

--------------------------------------------------------------

             Standard Nuclear Orientation (Angstroms)
    I     Atom           X                Y                Z
 ----------------------------------------------------------------
    1      C      -2.1318402082     5.7469501637    -1.0842558907
    2      C      -2.4575705423     5.0325441899     0.0951922235
    3      N      -2.0892241313     5.1244198075    -2.2713569081
    4      C      -2.9182209536     3.6675512315    -0.0121689521
    5      C      -2.5453000175     3.8467477471    -2.4029695678
    6      C      -2.8935014239     3.0736150893    -1.2699458814
    7      C      -3.2934132516     1.6184809665    -1.3761259853
    8      C      -4.2693963250     1.2618588423    -2.3350043410
    9      C      -2.7331110073     0.5782341584    -0.6217461252
   10      N      -4.7215374366    -0.0074695425    -2.4995396468
   11      N      -1.7841815336     0.7244401384     0.3795014293
   12      C      -3.2517608857    -0.6819578538    -0.7429211884
   13      C      -4.2958224631    -0.9650769311    -1.6572280355
   14      S      -1.5053624683    -0.8076145557     0.8500323454
   15      N      -2.5765915097    -1.6170866286    -0.1336679667
   16      C      -4.9232204905    -2.3053854431    -1.8872754394
   17      S      -4.1436972061    -3.8832499917    -1.4822940632
   18      C      -6.1927983730    -2.5016010975    -2.3976129916
   19      C      -5.6042520342    -4.7489945883    -2.0251862142
   20      S      -7.4061711269    -1.2998612885    -2.7102373534
   21      C      -6.5476577471    -3.8550292316    -2.3789284957
   22      C      -5.7541335470    -6.1714697952    -1.8693792252
   23      C      -8.5198099483    -2.6614977753    -2.6921638035
   24      C      -7.9584499276    -3.9198531428    -2.5209893424
   25      N      -6.5329064090    -6.8214207729    -2.7141860409
   26      S      -4.7201131466    -7.2314192217    -0.7907064179
   27      C      -6.4561663785    -8.2007722004    -2.5104936079
   28      C      -5.6741430192    -8.5780688526    -1.4224569809
   29      C      -1.6548925426     7.1639885800    -1.0754780292
   30      H      -2.3168514099     5.5450060194     1.0424889031
   31      H      -3.0989680658     3.1812532026     0.9419247061
   32      H      -2.4665443049     3.3606523603    -3.3738798688
   33      H      -4.7813084646     2.0327772672    -2.9088028626
   34      H      -9.5774504872    -2.4916886746    -2.8459407844
   35      H      -8.5036856796    -4.8570048639    -2.5354678187
   36      H      -7.0173778313    -8.8168462545    -3.2017674068
   37      H      -5.4159184734    -9.5619646686    -1.0530532625
   38      H      -1.7936128202     7.6837013980    -0.1194041453
   39      C      -2.3470709196     8.1089008421    -2.0632031485
   40      H      -0.5613660496     7.1595572374    -1.1590434074
   41      H      -2.5118269005     9.0892223879    -1.6005973405
   42      H      -3.3690437541     7.7451688083    -2.2275002365
   43      C      -1.6350318846     8.2509057891    -3.4515618945
   44      H      -1.2624242634     7.3181883641    -3.8917502242
   45      C      -0.4365970035     9.2591275171    -3.4083440378
   46      H      -2.4211561358     8.5171939458    -4.1698941847
   47      H       0.2669401780     8.9572884318    -2.6225987859
   48      H      -0.7042034055    10.3009795376    -3.1900777305
   49      C       0.2620058871     9.4465314496    -4.7861955419
   50      H       0.5627821297     8.4821775656    -5.2135235638
   51      C       1.4998420426    10.2921494797    -4.6908760824
   52      H      -0.4184961361     9.9638955375    -5.4732576912
   53      H       1.3583377196    11.3276508567    -4.3589130952
   54      H       1.8971195528    10.4058482473    -5.7061692273
   55      H       2.2975723498     9.9359033388    -4.0266072784
   56      C       8.0706669446    -0.7170535775    -1.6029864872
   57      C       6.9037939625    -1.1679130053    -2.2183442856
   58      N       8.2119005274    -0.3507211157    -0.3182999097
   59      C       5.7427060835    -1.1958715775    -1.4439501641
   60      C       7.0587589943    -0.3086240846     0.4224331358
   61      C       5.8202932693    -0.8080974162    -0.0470165836
   62      C       4.6100191736    -0.7151847452     0.8179526927
   63      C       3.3614543615    -0.3330280809     0.2490667693
   64      C       4.5826476781    -0.9069998339     2.2573830567
   65      N       2.2358299014     0.0035625980     0.9886587444
   66      N       5.6028738790    -1.3079194783     3.1121508249
   67      C       3.3636144439    -0.7461447093     2.9432180244
   68      C       2.2229124961    -0.2462589827     2.3309792421
   69      S       5.0646349419    -1.2245054889     4.6064757404
   70      N       3.5289159799    -0.8746185711     4.2971031263
   71      C       1.0880044302     0.2482108480     3.0039229756
   72      S       0.2320782866     1.7452399142     2.5718449598
   73      C       0.4234047947    -0.3913615294     4.0259114778
   74      C      -1.0194029277     1.4521875109     3.8038713635
   75      S       0.6738189534    -2.0020791526     4.6679017327
   76      C      -0.6851473450     0.2515071716     4.4804309900
   77      C      -2.0429995369     2.4017094071     4.1296920967
   78      C      -0.8452131660    -1.7143112268     5.6700384704
   79      C      -1.3692707408    -0.4558558882     5.4593353167
   80      N      -3.1742006043     1.9597899477     4.6854720321
   81      S      -2.0674786052     4.0865108526     3.7561230075
   82      C      -4.0246791504     2.9311667088     5.0426854567
   83      C      -3.4384465351     4.1605601188     4.8191722263
   84      C       9.4284920724    -0.6458654325    -2.4085199567
   85      H       6.9376587895    -1.4706254736    -3.2612581531
   86      H       4.8253000561    -1.6859672610    -1.7554070662
   87      H       7.1664233644     0.1503219980     1.4033668118
   88      H       3.3121099433    -0.2084190889    -0.8317230935
   89      H      -1.1963933819    -2.4174401476     6.4145565539
   90      H      -2.2686941228    -0.1131135113     5.9579496396
   91      H      -4.9733123986     2.7727170070     5.5386750255
   92      H      -3.8367303815     5.1428533233     5.0378295795
   93      H       9.2097642406    -0.7846568490    -3.4750100309
   94      C      10.4940791775    -1.6823412890    -1.9253927268
   95      H       9.8174033203     0.3771586652    -2.3368349742
   96      H       9.9094845917    -2.5814224822    -1.6940592483
   97      H      10.8993526960    -1.3841979663    -0.9506451008
   98      C      11.6367515440    -2.0332381205    -2.9418848696
   99      H      11.1573963421    -2.2551866801    -3.9031691290
  100      C      12.3823952312    -3.2773870516    -2.5256314264
  101      H      12.2946478369    -1.1779716791    -3.1391430305
  102      H      11.6855126053    -4.0249190754    -2.1291639257
  103      H      13.0400925112    -2.9925152164    -1.6949640288
  104      C      13.1841871999    -4.0190210674    -3.6986866789
  105      H      13.4455761675    -5.0623006079    -3.4809423147
  106      C      14.4959386477    -3.2404048767    -3.9396160605
  107      H      12.7415151223    -3.9136285160    -4.6965242618
  108      H      14.2275705473    -2.2098400511    -4.2015715967
  109      H      14.9580750357    -3.6612175377    -4.8405376237
  110      H      15.2593358283    -3.3273110826    -3.1551506017
 ----------------------------------------------------------------

    9   -5663.4966440642      7.02E-06 Convergence criterion met
 Total energy in the final basis set = -5663.4966440642

                    Orbital Energies (a.u.)
 --------------------------------------------------------------

 Alpha MOs
 -- Occupied --
-88.997 -88.981 -88.933 -88.927 -88.921 -88.918 -88.911 -88.908
-14.380 -14.380 -14.380 -14.378 -14.355 -14.346 -14.342 -14.342
-14.335 -14.328 -10.272 -10.269 -10.266 -10.259 -10.258 -10.257
-10.249 -10.247 -10.246 -10.244 -10.238 -10.237 -10.237 -10.236
-10.235 -10.234 -10.232 -10.232 -10.231 -10.231 -10.231 -10.231
-10.230 -10.228 -10.228 -10.224 -10.223 -10.223 -10.221 -10.218
-10.214 -10.211 -10.208 -10.207 -10.201 -10.200 -10.197 -10.192
-10.188 -10.182 -10.182 -10.181 -10.179 -10.178 -10.178 -10.172
-10.172 -10.170 -10.168 -10.164  -8.052  -8.036  -7.995  -7.986
 -7.981  -7.976  -7.971  -7.968  -6.017  -6.011  -6.010  -6.001
 -5.996  -5.994  -5.959  -5.956  -5.952  -5.950  -5.946  -5.945
 -5.943  -5.942  -5.940  -5.938  -5.937  -5.936  -5.933  -5.933
 -5.932  -5.929  -5.927  -5.924  -1.041  -1.035  -0.980  -0.956
 -0.953  -0.953  -0.937  -0.933  -0.916  -0.908  -0.901  -0.894
 -0.844  -0.838  -0.832  -0.832  -0.814  -0.811  -0.802  -0.801
 -0.799  -0.797  -0.793  -0.788  -0.785  -0.779  -0.767  -0.761
 -0.752  -0.744  -0.743  -0.738  -0.726  -0.716  -0.713  -0.704
 -0.695  -0.688  -0.674  -0.668  -0.654  -0.650  -0.646  -0.642
 -0.635  -0.634  -0.632  -0.623  -0.612  -0.606  -0.597  -0.596
 -0.591  -0.585  -0.583  -0.578  -0.576  -0.576  -0.566  -0.562
 -0.555  -0.552  -0.543  -0.530  -0.528  -0.520  -0.517  -0.510
 -0.508  -0.506  -0.504  -0.493  -0.488  -0.488  -0.478  -0.473
 -0.470  -0.469  -0.466  -0.465  -0.460  -0.456  -0.453  -0.449
 -0.445  -0.444  -0.437  -0.437  -0.434  -0.431  -0.430  -0.428
 -0.427  -0.423  -0.423  -0.421  -0.419  -0.416  -0.413  -0.411
 -0.409  -0.407  -0.405  -0.403  -0.401  -0.398  -0.396  -0.393
 -0.392  -0.390  -0.390  -0.386  -0.385  -0.383  -0.383  -0.382
 -0.379  -0.376  -0.373  -0.371  -0.362  -0.361  -0.360  -0.358
 -0.355  -0.351  -0.350  -0.347  -0.344  -0.342  -0.340  -0.337
 -0.334  -0.333  -0.330  -0.329  -0.326  -0.325  -0.323  -0.315
 -0.314  -0.310  -0.309  -0.305  -0.303  -0.301  -0.298  -0.297
 -0.294  -0.292  -0.291  -0.288  -0.282  -0.282  -0.280  -0.278
 -0.277  -0.272  -0.268  -0.259  -0.257  -0.256  -0.250  -0.246
 -0.245  -0.242  -0.235  -0.230  -0.195  -0.190

          Ground-State Mulliken Net Atomic Charges

     Atom                 Charge (a.u.)
  ----------------------------------------
      1 C                     0.278534
      2 C                    -0.126845
      3 N                    -0.476424
      4 C                    -0.068618
      5 C                     0.075877
      6 C                     0.023505
      7 C                    -0.007067
      8 C                     0.053744
      9 C                     0.240721
     10 N                    -0.504271
     11 N                    -0.548525
     12 C                     0.223942
     13 C                     0.263852
     14 S                     0.637328
     15 N                    -0.559020
     16 C                    -0.207363
     17 S                     0.305548
     18 C                    -0.109010
     19 C                    -0.221436
     20 S                     0.286094
     21 C                     0.184270
     22 C                     0.038298
     23 C                    -0.306736
     24 C                    -0.066408
     25 N                    -0.416326
     26 S                     0.247575
     27 C                     0.114757
     28 C                    -0.302530
     29 C                    -0.216934
     30 H                     0.088659
     31 H                     0.120312
     32 H                     0.109732
     33 H                     0.118275
     34 H                     0.120313
     35 H                     0.115748
     36 H                     0.117247
     37 H                     0.133854
     38 H                     0.088671
     39 C                    -0.183391
     40 H                     0.121749
     41 H                     0.091680
     42 H                     0.095124
     43 C                    -0.172197
     44 H                     0.117934
     45 C                    -0.167739
     46 H                     0.080831
     47 H                     0.087632
     48 H                     0.085305
     49 C                    -0.173658
     50 H                     0.093723
     51 C                    -0.319948
     52 H                     0.095736
     53 H                     0.095317
     54 H                     0.095412
     55 H                     0.099747
     56 C                     0.253211
     57 C                    -0.107088
     58 N                    -0.469105
     59 C                    -0.091322
     60 C                     0.081961
     61 C                     0.037400
     62 C                     0.029802
     63 C                     0.057381
     64 C                     0.211946
     65 N                    -0.522055
     66 N                    -0.546638
     67 C                     0.204136
     68 C                     0.257163
     69 S                     0.634442
     70 N                    -0.540674
     71 C                    -0.221040
     72 S                     0.332374
     73 C                    -0.108038
     74 C                    -0.216413
     75 S                     0.245483
     76 C                     0.168875
     77 C                     0.035979
     78 C                    -0.304712
     79 C                    -0.049298
     80 N                    -0.432191
     81 S                     0.272344
     82 C                     0.135654
     83 C                    -0.309739
     84 C                    -0.220300
     85 H                     0.101575
     86 H                     0.108421
     87 H                     0.117032
     88 H                     0.116290
     89 H                     0.127321
     90 H                     0.126282
     91 H                     0.124355
     92 H                     0.123500
     93 H                     0.084330
     94 C                    -0.175188
     95 H                     0.115579
     96 H                     0.094404
     97 H                     0.114856
     98 C                    -0.177783
     99 H                     0.088764
    100 C                    -0.169850
    101 H                     0.097345
    102 H                     0.089798
    103 H                     0.095872
    104 C                    -0.184735
    105 H                     0.094551
    106 C                    -0.319102
    107 H                     0.097283
    108 H                     0.103844
    109 H                     0.091048
    110 H                     0.102068
  ----------------------------------------
  Sum of atomic charges =     0.000000

                    Cartesian Multipole Moments
 -----------------------------------------------------------------
    Charge (ESU x 10^10)
                 0.0000
    Dipole Moment (Debye)
         X      -0.6440      Y      -0.3071      Z       3.3270
       Tot       3.4026
    Quadrupole Moments (Debye-Ang)
        XX    -440.6678     XY      -9.8234     YY    -413.6745
        XZ     -22.2881     YZ      11.1458     ZZ    -431.9241

 Total job time:  82.02s(wall), 961.91s(cpu)
        *  Thank you very much for using Q-Chem.  Have a nice day.  *
