 Q-Chem 4.4, Q-Chem, Inc., Pleasanton, CA (2016)
 Q-Chem 4.4.2 for Intel X86 Linux

User input:
--------------------------------------------------------------
$comment
SP
$end

$rem
MEM_STATIC 5000
MEM_TOTAL 20000
JOBTYPE SP
EXCHANGE B3LYP
BASIS 6-31g(d,p)
$end

$molecule
0 1
C          -5.159000     19.260000      7.525000
C          -5.556000     18.114000      8.202000
N          -5.776000     20.419000      7.744000
C          -6.702000     18.065000      8.976000
C          -6.920000     20.441000      8.531000
C          -7.438000     19.255000      9.203000
C          -8.520000     19.352000     10.212000
C          -9.647000     18.485000     10.271000
C          -8.453000     20.339000     11.197000
N         -10.658000     18.603000     11.136000
N          -7.505000     21.268000     11.354000
C          -9.508000     20.470000     12.117000
C         -10.678000     19.627000     12.016000
S          -7.937000     22.146000     12.653000
N          -9.418000     21.499000     12.937000
C         -11.812000     19.727000     12.854000
S         -11.846000     20.753000     14.314000
C         -13.074000     19.373000     12.578000
C         -13.641000     20.529000     14.505000
S         -13.616000     18.633000     11.112000
C         -14.085000     19.742000     13.449000
C         -14.474000     20.942000     15.636000
C         -15.217000     18.621000     11.847000
C         -15.318000     19.240000     13.106000
N         -15.767000     20.906000     15.595000
S         -13.719000     21.618000     17.045000
C         -16.269000     21.363000     16.799000
C         -15.327000     21.660000     17.781000
C          -3.776000     19.354000      6.812000
H          -4.910000     17.255000      8.048000
H          -6.832000     17.163000      9.567000
H          -7.257000     21.445000      8.787000
H          -9.720000     17.701000      9.518000
H         -15.934000     18.218000     11.144000
H         -16.172000     19.367000     13.761000
H         -17.322000     21.436000     17.039000
H         -15.461000     21.834000     18.840000
H          -3.503000     18.387000      6.370000
C          -2.567000     19.988000      7.595000
H          -3.976000     19.922000      5.896000
H          -2.782000     21.060000      7.677000
H          -1.604000     19.712000      7.148000
C          -2.543000     19.370000      8.993000
H          -3.339000     19.815000      9.605000
C          -1.270000     19.682000      9.856000
H          -2.788000     18.304000      8.918000
H          -1.134000     20.764000      9.968000
H          -0.333000     19.366000      9.381000
C          -1.205000     19.013000     11.270000
H          -2.056000     19.289000     11.905000
C          -0.000000     19.110000     12.167000
H          -1.314000     17.945000     11.042000
H           0.866000     18.643000     11.683000
H          -0.108000     18.679000     13.170000
H           0.276000     20.167000     12.268000
C         -13.609000     24.757000     16.659000
C         -14.643000     24.627000     15.733000
N         -12.291000     24.738000     16.400000
C         -14.285000     24.400000     14.403000
C         -11.939000     24.443000     15.108000
C         -12.877000     24.362000     14.051000
C         -12.413000     24.026000     12.675000
C         -13.165000     23.117000     11.877000
C         -11.180000     24.488000     12.062000
N         -12.713000     22.563000     10.687000
N         -10.241000     25.392000     12.545000
C         -10.859000     24.050000     10.763000
C         -11.582000     23.063000     10.108000
S          -9.018000     25.433000     11.529000
N          -9.628000     24.505000     10.370000
C         -11.143000     22.348000      8.976000
S         -11.306000     20.590000      8.768000
C         -10.612000     22.906000      7.835000
C         -10.644000     20.667000      7.117000
S         -10.469000     24.596000      7.396000
C         -10.316000     22.020000      6.847000
C         -10.343000     19.505000      6.333000
C          -9.908000     24.001000      5.745000
C          -9.851000     22.624000      5.687000
N         -10.305000     19.621000      5.003000
S         -10.155000     17.883000      6.892000
C          -9.919000     18.507000      4.367000
C          -9.564000     17.548000      5.294000
C         -13.925000     25.008000     18.187000
H         -15.672000     24.700000     16.074000
H         -14.985000     24.457000     13.575000
H         -10.876000     24.265000     14.957000
H         -14.117000     22.763000     12.270000
H          -9.558000     24.671000      4.970000
H          -9.550000     22.095000      4.790000
H          -9.793000     18.417000      3.296000
H          -9.170000     16.556000      5.115000
H         -14.996000     24.837000     18.355000
C         -13.510000     26.431000     18.683000
H         -13.425000     24.228000     18.774000
H         -13.753000     27.091000     17.841000
H         -12.418000     26.504000     18.757000
C         -14.212000     26.947000     19.988000
H         -15.289000     26.781000     19.863000
C         -14.015000     28.432000     20.170000
H         -13.931000     26.360000     20.871000
H         -14.093000     28.948000     19.206000
H         -12.985000     28.577000     20.519000
C         -15.080000     29.151000     21.128000
H         -15.138000     30.240000     21.006000
C         -14.675000     28.857000     22.589000
H         -16.076000     28.692000     21.135000
H         -14.663000     27.768000     22.718000
H         -15.490000     29.219000     23.227000
H         -13.774000     29.369000     22.952000
$end

--------------------------------------------------------------

             Standard Nuclear Orientation (Angstroms)
    I     Atom           X                Y                Z
 ----------------------------------------------------------------
    1      C      -7.1057148027     1.5811370689    -0.3340708489
    2      C      -6.8342890638     1.1674035057    -1.6319177609
    3      N      -6.1464505902     1.5753661358     0.5888104365
    4      C      -5.6414855693     0.5626149425    -1.9872255392
    5      C      -4.9177447711     1.0026866757     0.2872988345
    6      C      -4.5969051652     0.4735705641    -1.0331564233
    7      C      -3.2129422467     0.0787676453    -1.3895148039
    8      C      -2.8681720703    -1.1188049296    -2.0767210708
    9      C      -2.1518588654     0.9234753489    -1.0586765451
   10      N      -1.6208935290    -1.5136568709    -2.3462728928
   11      N      -2.2141669358     2.0939672875    -0.4164458029
   12      C      -0.8346351657     0.5220594750    -1.3421779047
   13      C      -0.5723823445    -0.7753418106    -1.9233176142
   14      S      -0.6844953055     2.6345408418    -0.3033355214
   15      N       0.1098810590     1.3250360116    -0.8922237036
   16      C       0.7180135524    -1.2896268933    -2.1852131716
   17      S       2.1965357357    -0.2980349984    -2.0581318290
   18      C       1.0953459381    -2.5731079149    -2.2517919808
   19      C       3.2657494291    -1.7612475421    -2.2145707293
   20      S       0.0501323133    -3.9411266904    -2.0887793787
   21      C       2.4445304764    -2.8784409850    -2.3100654567
   22      C       4.7199887377    -1.7869483815    -2.3823399163
   23      C       1.4869123146    -4.9241870134    -2.3586416197
   24      C       2.6992383246    -4.2198068194    -2.4707004791
   25      N       5.4091786102    -2.8789156633    -2.2960220434
   26      S       5.5781830631    -0.2922528428    -2.5864716055
   27      C       6.7459095251    -2.5845945159    -2.4883616472
   28      C       7.0406438932    -1.2619297508    -2.8102103250
   29      C      -8.3710688298     2.4237067505     0.0106747351
   30      H      -7.6461871766     1.3302915696    -2.3342011318
   31      H      -5.4890549330     0.4131550228    -3.0522192638
   32      H      -4.1505667666     1.1898963989     1.0379728176
   33      H      -3.6784420162    -1.7926163354    -2.3531895214
   34      H       1.2260955149    -5.9718721797    -2.2876670513
   35      H       3.7084773250    -4.5783470931    -2.6360954972
   36      H       7.5455235093    -3.3140251888    -2.4714391830
   37      H       7.9534583598    -0.8295494612    -3.1969014611
   38      H      -9.2226934104     2.1120959435    -0.6078851074
   39      C      -8.2412667609     3.9913528780     0.0592858644
   40      H      -8.7023090329     2.0389585900     0.9822347079
   41      H      -7.6432088142     4.2229490403     0.9485681087
   42      H      -9.2191153386     4.4825056573    -0.0177537781
   43      C      -7.4795765667     4.4338648160    -1.1900800678
   44      H      -6.4108637339     4.2132867641    -1.0660510224
   45      C      -7.4530850669     5.9791075283    -1.4624128795
   46      H      -7.8094581348     3.8301194967    -2.0437051263
   47      H      -7.0283206702     6.5158010918    -0.6060839554
   48      H      -8.4520789997     6.4223494890    -1.5572690147
   49      C      -6.7228349759     6.4449089628    -2.7666160187
   50      H      -5.6719172560     6.1312431749    -2.7946823622
   51      C      -6.7166564367     7.8755010333    -3.2350294616
   52      H      -7.2417234476     5.8823941440    -3.5532676777
   53      H      -7.7406241188     8.2041822265    -3.4489450038
   54      H      -6.0943826263     8.0945286417    -4.1115203124
   55      H      -6.3889597962     8.5134063701    -2.4047778773
   56      C       6.4553764247     0.7076106208     0.2849778300
   57      C       6.3183733341    -0.6072969206     0.7274485190
   58      N       5.5127272846     1.6644834470     0.3042908602
   59      C       5.0611347354    -0.9976053460     1.1917796928
   60      C       4.2600648780     1.2630414808     0.6914268092
   61      C       3.9925303712    -0.0158033476     1.2360690702
   62      C       2.5994289875    -0.3777752312     1.6231257717
   63      C       2.0927969453    -1.6723868156     1.3134584999
   64      C       1.6347610928     0.5144969481     2.2418084132
   65      N       0.7568810181    -2.0348959693     1.4194573161
   66      N       1.8046372166     1.8173871476     2.6955101111
   67      C       0.3390120018     0.0349892615     2.5127192318
   68      C      -0.1105012577    -1.1976913889     2.0606581256
   69      S       0.3892929125     2.3724032292     3.1628682716
   70      N      -0.4674400887     1.0233653023     3.0123018855
   71      C      -1.4594885937    -1.6001275446     2.0002569035
   72      S      -2.2013977581    -2.4364192599     0.6180181546
   73      C      -2.3724311049    -1.4910199512     3.0248726873
   74      C      -3.7459855885    -2.6183457414     1.4846929434
   75      S      -2.1155765152    -0.9892260006     4.6836368510
   76      C      -3.6022149313    -2.0043448803     2.7548999898
   77      C      -4.9376869004    -3.1301192086     0.8735981050
   78      C      -3.8640742213    -1.4863730648     4.9838826974
   79      C      -4.4736679111    -1.9421329559     3.8334825692
   80      N      -5.8802249852    -3.6643767883     1.6546171811
   81      S      -5.2685829798    -3.2821938895    -0.8134377796
   82      C      -6.9939521351    -4.0224307458     1.0020091831
   83      C      -6.8945434144    -3.6406975301    -0.3206520200
   84      C       7.8419560507     1.2308252844    -0.2639159271
   85      H       7.1777463365    -1.2710516911     0.6905886852
   86      H       4.8786570310    -1.9292026835     1.7187154462
   87      H       3.4786227567     2.0048927286     0.5382637023
   88      H       2.7803447473    -2.3969326915     0.8794305127
   89      H      -4.3650328017    -1.3204043480     5.9291445054
   90      H      -5.5014427423    -2.2864854327     3.8211834563
   91      H      -7.8783026865    -4.4377939679     1.4672128975
   92      H      -7.6334384566    -3.7419341487    -1.1049518757
   93      H       8.5046473865     0.3694783075    -0.4169766300
   94      C       8.5200169401     2.2891663796     0.6652329072
   95      H       7.6817670962     1.6386162829    -1.2694083440
   96      H       8.3026584315     1.9346408303     1.6804569779
   97      H       7.9831177479     3.2440396287     0.6084408687
   98      C      10.0664151739     2.4857809223     0.4861233759
   99      H      10.5216230062     1.4878382738     0.4886332945
  100      C      10.6640672774     3.2437365905     1.6460687057
  101      H      10.3203844833     2.9153918944    -0.4906841807
  102      H      10.2085939055     2.9192503356     2.5888776354
  103      H      10.3900489636     4.2978429464     1.5137820697
  104      C      12.2430801515     3.0547273910     1.8459283218
  105      H      12.6105658994     3.3281331198     2.8431106184
  106      C      12.9604729331     3.9505455594     0.8125651688
  107      H      12.6343825960     2.0820317084     1.5242273645
  108      H      12.6241478043     3.6425858210    -0.1848074833
  109      H      14.0265852128     3.6975179762     0.8537312851
  110      H      12.9123795994     5.0320828103     0.9960813975
 ----------------------------------------------------------------

   10   -5663.4807466295      7.42E-06 Convergence criterion met
 Total energy in the final basis set = -5663.4807466295

                    Orbital Energies (a.u.)
 --------------------------------------------------------------

 Alpha MOs
 -- Occupied --
-88.992 -88.987 -88.925 -88.920 -88.919 -88.919 -88.904 -88.903
-14.386 -14.380 -14.375 -14.375 -14.348 -14.346 -14.345 -14.335
-14.331 -14.327 -10.269 -10.265 -10.261 -10.260 -10.254 -10.252
-10.252 -10.251 -10.242 -10.239 -10.238 -10.238 -10.235 -10.232
-10.232 -10.231 -10.230 -10.230 -10.229 -10.228 -10.228 -10.225
-10.225 -10.224 -10.223 -10.221 -10.220 -10.220 -10.220 -10.220
-10.218 -10.210 -10.203 -10.201 -10.200 -10.194 -10.193 -10.189
-10.189 -10.186 -10.184 -10.183 -10.182 -10.180 -10.178 -10.178
-10.175 -10.174 -10.170 -10.169  -8.048  -8.043  -7.987  -7.981
 -7.977  -7.977  -7.964  -7.963  -6.013  -6.008  -6.007  -6.006
 -6.002  -6.000  -5.951  -5.948  -5.945  -5.944  -5.942  -5.942
 -5.941  -5.939  -5.938  -5.937  -5.934  -5.933  -5.928  -5.928
 -5.925  -5.925  -5.920  -5.919  -1.045  -1.036  -0.976  -0.972
 -0.959  -0.946  -0.934  -0.928  -0.917  -0.910  -0.908  -0.889
 -0.841  -0.837  -0.833  -0.827  -0.809  -0.807  -0.805  -0.804
 -0.800  -0.799  -0.797  -0.796  -0.781  -0.776  -0.766  -0.763
 -0.751  -0.747  -0.742  -0.738  -0.719  -0.717  -0.711  -0.710
 -0.694  -0.691  -0.675  -0.668  -0.653  -0.649  -0.643  -0.642
 -0.636  -0.630  -0.627  -0.625  -0.612  -0.609  -0.594  -0.592
 -0.592  -0.590  -0.582  -0.582  -0.572  -0.570  -0.567  -0.565
 -0.554  -0.549  -0.539  -0.537  -0.529  -0.522  -0.511  -0.509
 -0.505  -0.502  -0.501  -0.496  -0.486  -0.482  -0.481  -0.477
 -0.474  -0.469  -0.467  -0.462  -0.460  -0.460  -0.450  -0.449
 -0.445  -0.444  -0.442  -0.438  -0.434  -0.433  -0.432  -0.430
 -0.426  -0.425  -0.423  -0.423  -0.417  -0.416  -0.415  -0.412
 -0.409  -0.405  -0.402  -0.401  -0.400  -0.400  -0.398  -0.397
 -0.395  -0.393  -0.392  -0.388  -0.384  -0.383  -0.382  -0.381
 -0.379  -0.372  -0.371  -0.366  -0.365  -0.361  -0.357  -0.354
 -0.352  -0.351  -0.349  -0.346  -0.342  -0.338  -0.336  -0.335
 -0.333  -0.329  -0.328  -0.328  -0.325  -0.325  -0.323  -0.316
 -0.315  -0.311  -0.308  -0.306  -0.304  -0.303  -0.299  -0.297
 -0.294  -0.291  -0.290  -0.289  -0.286  -0.284  -0.279  -0.274
 -0.272  -0.270  -0.267  -0.261  -0.255  -0.252  -0.248  -0.244
 -0.243  -0.239  -0.229  -0.227  -0.191  -0.188

          Ground-State Mulliken Net Atomic Charges

     Atom                 Charge (a.u.)
  ----------------------------------------
      1 C                     0.261975
      2 C                    -0.099057
      3 N                    -0.471085
      4 C                    -0.072642
      5 C                     0.075918
      6 C                     0.010490
      7 C                     0.031145
      8 C                     0.038503
      9 C                     0.256680
     10 N                    -0.504577
     11 N                    -0.553373
     12 C                     0.208205
     13 C                     0.291211
     14 S                     0.587595
     15 N                    -0.574118
     16 C                    -0.200332
     17 S                     0.316204
     18 C                    -0.108141
     19 C                    -0.263379
     20 S                     0.307185
     21 C                     0.177646
     22 C                     0.086144
     23 C                    -0.321353
     24 C                    -0.063172
     25 N                    -0.450223
     26 S                     0.279228
     27 C                     0.111887
     28 C                    -0.312539
     29 C                    -0.238855
     30 H                     0.083753
     31 H                     0.102203
     32 H                     0.131692
     33 H                     0.114551
     34 H                     0.127787
     35 H                     0.129424
     36 H                     0.112781
     37 H                     0.137224
     38 H                     0.089340
     39 C                    -0.164067
     40 H                     0.111669
     41 H                     0.119047
     42 H                     0.100087
     43 C                    -0.177591
     44 H                     0.113084
     45 C                    -0.186659
     46 H                     0.085131
     47 H                     0.089837
     48 H                     0.082330
     49 C                    -0.174099
     50 H                     0.089448
     51 C                    -0.319245
     52 H                     0.088544
     53 H                     0.097758
     54 H                     0.106150
     55 H                     0.098689
     56 C                     0.249858
     57 C                    -0.099121
     58 N                    -0.468735
     59 C                    -0.089889
     60 C                     0.078391
     61 C                     0.038729
     62 C                     0.039902
     63 C                     0.059416
     64 C                     0.219018
     65 N                    -0.519602
     66 N                    -0.556210
     67 C                     0.203069
     68 C                     0.249335
     69 S                     0.633172
     70 N                    -0.548514
     71 C                    -0.223849
     72 S                     0.341853
     73 C                    -0.102916
     74 C                    -0.224004
     75 S                     0.244448
     76 C                     0.162685
     77 C                     0.043968
     78 C                    -0.306047
     79 C                    -0.044415
     80 N                    -0.430972
     81 S                     0.270914
     82 C                     0.135428
     83 C                    -0.311656
     84 C                    -0.216966
     85 H                     0.100202
     86 H                     0.108398
     87 H                     0.120896
     88 H                     0.123604
     89 H                     0.125217
     90 H                     0.125902
     91 H                     0.121351
     92 H                     0.119685
     93 H                     0.083769
     94 C                    -0.178776
     95 H                     0.107322
     96 H                     0.096202
     97 H                     0.115507
     98 C                    -0.177394
     99 H                     0.087506
    100 C                    -0.169277
    101 H                     0.095491
    102 H                     0.090546
    103 H                     0.096147
    104 C                    -0.185133
    105 H                     0.095157
    106 C                    -0.318704
    107 H                     0.096683
    108 H                     0.102851
    109 H                     0.090998
    110 H                     0.102523
  ----------------------------------------
  Sum of atomic charges =     0.000000

                    Cartesian Multipole Moments
 -----------------------------------------------------------------
    Charge (ESU x 10^10)
                 0.0000
    Dipole Moment (Debye)
         X       0.2866      Y      -0.5858      Z      -1.5887
       Tot       1.7174
    Quadrupole Moments (Debye-Ang)
        XX    -387.1899     XY      -2.0492     YY    -444.3243
        XZ       6.7460     YZ       3.9567     ZZ    -443.1125

 Total job time:  117.20s(wall), 1384.25s(cpu)
        *  Thank you very much for using Q-Chem.  Have a nice day.  *
