 Q-Chem 4.4, Q-Chem, Inc., Pleasanton, CA (2016)
 Q-Chem 4.4.2 for Intel X86 Linux

User input:
--------------------------------------------------------------
$comment
SP
$end

$rem
MEM_STATIC 5000
MEM_TOTAL 20000
JOBTYPE SP
EXCHANGE B3LYP
BASIS 6-31g(d,p)
$end

$molecule
0 1
C         -22.237000    -25.808000      1.312000
C         -22.982000    -26.943000      0.978000
N         -22.704000    -24.874000      2.127000
C         -24.270000    -27.132000      1.498000
C         -23.959000    -25.021000      2.657000
C         -24.773000    -26.128000      2.358000
C         -26.083000    -26.243000      3.109000
C         -26.366000    -25.502000      4.274000
C         -27.178000    -27.043000      2.590000
N         -27.551000    -25.502000      4.828000
N         -27.183000    -27.610000      1.379000
C         -28.452000    -26.977000      3.147000
C         -28.628000    -26.191000      4.345000
S         -28.652000    -28.200000      1.031000
N         -29.408000    -27.687000      2.449000
C         -29.993000    -26.080000      4.927000
S         -31.348000    -27.137000      4.609000
C         -30.341000    -25.025000      5.789000
C         -32.387000    -26.157000      5.719000
S         -29.450000    -23.562000      6.184000
C         -31.637000    -25.070000      6.128000
C         -33.792000    -26.159000      5.763000
C         -31.009000    -22.908000      6.651000
C         -32.024000    -23.839000      6.718000
N         -34.366000    -25.877000      6.952000
S         -34.902000    -26.632000      4.450000
C         -35.762000    -26.021000      6.877000
C         -36.235000    -26.317000      5.564000
C         -20.948000    -25.490000      0.557000
H         -22.529000    -27.662000      0.301000
H         -24.764000    -28.078000      1.294000
H         -24.362000    -24.224000      3.280000
H         -25.615000    -24.841000      4.704000
H         -31.037000    -21.903000      7.051000
H         -33.037000    -23.669000      7.064000
H         -36.355000    -25.692000      7.720000
H         -37.242000    -26.304000      5.167000
H         -20.464000    -24.589000      0.955000
C         -21.156000    -25.260000     -0.915000
H         -20.201000    -26.279000      0.703000
H         -21.969000    -24.530000     -1.014000
H         -21.541000    -26.209000     -1.307000
C         -19.894000    -24.913000     -1.727000
H         -20.160000    -24.744000     -2.778000
C         -18.800000    -25.967000     -1.709000
H         -19.450000    -23.961000     -1.410000
H         -18.310000    -26.065000     -0.732000
H         -17.936000    -25.569000     -2.254000
C         -19.377000    -27.236000     -2.258000
H         -20.139000    -27.662000     -1.594000
C         -18.195000    -28.240000     -2.481000
H         -19.892000    -27.119000     -3.219000
H         -18.562000    -29.264000     -2.622000
H         -17.678000    -28.262000     -1.514000
H         -17.335000    -28.067000     -3.139000
C         -20.506000    -11.784000      2.496000
C         -19.964000    -13.018000      3.014000
N         -21.688000    -11.732000      1.870000
C         -20.682000    -14.237000      3.007000
C         -22.360000    -12.887000      1.793000
C         -21.816000    -14.162000      2.161000
C         -22.487000    -15.428000      1.741000
C         -23.079000    -16.293000      2.650000
C         -22.548000    -15.836000      0.397000
N         -23.661000    -17.424000      2.351000
N         -22.150000    -15.047000     -0.602000
C         -23.138000    -17.028000      0.005000
C         -23.713000    -17.828000      1.070000
S         -22.302000    -15.964000     -1.984000
N         -23.194000    -17.220000     -1.343000
C         -24.216000    -19.193000      0.777000
S         -23.878000    -20.143000     -0.713000
C         -24.902000    -19.958000      1.632000
C         -24.674000    -21.544000     -0.070000
S         -25.464000    -19.608000      3.246000
C         -25.185000    -21.241000      1.146000
C         -24.815000    -22.825000     -0.790000
C         -26.307000    -21.222000      3.228000
C         -26.028000    -21.961000      2.083000
N         -25.340000    -23.914000     -0.210000
S         -24.415000    -23.044000     -2.481000
C         -25.552000    -24.952000     -1.079000
C         -24.994000    -24.739000     -2.287000
C         -19.652000    -10.488000      2.466000
H         -18.962000    -13.064000      3.431000
H         -20.237000    -15.172000      3.332000
H         -23.280000    -12.783000      1.220000
H         -22.964000    -16.078000      3.711000
H         -26.886000    -21.509000      4.096000
H         -26.297000    -22.986000      1.857000
H         -25.981000    -25.910000     -0.819000
H         -24.881000    -25.371000     -3.158000
H         -20.351000     -9.645000      2.525000
C         -18.997000    -10.341000      0.994000
H         -19.008000    -10.387000      3.348000
H         -19.814000    -10.418000      0.266000
H         -18.324000    -11.165000      0.727000
C         -18.230000     -8.971000      0.864000
H         -17.771000     -9.021000     -0.131000
C         -17.185000     -8.776000      1.932000
H         -18.975000     -8.166000      0.837000
H         -16.547000     -9.660000      1.810000
H         -17.712000     -8.665000      2.887000
C         -16.315000     -7.553000      1.587000
H         -16.513000     -7.315000      0.535000
C         -14.826000     -7.674000      1.758000
H         -16.735000     -6.673000      2.090000
H         -14.325000     -8.286000      0.998000
H         -14.706000     -8.324000      2.633000
H         -14.370000     -6.681000      1.860000
$end

--------------------------------------------------------------

             Standard Nuclear Orientation (Angstroms)
    I     Atom           X                Y                Z
 ----------------------------------------------------------------
    1      C      -1.6029352296    -4.6324619353     1.9305252630
    2      C      -2.8822524377    -5.0234064401     1.5239347130
    3      N      -1.2923436375    -3.3644944754     2.1551613761
    4      C      -3.8940134589    -4.0722429956     1.3323812276
    5      C      -2.2530910918    -2.4034315056     1.9795017700
    6      C      -3.5580807382    -2.7172713848     1.5600347831
    7      C      -4.5637781009    -1.5854167074     1.5316833516
    8      C      -4.3504935979    -0.3543228582     2.1838433438
    9      C      -5.7627823321    -1.6669282052     0.7167411884
   10      N      -5.1583596611     0.6631303873     2.0312579020
   11      N      -6.0068315829    -2.6458755938    -0.1608332948
   12      C      -6.5734800477    -0.5551549843     0.5060031545
   13      C      -6.2659488071     0.6549770044     1.2305589536
   14      S      -7.2964994035    -2.2854185060    -1.0740652480
   15      N      -7.5886646475    -0.7645442733    -0.4054771547
   16      C      -7.1007029247     1.8618045353     0.9835308700
   17      S      -8.6904401171     1.8957583240     0.2582855328
   18      C      -6.6317036420     3.1535177362     1.2813389952
   19      C      -8.7385299165     3.6965832871     0.4218025758
   20      S      -5.0186559799     3.6804764171     1.7403235141
   21      C      -7.5060430405     4.0966580514     0.9037427002
   22      C      -9.5962783259     4.5727550890    -0.2656242492
   23      C      -5.5283433854     5.2612694909     1.1767651706
   24      C      -6.8783168322     5.3690618658     0.9170971197
   25      N      -9.9205309614     5.7248975422     0.3589948315
   26      S     -10.4177790655     4.2655007877    -1.8182121949
   27      C     -10.8637740160     6.4486027421    -0.3904852039
   28      C     -11.1624534774     5.8578870324    -1.6542729747
   29      C      -0.4510480421    -5.6348862899     1.8993592463
   30      H      -3.0566272533    -6.0829416831     1.3581713500
   31      H      -4.8959396576    -4.4352901970     1.1204646831
   32      H      -1.9787573886    -1.3576133008     2.1089324529
   33      H      -3.4529023395    -0.1929230759     2.7789080823
   34      H      -4.8283348557     6.0812542554     1.2685368668
   35      H      -7.4152638943     6.2698416814     0.6431106666
   36      H     -11.1054808998     7.4540521737    -0.0723842405
   37      H     -11.6948893122     6.2642538759    -2.5046876209
   38      H       0.4775833464    -5.1879541995     2.2766607847
   39      C      -0.1532870378    -6.1641103136     0.5230568388
   40      H      -0.6388661415    -6.4722152537     2.5815986236
   41      H      -0.0591255108    -5.2959792702    -0.1411359782
   42      H      -1.0605089073    -6.6960715697     0.2124836564
   43      C       1.0143441582    -7.1637547305     0.4243378936
   44      H       1.1596842226    -7.4674292843    -0.6199685896
   45      C       0.8508776406    -8.4357539427     1.2388148434
   46      H       1.9719925533    -6.7061509510     0.7026135345
   47      H       0.9084879501    -8.2663581968     2.3215055349
   48      H       1.7734985446    -9.0203736740     1.1443932499
   49      C      -0.3957080173    -9.1226327636     0.7709337873
   50      H      -1.2982636512    -8.5524957488     1.0226342282
   51      C      -0.4270594152   -10.5482171257     1.4202375040
   52      H      -0.4562689887    -9.2571274154    -0.3156565483
   53      H      -1.4234952917   -11.0002663689     1.3433413020
   54      H      -0.2922441386   -10.3561124585     2.4915836843
   55      H       0.3365284288   -11.3227637350     1.2805802292
   56      C      10.1765604440     3.1597043369     0.6670303242
   57      C       9.4563508580     2.3861831803     1.6508022350
   58      N       9.6067732624     3.5722966705    -0.4717471492
   59      C       8.0736360633     2.1052142634     1.5474085009
   60      C       8.3133433305     3.2632574542    -0.6236411057
   61      C       7.5872695182     2.3839970661     0.2462456622
   62      C       6.2648293479     1.8252441361    -0.1640519848
   63      C       5.0821975939     2.1666602500     0.4760942264
   64      C       6.1329289362     0.9019879479    -1.2160602035
   65      N       3.8986755385     1.6978026297     0.1815877304
   66      N       7.1540435281     0.5856530271    -2.0136711413
   67      C       4.9124579408     0.3523612684    -1.5779843154
   68      C       3.7648799417     0.8052400644    -0.8145607552
   69      S       6.5767600555    -0.6006303366    -3.0302303248
   70      N       4.9525883211    -0.4496540002    -2.6790134074
   71      C       2.4457186727     0.1546386805    -1.0110661893
   72      S       2.1566851594    -1.4066779311    -1.8569941215
   73      C       1.2931884223     0.5827133668    -0.4864024067
   74      C       0.4771739237    -1.3978300753    -1.4222186342
   75      S       0.9586849806     1.9955231809     0.4807665944
   76      C       0.2028736765    -0.2571821619    -0.7474833439
   77      C      -0.4869707409    -2.4484596886    -1.8041145384
   78      C      -0.8055847530     1.5534063495     0.3921437172
   79      C      -1.0230448668     0.3366504867    -0.2459810899
   80      N      -1.7491283867    -2.4554848912    -1.3515057408
   81      S      -0.1354748536    -3.7274948711    -2.9477760456
   82      C      -2.5420650149    -3.4007324803    -1.9475824967
   83      C      -1.8385341217    -4.2636255789    -2.7068300074
   84      C      11.7075953673     3.3832409750     0.7927102157
   85      H       9.9567285524     1.9742761878     2.5225612570
   86      H       7.5598695625     1.4620296942     2.2546797307
   87      H       7.9335908408     3.5755391457    -1.5951415904
   88      H       5.1432479363     2.7922136085     1.3649850247
   89      H      -1.5230786682     2.2032205220     0.8758564656
   90      H      -1.9469494207    -0.2211634908    -0.3424483993
   91      H      -3.5910396072    -3.5612045117    -1.7394814830
   92      H      -2.1183476128    -5.1697919919    -3.2277914669
   93      H      11.9324958840     4.3330629576     0.2927212569
   94      C      12.4620861551     2.2810509914    -0.1201637576
   95      H      12.0291068091     3.5245377565     1.8317129165
   96      H      12.0292089676     2.3415954579    -1.1263216518
   97      H      12.2707879204     1.2464850394     0.1901139831
   98      C      14.0148185077     2.5470800384    -0.1385970741
   99      H      14.4182246379     1.7047539216    -0.7138850082
  100      C      14.6210193989     2.5995884457     1.2399664343
  101      H      14.1965753607     3.4564429061    -0.7249439179
  102      H      14.3377589412     1.6290132631     1.6655616973
  103      H      14.2307056037     3.4974635294     1.7334747680
  104      C      16.1570788141     2.6015701833     1.1296417061
  105      H      16.3974471637     2.2964261138     0.1041359025
  106      C      16.9340513354     1.7177856666     2.0657194963
  107      H      16.5057354757     3.6418775579     1.1324875218
  108      H      16.8858395946     0.6471541386     1.8321199259
  109      H      16.3548117244     1.7341571059     2.9967073851
  110      H      17.9665688838     2.0766743748     2.1631638772
 ----------------------------------------------------------------

    9   -5663.4965164562      6.69E-06 Convergence criterion met
 Total energy in the final basis set = -5663.4965164562

                    Orbital Energies (a.u.)
 --------------------------------------------------------------

 Alpha MOs
 -- Occupied --
-88.994 -88.984 -88.931 -88.930 -88.922 -88.921 -88.911 -88.905
-14.390 -14.388 -14.383 -14.378 -14.350 -14.348 -14.348 -14.341
-14.329 -14.324 -10.274 -10.271 -10.268 -10.267 -10.257 -10.256
-10.254 -10.248 -10.244 -10.240 -10.239 -10.239 -10.239 -10.239
-10.236 -10.232 -10.231 -10.229 -10.228 -10.227 -10.225 -10.224
-10.224 -10.224 -10.224 -10.221 -10.221 -10.216 -10.215 -10.215
-10.214 -10.208 -10.203 -10.202 -10.202 -10.196 -10.195 -10.194
-10.189 -10.184 -10.184 -10.177 -10.176 -10.176 -10.175 -10.175
-10.175 -10.173 -10.172 -10.171  -8.049  -8.040  -7.991  -7.988
 -7.983  -7.980  -7.971  -7.964  -6.014  -6.008  -6.006  -6.005
 -5.999  -5.997  -5.955  -5.953  -5.951  -5.949  -5.948  -5.947
 -5.945  -5.945  -5.944  -5.941  -5.940  -5.937  -5.936  -5.932
 -5.929  -5.927  -5.925  -5.920  -1.031  -1.028  -0.966  -0.961
 -0.959  -0.954  -0.938  -0.934  -0.917  -0.914  -0.898  -0.893
 -0.846  -0.836  -0.830  -0.827  -0.816  -0.809  -0.807  -0.805
 -0.800  -0.796  -0.793  -0.791  -0.785  -0.776  -0.767  -0.764
 -0.747  -0.747  -0.740  -0.737  -0.726  -0.721  -0.711  -0.707
 -0.693  -0.690  -0.677  -0.675  -0.654  -0.651  -0.645  -0.636
 -0.635  -0.634  -0.623  -0.621  -0.613  -0.608  -0.602  -0.592
 -0.591  -0.589  -0.587  -0.585  -0.579  -0.578  -0.561  -0.557
 -0.554  -0.549  -0.541  -0.538  -0.524  -0.519  -0.510  -0.507
 -0.506  -0.506  -0.495  -0.494  -0.485  -0.484  -0.479  -0.474
 -0.473  -0.471  -0.467  -0.463  -0.461  -0.459  -0.455  -0.448
 -0.445  -0.442  -0.440  -0.435  -0.434  -0.430  -0.428  -0.427
 -0.426  -0.426  -0.422  -0.420  -0.417  -0.417  -0.414  -0.411
 -0.411  -0.410  -0.407  -0.405  -0.403  -0.400  -0.398  -0.396
 -0.396  -0.392  -0.391  -0.389  -0.387  -0.385  -0.385  -0.381
 -0.379  -0.375  -0.374  -0.373  -0.370  -0.362  -0.359  -0.357
 -0.354  -0.349  -0.348  -0.348  -0.345  -0.340  -0.338  -0.337
 -0.335  -0.335  -0.332  -0.330  -0.327  -0.327  -0.320  -0.320
 -0.314  -0.310  -0.307  -0.306  -0.303  -0.300  -0.298  -0.298
 -0.297  -0.296  -0.289  -0.286  -0.285  -0.284  -0.281  -0.276
 -0.273  -0.266  -0.265  -0.259  -0.252  -0.252  -0.249  -0.248
 -0.244  -0.242  -0.230  -0.230  -0.196  -0.193

          Ground-State Mulliken Net Atomic Charges

     Atom                 Charge (a.u.)
  ----------------------------------------
      1 C                     0.283101
      2 C                    -0.117728
      3 N                    -0.496818
      4 C                    -0.068076
      5 C                     0.077105
      6 C                     0.063516
      7 C                     0.025386
      8 C                     0.069662
      9 C                     0.227414
     10 N                    -0.528979
     11 N                    -0.551651
     12 C                     0.198223
     13 C                     0.308059
     14 S                     0.602940
     15 N                    -0.585266
     16 C                    -0.219745
     17 S                     0.335586
     18 C                    -0.116766
     19 C                    -0.204264
     20 S                     0.280854
     21 C                     0.172823
     22 C                     0.011077
     23 C                    -0.311162
     24 C                    -0.055598
     25 N                    -0.414066
     26 S                     0.276405
     27 C                     0.109192
     28 C                    -0.308794
     29 C                    -0.222373
     30 H                     0.084323
     31 H                     0.115670
     32 H                     0.109185
     33 H                     0.118936
     34 H                     0.126573
     35 H                     0.114738
     36 H                     0.121195
     37 H                     0.139474
     38 H                     0.113682
     39 C                    -0.187983
     40 H                     0.098056
     41 H                     0.116604
     42 H                     0.085388
     43 C                    -0.182126
     44 H                     0.092287
     45 C                    -0.169538
     46 H                     0.083325
     47 H                     0.096159
     48 H                     0.092137
     49 C                    -0.167584
     50 H                     0.101058
     51 C                    -0.333109
     52 H                     0.097261
     53 H                     0.092398
     54 H                     0.098016
     55 H                     0.108089
     56 C                     0.246466
     57 C                    -0.116472
     58 N                    -0.440948
     59 C                    -0.067552
     60 C                     0.087300
     61 C                     0.011828
     62 C                    -0.002980
     63 C                     0.068693
     64 C                     0.239691
     65 N                    -0.502636
     66 N                    -0.547477
     67 C                     0.217496
     68 C                     0.294180
     69 S                     0.589182
     70 N                    -0.566442
     71 C                    -0.225675
     72 S                     0.312262
     73 C                    -0.093980
     74 C                    -0.230053
     75 S                     0.272470
     76 C                     0.163199
     77 C                     0.071096
     78 C                    -0.327577
     79 C                    -0.049980
     80 N                    -0.455391
     81 S                     0.242543
     82 C                     0.143089
     83 C                    -0.306810
     84 C                    -0.227762
     85 H                     0.086832
     86 H                     0.111453
     87 H                     0.105032
     88 H                     0.106854
     89 H                     0.137877
     90 H                     0.129536
     91 H                     0.132265
     92 H                     0.128362
     93 H                     0.118315
     94 C                    -0.187419
     95 H                     0.100391
     96 H                     0.115974
     97 H                     0.092384
     98 C                    -0.192247
     99 H                     0.091346
    100 C                    -0.163576
    101 H                     0.094953
    102 H                     0.091984
    103 H                     0.101059
    104 C                    -0.178610
    105 H                     0.094109
    106 C                    -0.320334
    107 H                     0.091859
    108 H                     0.103014
    109 H                     0.101254
    110 H                     0.105298
  ----------------------------------------
  Sum of atomic charges =     0.000000

                    Cartesian Multipole Moments
 -----------------------------------------------------------------
    Charge (ESU x 10^10)
                 0.0000
    Dipole Moment (Debye)
         X      -1.8714      Y      -2.7313      Z      -1.8489
       Tot       3.7921
    Quadrupole Moments (Debye-Ang)
        XX    -409.1683     XY     -11.6049     YY    -413.2075
        XZ      37.4005     YZ       2.9527     ZZ    -446.2563

 Total job time:  86.44s(wall), 1038.52s(cpu)
        *  Thank you very much for using Q-Chem.  Have a nice day.  *
