 Q-Chem 4.4, Q-Chem, Inc., Pleasanton, CA (2016)
 Q-Chem 4.4.2 for Intel X86 Linux

User input:
--------------------------------------------------------------
$comment
SP
$end

$rem
MEM_STATIC 5000
MEM_TOTAL 20000
JOBTYPE SP
EXCHANGE B3LYP
BASIS 6-31g(d,p)
$end

$molecule
0 1
C          17.240000     15.391000    -12.756000
C          17.884000     14.135000    -12.850000
N          17.715000     16.429000    -12.030000
C          19.008000     13.934000    -12.074000
C          18.881000     16.244000    -11.319000
C          19.553000     14.980000    -11.280000
C          20.826000     14.796000    -10.505000
C          20.852000     15.243000     -9.161000
C          22.134000     14.446000    -11.051000
N          21.964000     15.245000     -8.419000
N          22.352000     13.903000    -12.315000
C          23.287000     14.474000    -10.259000
C          23.137000     14.781000     -8.864000
S          23.936000     13.537000    -12.423000
N          24.365000     13.990000    -10.930000
C          24.259000     14.556000     -7.859000
S          25.701000     13.655000     -8.098000
C          24.120000     14.941000     -6.534000
C          26.146000     13.758000     -6.358000
S          22.965000     16.006000     -5.632000
C          25.200000     14.502000     -5.678000
C          27.372000     13.270000     -5.754000
C          23.892000     15.834000     -4.141000
C          25.027000     15.002000     -4.303000
N          28.209000     12.613000     -6.602000
S          27.783000     13.139000     -4.073000
C          29.253000     12.056000     -5.979000
C          29.242000     12.341000     -4.630000
C          15.872000     15.580000    -13.434000
H          17.392000     13.354000    -13.422000
H          19.524000     12.979000    -12.119000
H          19.112000     17.093000    -10.678000
H          20.076000     15.810000     -8.650000
H          23.551000     16.341000     -3.248000
H          25.702000     14.755000     -3.491000
H          29.946000     11.402000     -6.493000
H          29.927000     11.889000     -3.924000
H          15.325000     14.631000    -13.378000
C          15.922000     16.132000    -14.863000
H          15.329000     16.336000    -12.854000
H          16.675000     15.537000    -15.393000
H          16.340000     17.147000    -14.853000
C          14.546000     16.078000    -15.583000
H          14.122000     15.067000    -15.619000
C          14.710000     16.489000    -17.080000
H          13.874000     16.690000    -14.968000
H          15.595000     17.109000    -17.271000
H          13.810000     17.064000    -17.328000
C          14.985000     15.229000    -17.938000
H          15.824000     14.710000    -17.458000
C          15.358000     15.610000    -19.379000
H          14.153000     14.516000    -17.989000
H          14.576000     16.239000    -19.822000
H          15.443000     14.668000    -19.935000
H          16.344000     16.087000    -19.329000
C          27.375000     14.518000    -15.187000
C          27.674000     15.895000    -15.075000
N          27.067000     13.751000    -14.152000
C          27.580000     16.478000    -13.827000
C          27.005000     14.296000    -12.925000
C          27.336000     15.665000    -12.671000
C          27.373000     16.209000    -11.271000
C          27.837000     15.479000    -10.231000
C          26.848000     17.513000    -10.950000
N          27.957000     15.939000     -8.972000
N          26.456000     18.416000    -11.836000
C          26.880000     17.935000     -9.663000
C          27.416000     17.150000     -8.659000
S          25.952000     19.723000    -10.980000
N          26.313000     19.206000     -9.437000
C          27.350000     17.638000     -7.286000
S          26.149000     18.670000     -6.534000
C          28.193000     17.195000     -6.311000
C          26.590000     18.148000     -4.928000
S          29.468000     16.077000     -6.485000
C          27.762000     17.423000     -4.983000
C          25.984000     18.611000     -3.700000
C          29.403000     15.827000     -4.766000
C          28.565000     16.636000     -4.086000
N          24.953000     19.353000     -3.785000
S          26.612000     18.350000     -2.073000
C          24.337000     19.595000     -2.521000
C          25.055000     19.131000     -1.474000
C          27.424000     13.882000    -16.558000
H          27.876000     16.545000    -15.922000
H          27.686000     17.551000    -13.692000
H          26.797000     13.538000    -12.171000
H          28.205000     14.460000    -10.341000
H          30.017000     15.010000     -4.413000
H          28.398000     16.522000     -3.021000
H          23.383000     20.092000     -2.633000
H          24.783000     19.063000     -0.429000
H          26.592000     13.174000    -16.659000
C          28.757000     13.108000    -16.781000
H          27.322000     14.725000    -17.253000
H          29.630000     13.719000    -16.520000
H          28.931000     12.957000    -17.853000
C          28.909000     11.820000    -16.015000
H          29.869000     11.325000    -16.207000
C          27.828000     10.739000    -16.041000
H          28.977000     11.966000    -14.930000
H          26.943000     11.079000    -15.489000
H          28.081000      9.831000    -15.480000
C          27.563000     10.292000    -17.481000
H          26.983000     11.015000    -18.067000
C          26.779000      8.951000    -17.613000
H          28.520000     10.138000    -17.995000
H          27.409000      8.181000    -17.152000
H          26.641000      8.634000    -18.654000
H          25.784000      9.093000    -17.172000
$end

--------------------------------------------------------------

             Standard Nuclear Orientation (Angstroms)
    I     Atom           X                Y                Z
 ----------------------------------------------------------------
    1      C      -6.6575581143    -4.3178195973    -0.8468621198
    2      C      -6.5355763018    -3.2914087015    -1.8126307829
    3      N      -5.6576759545    -4.6946014917    -0.0171536948
    4      C      -5.2920760840    -2.7150641597    -1.9784233565
    5      C      -4.4405437806    -4.0594123587    -0.1372621316
    6      C      -4.1960554280    -3.0733817240    -1.1466035173
    7      C      -2.8657987624    -2.3860896303    -1.2608697919
    8      C      -1.7032147743    -3.1953364843    -1.2792817438
    9      C      -2.6064770403    -0.9592758687    -1.0922437731
   10      N      -0.4665254344    -2.6884678043    -1.2510750480
   11      N      -3.5777709645     0.0383664897    -1.1292145384
   12      C      -1.3023581624    -0.4546526880    -1.0465666694
   13      C      -0.2182356160    -1.3740851647    -1.2517403164
   14      S      -2.8084381059     1.4724623853    -1.0506530027
   15      N      -1.2939316311     0.9038509379    -1.0152954051
   16      C       1.2060784858    -0.9027887052    -1.5139291540
   17      S       1.7155859008     0.6866353496    -1.9169420173
   18      C       2.2504665527    -1.8086855717    -1.6224438210
   19      C       3.3915136926     0.1415406459    -2.2780123718
   20      S       2.4636781068    -3.5608633005    -1.2146840388
   21      C       3.5011886113    -1.2161678738    -2.0425320376
   22      C       4.5153072133     0.9909824417    -2.6266852246
   23      C       4.1766859450    -3.5014559162    -1.6318997012
   24      C       4.5821719548    -2.2168045238    -2.0700148642
   25      N       4.2191927943     2.3128549541    -2.7543226483
   26      S       6.0922981080     0.5367126861    -3.1911156518
   27      C       5.2448473704     3.0362808025    -3.2158437556
   28      C       6.3683144288     2.2568187940    -3.3930660623
   29      C      -7.9630410904    -5.1292033791    -0.7820581265
   30      H      -7.3857454248    -3.1008514542    -2.4607892494
   31      H      -5.1628472524    -1.9269855990    -2.7149952072
   32      H      -3.6746810584    -4.5143465787     0.4884631647
   33      H      -1.6569793960    -4.2696800968    -1.1106576294
   34      H       4.7726466862    -4.3996222204    -1.5375223477
   35      H       5.5916276358    -1.9929823813    -2.3969412728
   36      H       5.1368838211     4.0798912901    -3.4830178977
   37      H       7.2699326254     2.6181156859    -3.8710976339
   38      H      -8.3595565918    -5.2269233489    -1.7999835975
   39      C      -9.0152838690    -4.5963757705     0.1967804069
   40      H      -7.7020213230    -6.1261596235    -0.4069155831
   41      H      -9.0938477652    -3.5201467055     0.0031500532
   42      H      -8.6302423405    -4.6572524060     1.2229802201
   43      C     -10.3922985427    -5.3014904178     0.0507121942
   44      H     -10.8012592055    -5.2340540909    -0.9648647443
   45      C     -11.4534483027    -4.5924855272     0.9496556028
   46      H     -10.1963306554    -6.3623854623     0.2518372593
   47      H     -11.0173757219    -4.0388361244     1.7907376696
   48      H     -12.0909615810    -5.3940721816     1.3410181654
   49      C     -12.1610768630    -3.4785158282     0.1386547826
   50      H     -11.3632240047    -2.8599908662    -0.2909260454
   51      C     -13.0614161060    -2.6217363631     1.0420313353
   52      H     -12.7751769628    -3.8364709386    -0.6967751703
   53      H     -13.7817966822    -3.2553341393     1.5740272784
   54      H     -13.5903391791    -1.9255172591     0.3792762207
   55      H     -12.3920402990    -2.0532279913     1.6985062093
   56      C      -2.9430182791     5.1577639643     1.5626243359
   57      C      -2.4944333291     4.8164952363     2.8589195175
   58      N      -2.3862551949     4.6975112399     0.4524170139
   59      C      -1.4596980170     3.9088629560     2.9673421978
   60      C      -1.3553524240     3.8396749869     0.5404763131
   61      C      -0.7746929053     3.4567402681     1.7912494838
   62      C       0.4526448656     2.5919130304     1.8462117001
   63      C       1.4602121777     2.7208169010     0.9529100133
   64      C       0.5888685946     1.5291273451     2.8111011667
   65      N       2.6095992045     2.0221716339     0.9963295194
   66      N      -0.2294619381     1.3155846527     3.8303183456
   67      C       1.7053905282     0.7620582452     2.7896356609
   68      C       2.7175736734     0.9859387344     1.8748133793
   69      S       0.3518950537     0.0051802003     4.6302341032
   70      N       1.7362661967    -0.2745010811     3.7449353292
   71      C       3.8565358837     0.0747612558     1.8625787545
   72      S       3.9176263885    -1.6272949149     2.2775507318
   73      C       5.0673513573     0.4243836966     1.3437213195
   74      C       5.3980494086    -1.8732931228     1.3864651224
   75      S       5.5044185403     1.9329222048     0.6810684339
   76      C       5.9257727427    -0.6526749831     1.0206325926
   77      C       6.1073540108    -3.1273581141     1.2690045810
   78      C       6.8236242419     1.1315747095    -0.1184467372
   79      C       7.0039196669    -0.1659942230     0.2023856570
   80      N       5.5493858459    -4.1749845080     1.7293310583
   81      S       7.7471908253    -3.3356919306     0.6548659625
   82      C       6.2520872615    -5.3710073854     1.3954807968
   83      C       7.4467611665    -5.1468897680     0.8042494086
   84      C      -4.1101795091     6.1105953965     1.4346207225
   85      H      -2.9756758474     5.1454395366     3.7759333047
   86      H      -1.1442094424     3.5198589879     3.9316724691
   87      H      -0.9674215396     3.5925794223    -0.4468419794
   88      H       1.4434960408     3.4489472223     0.1433225838
   89      H       7.3495642521     1.7487188942    -0.8337188260
   90      H       7.7542639388    -0.7773440738    -0.2858200716
   91      H       5.6830849201    -6.2523013397     1.6585897128
   92      H       8.1270923889    -5.8481752712     0.3395117721
   93      H      -4.7640410924     5.7753248201     0.6199136153
   94      C      -3.6328622302     7.5586177597     1.1166687595
   95      H      -4.6162350500     6.0533609627     2.4065826606
   96      H      -2.8392985115     7.8840947227     1.8006953459
   97      H      -4.4208333255     8.2791211648     1.3661429992
   98      C      -3.1011751256     7.7884751021    -0.2737550698
   99      H      -2.7743443700     8.8231385599    -0.4354405246
  100      C      -3.8874843956     7.3620761549    -1.5137952586
  101      H      -2.1648960319     7.2533136920    -0.4741265344
  102      H      -3.9012703511     6.2679241915    -1.5923473338
  103      H      -3.4122293946     7.6282099334    -2.4658979295
  104      C      -5.2644691633     8.0310207330    -1.5215477303
  105      H      -5.9721649871     7.5906205995    -0.8089894215
  106      C      -6.0018602981     7.9880388695    -2.8944162140
  107      H      -5.1535030369     9.0926325203    -1.2677211523
  108      H      -5.3730346321     8.5468762269    -3.5976943167
  109      H      -6.9658172073     8.5113326224    -2.8815816718
  110      H      -6.1952415112     6.9370359799    -3.1447492570
 ----------------------------------------------------------------

   10   -5663.5117574096      3.73E-06 Convergence criterion met
 Total energy in the final basis set = -5663.5117574096

                    Orbital Energies (a.u.)
 --------------------------------------------------------------

 Alpha MOs
 -- Occupied --
-88.990 -88.989 -88.932 -88.922 -88.921 -88.916 -88.906 -88.900
-14.393 -14.382 -14.378 -14.375 -14.345 -14.343 -14.334 -14.332
-14.329 -14.329 -10.267 -10.266 -10.263 -10.257 -10.257 -10.252
-10.251 -10.246 -10.238 -10.237 -10.237 -10.235 -10.232 -10.231
-10.230 -10.230 -10.229 -10.229 -10.229 -10.228 -10.228 -10.228
-10.227 -10.227 -10.224 -10.219 -10.219 -10.218 -10.217 -10.216
-10.211 -10.208 -10.208 -10.208 -10.205 -10.198 -10.197 -10.196
-10.186 -10.183 -10.180 -10.179 -10.178 -10.177 -10.177 -10.171
-10.169 -10.167 -10.167 -10.166  -8.045  -8.044  -7.993  -7.981
 -7.980  -7.975  -7.965  -7.962  -6.010  -6.009  -6.004  -6.003
 -6.002  -6.002  -5.957  -5.953  -5.950  -5.945  -5.944  -5.942
 -5.940  -5.939  -5.937  -5.936  -5.935  -5.931  -5.929  -5.926
 -5.925  -5.923  -5.921  -5.918  -1.033  -1.027  -0.965  -0.964
 -0.956  -0.955  -0.944  -0.926  -0.915  -0.898  -0.897  -0.883
 -0.848  -0.832  -0.828  -0.823  -0.811  -0.806  -0.806  -0.804
 -0.801  -0.797  -0.790  -0.789  -0.784  -0.782  -0.767  -0.765
 -0.748  -0.744  -0.739  -0.732  -0.721  -0.717  -0.711  -0.706
 -0.695  -0.688  -0.676  -0.672  -0.657  -0.646  -0.643  -0.637
 -0.637  -0.626  -0.623  -0.622  -0.608  -0.604  -0.602  -0.595
 -0.594  -0.589  -0.586  -0.579  -0.577  -0.571  -0.569  -0.547
 -0.540  -0.539  -0.533  -0.531  -0.520  -0.517  -0.514  -0.511
 -0.504  -0.500  -0.499  -0.493  -0.490  -0.484  -0.478  -0.471
 -0.471  -0.468  -0.466  -0.463  -0.461  -0.461  -0.451  -0.449
 -0.447  -0.442  -0.437  -0.436  -0.434  -0.432  -0.432  -0.430
 -0.423  -0.422  -0.420  -0.417  -0.416  -0.415  -0.413  -0.413
 -0.409  -0.408  -0.406  -0.404  -0.400  -0.399  -0.397  -0.395
 -0.395  -0.390  -0.390  -0.388  -0.382  -0.382  -0.380  -0.379
 -0.375  -0.373  -0.372  -0.370  -0.369  -0.360  -0.354  -0.352
 -0.349  -0.348  -0.344  -0.342  -0.340  -0.338  -0.336  -0.336
 -0.335  -0.334  -0.333  -0.332  -0.330  -0.325  -0.324  -0.312
 -0.311  -0.307  -0.306  -0.304  -0.302  -0.298  -0.297  -0.295
 -0.294  -0.292  -0.289  -0.284  -0.283  -0.281  -0.274  -0.272
 -0.271  -0.270  -0.268  -0.254  -0.253  -0.252  -0.250  -0.248
 -0.239  -0.237  -0.231  -0.228  -0.193  -0.190

          Ground-State Mulliken Net Atomic Charges

     Atom                 Charge (a.u.)
  ----------------------------------------
      1 C                     0.262482
      2 C                    -0.101665
      3 N                    -0.480052
      4 C                    -0.065716
      5 C                     0.067471
      6 C                     0.027473
      7 C                    -0.009591
      8 C                     0.055821
      9 C                     0.216296
     10 N                    -0.508328
     11 N                    -0.553813
     12 C                     0.218561
     13 C                     0.316921
     14 S                     0.644270
     15 N                    -0.590140
     16 C                    -0.228736
     17 S                     0.369963
     18 C                    -0.122795
     19 C                    -0.234687
     20 S                     0.291005
     21 C                     0.140981
     22 C                     0.060361
     23 C                    -0.303072
     24 C                    -0.085377
     25 N                    -0.430188
     26 S                     0.290237
     27 C                     0.142209
     28 C                    -0.342765
     29 C                    -0.226018
     30 H                     0.093239
     31 H                     0.108069
     32 H                     0.107761
     33 H                     0.121721
     34 H                     0.142527
     35 H                     0.107078
     36 H                     0.121065
     37 H                     0.119787
     38 H                     0.095028
     39 C                    -0.177464
     40 H                     0.115809
     41 H                     0.089682
     42 H                     0.111263
     43 C                    -0.181087
     44 H                     0.094031
     45 C                    -0.167074
     46 H                     0.090223
     47 H                     0.093079
     48 H                     0.088765
     49 C                    -0.185068
     50 H                     0.096492
     51 C                    -0.314577
     52 H                     0.091538
     53 H                     0.106715
     54 H                     0.097862
     55 H                     0.103947
     56 C                     0.274446
     57 C                    -0.118013
     58 N                    -0.471306
     59 C                    -0.061709
     60 C                     0.043776
     61 C                     0.009486
     62 C                     0.060462
     63 C                     0.051216
     64 C                     0.267578
     65 N                    -0.519617
     66 N                    -0.564640
     67 C                     0.193013
     68 C                     0.274827
     69 S                     0.608042
     70 N                    -0.554828
     71 C                    -0.193107
     72 S                     0.367279
     73 C                    -0.138126
     74 C                    -0.216968
     75 S                     0.303098
     76 C                     0.125067
     77 C                     0.103142
     78 C                    -0.297162
     79 C                    -0.082432
     80 N                    -0.444594
     81 S                     0.220053
     82 C                     0.124454
     83 C                    -0.319464
     84 C                    -0.222174
     85 H                     0.095279
     86 H                     0.119771
     87 H                     0.124117
     88 H                     0.122021
     89 H                     0.130993
     90 H                     0.110106
     91 H                     0.123007
     92 H                     0.133732
     93 H                     0.120041
     94 C                    -0.177901
     95 H                     0.091649
     96 H                     0.095203
     97 H                     0.096745
     98 C                    -0.173966
     99 H                     0.084738
    100 C                    -0.177930
    101 H                     0.102136
    102 H                     0.104698
    103 H                     0.084026
    104 C                    -0.173501
    105 H                     0.089470
    106 C                    -0.321547
    107 H                     0.087750
    108 H                     0.099291
    109 H                     0.094904
    110 H                     0.101846
  ----------------------------------------
  Sum of atomic charges =     0.000000

                    Cartesian Multipole Moments
 -----------------------------------------------------------------
    Charge (ESU x 10^10)
                 0.0000
    Dipole Moment (Debye)
         X       1.7540      Y       0.6527      Z      -0.9318
       Tot       2.0906
    Quadrupole Moments (Debye-Ang)
        XX    -401.6960     XY      -8.5290     YY    -431.0577
        XZ     -17.4399     YZ       8.9431     ZZ    -437.5561

 Total job time:  105.27s(wall), 1241.34s(cpu)
        *  Thank you very much for using Q-Chem.  Have a nice day.  *
