 Q-Chem 4.4, Q-Chem, Inc., Pleasanton, CA (2016)
 Q-Chem 4.4.2 for Intel X86 Linux

User input:
--------------------------------------------------------------
$comment
SP
$end

$rem
MEM_STATIC 5000
MEM_TOTAL 20000
JOBTYPE SP
EXCHANGE B3LYP
BASIS 6-31g(d,p)
$end

$molecule
0 1
C          -1.674000      7.136000     15.870000
C          -2.630000      6.145000     16.169000
N          -0.962000      7.015000     14.778000
C          -2.719000      4.976000     15.346000
C          -1.041000      5.975000     13.939000
C          -1.919000      4.871000     14.184000
C          -1.967000      3.714000     13.243000
C          -0.775000      3.340000     12.623000
C          -3.170000      3.256000     12.619000
N          -0.711000      2.527000     11.561000
N          -4.432000      3.575000     13.076000
C          -3.112000      2.507000     11.475000
C          -1.814000      2.045000     10.984000
S          -5.456000      2.899000     12.030000
N          -4.391000      2.200000     11.021000
C          -1.375000      1.081000      9.967000
S           0.239000      1.307000      9.205000
C          -2.073000      0.119000      9.261000
C          -0.261000      0.201000      7.930000
S          -3.801000     -0.283000      9.458000
C          -1.502000     -0.283000      8.078000
C           0.433000      0.121000      6.665000
C          -3.644000     -1.121000      7.922000
C          -2.367000     -1.139000      7.376000
N           0.256000     -0.865000      5.868000
S           1.478000      1.417000      6.105000
C           0.893000     -0.704000      4.666000
C           1.657000      0.483000      4.650000
C          -1.589000      8.413000     16.746000
H          -3.348000      6.183000     16.982000
H          -3.521000      4.270000     15.537000
H          -0.387000      5.975000     13.068000
H           0.156000      3.795000     12.957000
H          -4.569000     -1.619000      7.660000
H          -2.045000     -1.637000      6.469000
H           0.774000     -1.504000      3.947000
H           2.292000      0.928000      3.895000
H          -1.355000      9.268000     16.100000
C          -0.531000      8.254000     17.888000
H          -2.585000      8.640000     17.148000
H          -0.701000      7.308000     18.418000
H          -0.626000      8.972000     18.712000
C           0.975000      8.208000     17.475000
H           1.166000      7.193000     17.106000
C           2.090000      8.616000     18.469000
H           1.056000      8.745000     16.521000
H           1.700000      9.412000     19.115000
H           2.953000      8.873000     17.842000
C           2.493000      7.484000     19.471000
H           1.618000      7.035000     19.957000
C           3.555000      7.857000     20.574000
H           2.835000      6.692000     18.794000
H           3.759000      7.009000     21.239000
H           3.197000      8.760000     21.084000
H           4.463000      8.132000     20.022000
C           7.213000      8.630000     13.336000
C           6.064000      8.343000     12.488000
N           7.914000      7.666000     13.905000
C           5.751000      7.049000     12.145000
C           7.533000      6.351000     13.672000
C           6.535000      5.961000     12.646000
C           6.068000      4.556000     12.316000
C           5.244000      4.304000     11.225000
C           6.284000      3.459000     13.213000
N           4.690000      3.103000     10.998000
N           7.095000      3.508000     14.310000
C           5.526000      2.346000     13.076000
C           4.788000      2.118000     11.873000
S           6.654000      2.199000     15.222000
N           5.624000      1.519000     14.098000
C           4.054000      0.886000     11.640000
S           3.044000     -0.088000     12.683000
C           3.919000      0.465000     10.342000
C           2.393000     -0.825000     11.290000
S           4.724000      1.015000      8.972000
C           3.045000     -0.551000     10.169000
C           1.178000     -1.592000     11.512000
C           3.772000     -0.095000      7.989000
C           2.912000     -0.863000      8.735000
N           0.550000     -2.058000     10.438000
S           0.403000     -1.967000     13.099000
C          -0.601000     -2.751000     10.788000
C          -0.821000     -2.859000     12.180000
C           7.725000     10.064000     13.440000
H           5.430000      9.161000     12.159000
H           4.843000      6.997000     11.551000
H           8.092000      5.591000     14.216000
H           5.050000      5.038000     10.445000
H           3.999000     -0.177000      6.934000
H           2.241000     -1.669000      8.459000
H          -1.103000     -3.204000      9.943000
H          -1.721000     -3.228000     12.655000
H           8.803000     10.001000     13.635000
C           7.022000     10.962000     14.423000
H           7.531000     10.610000     12.509000
H           7.215000     10.613000     15.445000
H           5.949000     11.016000     14.204000
C           7.567000     12.375000     14.386000
H           8.650000     12.346000     14.557000
C           6.897000     13.421000     15.369000
H           7.477000     12.823000     13.389000
H           6.812000     12.962000     16.362000
H           5.927000     13.813000     15.042000
C           7.641000     14.754000     15.502000
H           8.661000     14.411000     15.715000
C           6.999000     15.554000     16.712000
H           7.577000     15.350000     14.583000
H           7.310000     16.605000     16.749000
H           7.105000     14.976000     17.639000
H           5.904000     15.583000     16.653000
$end

--------------------------------------------------------------

             Standard Nuclear Orientation (Angstroms)
    I     Atom           X                Y                Z
 ----------------------------------------------------------------
    1      C       2.9329247085    -5.4893452163     0.2528764488
    2      C       1.9065231914    -6.2175844473    -0.3808313294
    3      N       2.6321648099    -4.3591980847     0.8413999779
    4      C       0.5924169133    -5.6550395670    -0.4729125308
    5      C       1.4110089556    -3.8109853873     0.8396061359
    6      C       0.3092891343    -4.4213792846     0.1589022903
    7      C      -1.0348924542    -3.7736255484     0.1539068315
    8      C      -1.0765228391    -2.3798527657     0.1255459216
    9      C      -2.2261488263    -4.4285131874     0.5993048965
   10      N      -2.1724160443    -1.6616633604     0.4014644982
   11      N      -2.3368270574    -5.7973325756     0.7309780207
   12      C      -3.3170460031    -3.6939117533     0.9779935320
   13      C      -3.3133296646    -2.2454580910     0.7747764638
   14      S      -3.8156105392    -6.0586218184     1.3180004610
   15      N      -4.3471060530    -4.5254649335     1.4065977810
   16      C      -4.3300111059    -1.1879598115     0.8408236884
   17      S      -3.8021953040     0.4938028406     1.2011025544
   18      C      -5.7084844433    -1.2522181388     0.9230801501
   19      C      -5.4761437233     0.8877885107     1.5773112484
   20      S      -6.6950398533    -2.7397189477     0.9019433018
   21      C      -6.3271614577    -0.1378222015     1.4354222691
   22      C      -5.8389226808     2.0698860830     2.3251733731
   23      C      -7.9988318575    -1.7241342614     1.4976807900
   24      C      -7.7002654765    -0.3729404319     1.6172732282
   25      N      -7.0436910057     2.5020817792     2.3469486699
   26      S      -4.6720859609     2.9201564789     3.3255599597
   27      C      -7.2217601916     3.5506045516     3.2103056996
   28      C      -5.9979847464     3.9410713826     3.7958228330
   29      C       4.3516556522    -6.1041634532     0.3734212326
   30      H       2.0064562946    -7.2092465234    -0.8104319600
   31      H      -0.2043353456    -6.2685651521    -0.8814381657
   32      H       1.2821162561    -2.8576670094     1.3504170034
   33      H      -0.1522915972    -1.8301572684    -0.0446700342
   34      H      -8.9172751715    -2.2906871421     1.5857302775
   35      H      -8.3686323749     0.4256775163     1.9169932010
   36      H      -8.2234263487     3.9547742381     3.2768922920
   37      H      -5.7469023064     4.7224401921     4.5012981280
   38      H       4.7801289336    -5.8136278468     1.3404252184
   39      C       5.2698172820    -5.6613999583    -0.8139071588
   40      H       4.2660064139    -7.1971005496     0.4308817530
   41      H       4.7458295559    -5.8237020482    -1.7645968529
   42      H       6.1646202302    -6.2781785217    -0.9636966361
   43      C       5.7161642605    -4.1649978335    -0.8616151869
   44      H       4.8654052460    -3.5986503636    -1.2595179925
   45      C       7.0108694151    -3.7393469258    -1.5966559118
   46      H       5.6877552583    -3.7952716063     0.1716037858
   47      H       7.7433236803    -4.5499983179    -1.4997690192
   48      H       7.2874830930    -2.7740684631    -1.1543106138
   49      C       6.8381233368    -3.5732769655    -3.1427531146
   50      H       6.3440178968    -4.4413023866    -3.5964200438
   51      C       8.1359167317    -3.2338296652    -3.9698503485
   52      H       6.0717748809    -2.7912350387    -3.2033952513
   53      H       7.9203680715    -3.1558919082    -5.0424217826
   54      H       8.8962991446    -3.9812010657    -3.7111467039
   55      H       8.4829553469    -2.2672718376    -3.5823930405
   56      C       6.8365398667     2.9721812884     1.1452434733
   57      C       5.6879636883     2.4238597717     1.8536150401
   58      N       6.7127532505     3.5495264109    -0.0361994932
   59      C       4.4134420224     2.6081147868     1.3722642195
   60      C       5.4454561056     3.6309004220    -0.5983482428
   61      C       4.2015625132     3.3164312001     0.1463784449
   62      C       2.7808168759     3.3876924513    -0.3803260910
   63      C       1.6869655314     3.2203699584     0.4612518434
   64      C       2.4982074561     3.4307472536    -1.7849442597
   65      N       0.4292635857     3.1229401949     0.0034972619
   66      N       3.4376658526     3.6315330809    -2.7548071225
   67      C       1.2576657429     3.0963630297    -2.2107910030
   68      C       0.1660060784     3.0476702547    -1.2889747575
   69      S       2.7065904238     3.1495200415    -4.1594060500
   70      N       1.1840294288     2.9187293913    -3.5150306220
   71      C      -1.1992956587     2.8045704010    -1.7222444517
   72      S      -1.8742983380     1.6942191250    -2.8919095434
   73      C      -2.2081236173     3.3644262576    -0.9812332712
   74      C      -3.3989920468     1.9241538092    -2.1639959939
   75      S      -2.1019087532     4.5422250012     0.2141468032
   76      C      -3.4464309926     2.9231837412    -1.2942203094
   77      C      -4.4132183118     0.9540881173    -2.5436216474
   78      C      -3.8410727468     4.4163780426     0.4674532314
   79      C      -4.4394298195     3.5199232812    -0.3835918170
   80      N      -5.5696149948     0.9985379173    -1.8910981407
   81      S      -4.2693692312    -0.3352987563    -3.7992521394
   82      C      -6.4371624884     0.0094924449    -2.3346073287
   83      C      -5.9378945598    -0.7756273715    -3.3985840246
   84      C       8.1889840260     3.0337358529     1.8498155645
   85      H       5.8503466430     1.8315686846     2.7492399863
   86      H       3.6733393176     2.1000902937     1.9839529482
   87      H       5.3973136605     4.0490443390    -1.6027659695
   88      H       1.7658667970     3.2289142871     1.5468362873
   89      H      -4.3143988315     5.1017446327     1.1584764254
   90      H      -5.4793965694     3.2510206391    -0.5326338520
   91      H      -7.4149939328     0.0577872333    -1.8733576352
   92      H      -6.3890176153    -1.6790290105    -3.7886346207
   93      H       8.7255448676     3.8932963939     1.4287025872
   94      C       9.0202338455     1.7786070884     1.8257838733
   95      H       8.0539323382     3.1534268689     2.9314569571
   96      H       9.3462104136     1.5715363837     0.7989464956
   97      H       8.4675088946     0.9361610428     2.2582024076
   98      C      10.3031339760     1.9364040321     2.6158663878
   99      H      10.8556075244     2.8030444688     2.2328803149
  100      C      11.2597377777     0.6752601164     2.6769416711
  101      H      10.1098746452     2.1982585615     3.6631944341
  102      H      11.3635582198     0.2664987853     1.6639804231
  103      H      10.9530939922    -0.1089208011     3.3787414128
  104      C      12.6560983990     0.9479861614     3.2460739226
  105      H      12.9662977299     1.8147382810     2.6494709237
  106      C      13.5526871382    -0.3326840548     2.9772311618
  107      H      12.6230972573     1.1630242456     4.3215006040
  108      H      14.4956585853    -0.3256294789     3.5370937190
  109      H      13.6220483020    -0.5191854648     1.8978539094
  110      H      13.0494496194    -1.2595952794     3.2787847748
 ----------------------------------------------------------------

   10   -5663.4659339880      7.35E-06 Convergence criterion met
 Total energy in the final basis set = -5663.4659339880

                    Orbital Energies (a.u.)
 --------------------------------------------------------------

 Alpha MOs
 -- Occupied --
-88.994 -88.986 -88.925 -88.923 -88.920 -88.917 -88.905 -88.901
-14.385 -14.382 -14.380 -14.380 -14.343 -14.341 -14.338 -14.336
-14.329 -14.324 -10.268 -10.267 -10.263 -10.258 -10.257 -10.257
-10.248 -10.244 -10.235 -10.234 -10.233 -10.232 -10.231 -10.231
-10.231 -10.230 -10.229 -10.229 -10.229 -10.229 -10.228 -10.227
-10.227 -10.224 -10.224 -10.223 -10.222 -10.219 -10.215 -10.214
-10.208 -10.206 -10.198 -10.197 -10.197 -10.196 -10.196 -10.193
-10.191 -10.182 -10.181 -10.180 -10.178 -10.178 -10.177 -10.176
-10.175 -10.175 -10.174 -10.170  -8.049  -8.041  -7.985  -7.984
 -7.981  -7.975  -7.965  -7.964  -6.014  -6.008  -6.007  -6.006
 -6.001  -5.998  -5.949  -5.948  -5.945  -5.945  -5.944  -5.941
 -5.941  -5.941  -5.939  -5.938  -5.936  -5.932  -5.930  -5.928
 -5.926  -5.924  -5.922  -5.920  -1.035  -1.032  -0.975  -0.963
 -0.962  -0.955  -0.942  -0.927  -0.926  -0.913  -0.896  -0.891
 -0.854  -0.843  -0.831  -0.828  -0.807  -0.806  -0.805  -0.804
 -0.795  -0.795  -0.793  -0.791  -0.777  -0.777  -0.763  -0.762
 -0.745  -0.745  -0.738  -0.737  -0.729  -0.721  -0.707  -0.706
 -0.690  -0.690  -0.672  -0.670  -0.653  -0.650  -0.645  -0.640
 -0.632  -0.631  -0.623  -0.618  -0.608  -0.605  -0.598  -0.594
 -0.592  -0.589  -0.586  -0.582  -0.578  -0.572  -0.568  -0.557
 -0.553  -0.551  -0.540  -0.537  -0.520  -0.519  -0.512  -0.505
 -0.504  -0.501  -0.497  -0.496  -0.484  -0.483  -0.476  -0.473
 -0.470  -0.470  -0.467  -0.466  -0.459  -0.457  -0.448  -0.445
 -0.444  -0.442  -0.438  -0.437  -0.435  -0.431  -0.429  -0.427
 -0.424  -0.423  -0.416  -0.416  -0.414  -0.412  -0.411  -0.408
 -0.407  -0.404  -0.403  -0.402  -0.400  -0.399  -0.397  -0.395
 -0.392  -0.391  -0.391  -0.389  -0.385  -0.383  -0.382  -0.380
 -0.378  -0.375  -0.373  -0.369  -0.366  -0.362  -0.360  -0.357
 -0.353  -0.350  -0.349  -0.346  -0.346  -0.342  -0.338  -0.337
 -0.337  -0.333  -0.332  -0.330  -0.328  -0.324  -0.322  -0.316
 -0.311  -0.307  -0.306  -0.304  -0.303  -0.302  -0.298  -0.296
 -0.294  -0.294  -0.288  -0.286  -0.283  -0.280  -0.280  -0.278
 -0.272  -0.269  -0.260  -0.259  -0.251  -0.250  -0.245  -0.242
 -0.240  -0.239  -0.235  -0.225  -0.189  -0.188

          Ground-State Mulliken Net Atomic Charges

     Atom                 Charge (a.u.)
  ----------------------------------------
      1 C                     0.288895
      2 C                    -0.126128
      3 N                    -0.479618
      4 C                    -0.079427
      5 C                     0.071843
      6 C                     0.031917
      7 C                     0.002920
      8 C                     0.065642
      9 C                     0.222329
     10 N                    -0.509928
     11 N                    -0.546399
     12 C                     0.207371
     13 C                     0.302289
     14 S                     0.620023
     15 N                    -0.554103
     16 C                    -0.218924
     17 S                     0.330626
     18 C                    -0.135093
     19 C                    -0.222854
     20 S                     0.274964
     21 C                     0.185228
     22 C                     0.066430
     23 C                    -0.310929
     24 C                    -0.056385
     25 N                    -0.429703
     26 S                     0.271345
     27 C                     0.114780
     28 C                    -0.329510
     29 C                    -0.224709
     30 H                     0.088741
     31 H                     0.113221
     32 H                     0.103257
     33 H                     0.116152
     34 H                     0.129778
     35 H                     0.121465
     36 H                     0.116459
     37 H                     0.131038
     38 H                     0.116477
     39 C                    -0.184540
     40 H                     0.101731
     41 H                     0.097196
     42 H                     0.088430
     43 C                    -0.186311
     44 H                     0.095543
     45 C                    -0.174985
     46 H                     0.099386
     47 H                     0.088709
     48 H                     0.100090
     49 C                    -0.184306
     50 H                     0.090056
     51 C                    -0.317845
     52 H                     0.090533
     53 H                     0.105925
     54 H                     0.104327
     55 H                     0.106491
     56 C                     0.287122
     57 C                    -0.123984
     58 N                    -0.488869
     59 C                    -0.071822
     60 C                     0.068548
     61 C                     0.004500
     62 C                     0.048998
     63 C                     0.044502
     64 C                     0.243275
     65 N                    -0.508367
     66 N                    -0.569050
     67 C                     0.224760
     68 C                     0.262811
     69 S                     0.592651
     70 N                    -0.579583
     71 C                    -0.162749
     72 S                     0.314528
     73 C                    -0.109226
     74 C                    -0.236498
     75 S                     0.269351
     76 C                     0.187152
     77 C                     0.061902
     78 C                    -0.310267
     79 C                    -0.052717
     80 N                    -0.432769
     81 S                     0.260319
     82 C                     0.122799
     83 C                    -0.317369
     84 C                    -0.224320
     85 H                     0.085856
     86 H                     0.101362
     87 H                     0.135673
     88 H                     0.115449
     89 H                     0.135457
     90 H                     0.133078
     91 H                     0.122433
     92 H                     0.134730
     93 H                     0.116133
     94 C                    -0.171158
     95 H                     0.101385
     96 H                     0.104422
     97 H                     0.094946
     98 C                    -0.183239
     99 H                     0.090750
    100 C                    -0.176419
    101 H                     0.085408
    102 H                     0.089892
    103 H                     0.091794
    104 C                    -0.176603
    105 H                     0.095563
    106 C                    -0.325446
    107 H                     0.095433
    108 H                     0.101484
    109 H                     0.106299
    110 H                     0.099778
  ----------------------------------------
  Sum of atomic charges =     0.000000

                    Cartesian Multipole Moments
 -----------------------------------------------------------------
    Charge (ESU x 10^10)
                 0.0000
    Dipole Moment (Debye)
         X      -3.0880      Y      -2.7007      Z       1.2196
       Tot       4.2798
    Quadrupole Moments (Debye-Ang)
        XX    -430.2061     XY      -5.1668     YY    -424.5589
        XZ      -0.4975     YZ      17.9300     ZZ    -431.4576

 Total job time:  98.29s(wall), 1179.58s(cpu)
        *  Thank you very much for using Q-Chem.  Have a nice day.  *
