 Q-Chem 4.4, Q-Chem, Inc., Pleasanton, CA (2016)
 Q-Chem 4.4.2 for Intel X86 Linux

User input:
--------------------------------------------------------------
$comment
SP
$end

$rem
MEM_STATIC 5000
MEM_TOTAL 20000
JOBTYPE SP
EXCHANGE B3LYP
BASIS 6-31g(d,p)
$end

$molecule
0 1
C         -25.933000    -21.844000    -15.157000
C         -25.459000    -23.077000    -14.909000
N         -25.573000    -20.759000    -14.419000
C         -24.566000    -23.255000    -13.864000
C         -24.603000    -20.904000    -13.492000
C         -23.989000    -22.127000    -13.234000
C         -22.915000    -22.243000    -12.180000
C         -23.018000    -23.321000    -11.222000
C         -21.864000    -21.274000    -11.865000
N         -22.270000    -23.450000    -10.158000
N         -21.420000    -20.319000    -12.737000
C         -20.952000    -21.514000    -10.819000
C         -21.223000    -22.616000     -9.930000
S         -20.193000    -19.690000    -11.935000
N         -19.977000    -20.677000    -10.625000
C         -20.464000    -22.849000     -8.775000
S         -19.589000    -21.679000     -7.764000
C         -20.252000    -24.092000     -8.186000
C         -19.022000    -22.880000     -6.664000
S         -20.777000    -25.663000     -8.690000
C         -19.499000    -24.072000     -6.987000
C         -18.656000    -22.539000     -5.326000
C         -20.151000    -26.316000     -7.170000
C         -19.352000    -25.415000     -6.484000
N         -19.227000    -21.467000     -4.846000
S         -17.947000    -23.588000     -4.143000
C         -18.942000    -21.355000     -3.521000
C         -18.104000    -22.369000     -3.047000
C         -27.030000    -21.574000    -16.097000
H         -25.900000    -23.922000    -15.429000
H         -24.091000    -24.216000    -13.690000
H         -24.101000    -20.017000    -13.109000
H         -23.850000    -24.015000    -11.331000
H         -20.090000    -27.381000     -6.988000
H         -18.751000    -25.768000     -5.653000
H         -19.230000    -20.497000     -2.928000
H         -17.740000    -22.517000     -2.039000
H         -27.757000    -22.391000    -16.174000
C         -26.584000    -21.192000    -17.457000
H         -27.675000    -20.760000    -15.743000
H         -26.437000    -22.095000    -18.064000
H         -25.531000    -20.893000    -17.384000
C         -27.522000    -20.133000    -18.048000
H         -28.524000    -20.569000    -18.144000
C         -27.028000    -19.607000    -19.459000
H         -27.465000    -19.275000    -17.367000
H         -27.014000    -20.462000    -20.147000
H         -25.972000    -19.310000    -19.443000
C         -27.875000    -18.410000    -20.029000
H         -27.767000    -17.634000    -19.260000
C         -29.424000    -18.665000    -20.221000
H         -27.508000    -18.080000    -21.009000
H         -29.946000    -18.877000    -19.280000
H         -29.543000    -19.453000    -20.976000
H         -29.755000    -17.795000    -20.802000
C         -21.302000    -20.689000      2.013000
C         -21.313000    -21.361000      0.808000
N         -20.788000    -19.476000      2.249000
C         -20.646000    -20.716000     -0.263000
C         -20.350000    -18.847000      1.200000
C         -20.208000    -19.392000     -0.086000
C         -19.611000    -18.547000     -1.128000
C         -20.283000    -18.423000     -2.343000
C         -18.270000    -18.042000     -0.979000
N         -19.746000    -17.829000     -3.402000
N         -17.482000    -18.229000      0.080000
C         -17.757000    -17.338000     -2.020000
C         -18.507000    -17.254000     -3.231000
S         -16.126000    -17.455000     -0.307000
N         -16.505000    -16.974000     -1.801000
C         -17.985000    -16.595000     -4.436000
S         -16.709000    -15.353000     -4.555000
C         -18.274000    -16.967000     -5.741000
C         -16.608000    -15.366000     -6.326000
S         -18.950000    -18.444000     -6.311000
C         -17.482000    -16.322000     -6.744000
C         -15.488000    -14.839000     -7.044000
C         -18.538000    -18.013000     -7.979000
C         -17.699000    -16.927000     -8.027000
N         -14.434000    -14.568000     -6.299000
S         -15.285000    -14.681000     -8.761000
C         -13.370000    -14.225000     -7.087000
C         -13.615000    -14.251000     -8.453000
C         -21.965000    -21.354000      3.182000
H         -21.659000    -22.388000      0.733000
H         -20.561000    -21.189000     -1.237000
H         -19.988000    -17.859000      1.480000
H         -21.220000    -18.904000     -2.622000
H         -19.058000    -18.531000     -8.774000
H         -17.316000    -16.561000     -8.972000
H         -12.393000    -13.949000     -6.713000
H         -12.825000    -14.238000     -9.193000
H         -22.937000    -21.745000      2.855000
C         -22.080000    -20.525000      4.547000
H         -21.441000    -22.258000      3.515000
H         -22.767000    -19.677000      4.437000
H         -21.101000    -20.054000      4.697000
C         -22.596000    -21.400000      5.724000
H         -21.787000    -22.131000      5.842000
C         -23.977000    -22.007000      5.580000
H         -22.618000    -20.778000      6.628000
H         -24.051000    -22.326000      4.533000
H         -24.739000    -21.231000      5.719000
C         -24.215000    -23.262000      6.465000
H         -24.093000    -23.010000      7.526000
C         -23.246000    -24.442000      6.176000
H         -25.253000    -23.585000      6.318000
H         -22.252000    -24.094000      6.480000
H         -23.027000    -24.706000      5.134000
H         -23.507000    -25.366000      6.709000
$end

--------------------------------------------------------------

             Standard Nuclear Orientation (Angstroms)
    I     Atom           X                Y                Z
 ----------------------------------------------------------------
    1      C      -9.9187860694    -2.7604228661     1.0201437249
    2      C      -9.6116862215    -3.3512725820    -0.1473558668
    3      N      -9.0484370602    -1.9507683123     1.6822774770
    4      C      -8.3622903085    -3.1277908451    -0.7043332144
    5      C      -7.8872303139    -1.6228058533     1.0778823101
    6      C      -7.5289574904    -2.1141363629    -0.1749241052
    7      C      -6.2144196039    -1.7271402415    -0.8074366719
    8      C      -5.3903615359    -2.7798374360    -1.3580853051
    9      C      -5.5515071945    -0.4227637921    -0.7634342192
   10      N      -4.1626438877    -2.6257704534    -1.7790529297
   11      N      -6.2002959363     0.7552651867    -0.5167240784
   12      C      -4.2990345120    -0.2294193473    -1.3777550678
   13      C      -3.5914514665    -1.3956242149    -1.8440794619
   14      S      -5.0398977492     1.8232104437    -0.7561880121
   15      N      -3.7812468190     0.9623543787    -1.3977873195
   16      C      -2.2794485670    -1.3285383903    -2.3324879835
   17      S      -0.9927348660    -0.1783550504    -1.9104783437
   18      C      -1.7243278154    -2.1892191047    -3.2748168322
   19      C       0.1565578915    -0.8961668441    -2.9771377956
   20      S      -2.4468170518    -3.5047157466    -4.1380432732
   21      C      -0.3580073811    -1.9625355868    -3.5694234403
   22      C       1.5598713924    -0.7454410835    -2.7569697616
   23      C      -0.8488688336    -3.9088078755    -4.7798812927
   24      C       0.0904004416    -2.9149765184    -4.5543364802
   25      N       1.9101358100    -0.5129590762    -1.5204860560
   26      S       2.8384988252    -1.2825430446    -3.7958173786
   27      C       3.2645299327    -0.5720894842    -1.4131820238
   28      C       3.9062994181    -0.8207894795    -2.6303082457
   29      C     -11.1226991785    -3.0851417234     1.7979996816
   30      H     -10.2843833180    -4.1045957431    -0.5459644862
   31      H      -8.1103777628    -3.5117794963    -1.6884647021
   32      H      -7.3250484510    -0.7649263381     1.4431990090
   33      H      -5.7771134861    -3.7969324522    -1.3170772940
   34      H      -0.7165685216    -4.6478224002    -5.5592555031
   35      H       1.0401518293    -2.9573500311    -5.0763975753
   36      H       3.7937498049    -0.3232159715    -0.5028275316
   37      H       4.9668582919    -0.9267546240    -2.8159160670
   38      H     -11.4549545441    -4.1237781225     1.6849165149
   39      C     -12.2685368347    -2.1797105231     1.5496241452
   40      H     -10.9287594082    -3.0496301123     2.8773806574
   41      H     -12.8549891147    -2.5519450439     0.6993405544
   42      H     -11.8732973768    -1.2761636839     1.0690745846
   43      C     -13.0488004038    -1.9387390856     2.8472094137
   44      H     -13.4586555730    -2.8964749991     3.1908322596
   45      C     -14.2212122658    -0.8885993447     2.6620339554
   46      H     -12.3343811689    -1.4774135478     3.5399993566
   47      H     -14.9213154841    -1.2978773063     1.9224989435
   48      H     -13.8796034041     0.0298034156     2.1686367974
   49      C     -14.9470539556    -0.4957840815     4.0014248656
   50      H     -14.1382527885    -0.0783332519     4.6152460750
   51      C     -15.5989284061    -1.6762702625     4.8277432531
   52      H     -15.7563007332     0.2254300700     3.8312520106
   53      H     -14.8658059516    -2.4116176405     5.1808787801
   54      H     -16.3982635245    -2.1129641932     4.2149694128
   55      H     -16.2020918305    -1.1558880102     5.5823412885
   56      C       7.8907545256    -3.0941149576     1.5660369221
   57      C       6.7000932285    -3.2652781687     0.8901975693
   58      N       8.3343131812    -1.9664440721     2.1342579117
   59      C       5.9095478297    -2.1001647574     0.7304987556
   60      C       7.4966903965    -0.9734236955     2.1206710658
   61      C       6.2806815729    -0.9328090937     1.4202012271
   62      C       5.5084114139     0.3155772727     1.4566468260
   63      C       4.1586012726     0.2473022028     1.7980206640
   64      C       6.0721440123     1.5380349185     0.9435095523
   65      N       3.3385303022     1.2859093670     1.6909470351
   66      N       7.3035957465     1.6804863328     0.4529708477
   67      C       5.2683348295     2.6317819966     0.9348998465
   68      C       3.8972320186     2.4819119075     1.3005404325
   69      S       7.3751600230     3.2323268626     0.0355375902
   70      N       5.8649134044     3.6790161094     0.3914334565
   71      C       2.9370404228     3.5915632335     1.2264051914
   72      S       3.2669621950     5.3453373469     1.2445430903
   73      C       1.5860853042     3.4635287085     0.9375151986
   74      C       1.6056711917     5.8461243779     0.8755775742
   75      S       0.7615409660     2.1267756991     0.2328003440
   76      C       0.8971092759     4.6966211966     0.7049362910
   77      C       1.2783496054     7.1495986183     0.3841831463
   78      C      -0.6854909589     3.1196529192    -0.0080781192
   79      C      -0.4246984187     4.4511902246     0.2031484308
   80      N       2.3136635925     7.8671059954    -0.0065726750
   81      S      -0.2919608079     7.8242604233     0.0788658449
   82      C       1.8928629148     9.0229673448    -0.6045696070
   83      C       0.5158622991     9.1788459727    -0.6834882836
   84      C       8.7748887131    -4.2947273539     1.7247555795
   85      H       6.4698311314    -4.1905371851     0.3696736801
   86      H       4.9785900935    -2.1262919489     0.1716919345
   87      H       7.9251221187    -0.1152795285     2.6360571813
   88      H       3.5906595633    -0.6517536094     2.0353218679
   89      H      -1.6256127113     2.6068755614    -0.1629311849
   90      H      -1.1938438417     5.1994045936     0.0539486444
   91      H       2.5517922700     9.7840309731    -1.0010229567
   92      H       0.0421147707     9.9088281965    -1.3273502504
   93      H       8.1558794556    -5.1434807874     2.0426221371
   94      C      10.0900254353    -4.1406465244     2.6249586120
   95      H       9.1960956215    -4.6456900158     0.7749708932
   96      H       9.8307063412    -3.9946186097     3.6807059566
   97      H      10.5466177875    -3.1878277157     2.3309488472
   98      C      11.0132293995    -5.3883417150     2.5346195191
   99      H      11.3224889875    -5.3727233294     1.4825355997
  100      C      10.4368550253    -6.7096242082     3.0019001133
  101      H      11.9041587947    -5.1991318149     3.1470151645
  102      H       9.3981549463    -6.7192836691     2.6491185369
  103      H      10.3891637234    -6.7262696101     4.0971578320
  104      C      11.1417839662    -7.9580231172     2.4023424828
  105      H      12.2041971983    -7.9654895782     2.6768081020
  106      C      11.0845557187    -8.0422521173     0.8516934564
  107      H      10.6789852292    -8.8495128979     2.8433020048
  108      H      11.6856746587    -7.2025048799     0.4842201959
  109      H      10.1396483976    -7.8161464796     0.3423336668
  110      H      11.4652248189    -8.9901208589     0.4484294176
 ----------------------------------------------------------------

   10   -5663.4691876589      3.58E-06 Convergence criterion met
 Total energy in the final basis set = -5663.4691876589

                    Orbital Energies (a.u.)
 --------------------------------------------------------------

 Alpha MOs
 -- Occupied --
-88.991 -88.988 -88.931 -88.930 -88.922 -88.914 -88.912 -88.896
-14.396 -14.395 -14.383 -14.381 -14.347 -14.346 -14.343 -14.340
-14.328 -14.324 -10.267 -10.266 -10.265 -10.264 -10.259 -10.258
-10.252 -10.251 -10.240 -10.237 -10.236 -10.235 -10.234 -10.234
-10.232 -10.232 -10.230 -10.228 -10.228 -10.227 -10.227 -10.224
-10.223 -10.223 -10.221 -10.220 -10.220 -10.218 -10.216 -10.214
-10.212 -10.210 -10.209 -10.208 -10.206 -10.199 -10.197 -10.196
-10.182 -10.182 -10.181 -10.180 -10.177 -10.175 -10.174 -10.173
-10.173 -10.173 -10.172 -10.172  -8.048  -8.045  -7.995  -7.991
 -7.982  -7.973  -7.972  -7.957  -6.013  -6.009  -6.007  -6.006
 -6.004  -6.002  -5.958  -5.955  -5.955  -5.952  -5.952  -5.948
 -5.946  -5.942  -5.938  -5.937  -5.937  -5.934  -5.933  -5.929
 -5.929  -5.921  -5.918  -5.913  -1.058  -1.057  -0.987  -0.971
 -0.963  -0.958  -0.953  -0.940  -0.929  -0.920  -0.914  -0.905
 -0.852  -0.837  -0.837  -0.831  -0.829  -0.816  -0.814  -0.811
 -0.806  -0.803  -0.801  -0.799  -0.787  -0.783  -0.767  -0.763
 -0.752  -0.745  -0.743  -0.736  -0.727  -0.713  -0.713  -0.709
 -0.695  -0.689  -0.679  -0.676  -0.659  -0.655  -0.650  -0.645
 -0.638  -0.638  -0.631  -0.629  -0.613  -0.612  -0.605  -0.599
 -0.598  -0.591  -0.587  -0.584  -0.581  -0.575  -0.561  -0.554
 -0.553  -0.547  -0.546  -0.542  -0.532  -0.523  -0.522  -0.515
 -0.513  -0.511  -0.505  -0.498  -0.492  -0.487  -0.482  -0.480
 -0.477  -0.476  -0.473  -0.469  -0.460  -0.456  -0.452  -0.452
 -0.450  -0.446  -0.442  -0.441  -0.439  -0.439  -0.437  -0.434
 -0.431  -0.429  -0.429  -0.427  -0.425  -0.419  -0.418  -0.413
 -0.410  -0.406  -0.406  -0.403  -0.402  -0.401  -0.400  -0.398
 -0.397  -0.394  -0.392  -0.390  -0.387  -0.385  -0.382  -0.378
 -0.377  -0.376  -0.373  -0.369  -0.365  -0.365  -0.361  -0.359
 -0.355  -0.352  -0.350  -0.349  -0.347  -0.343  -0.341  -0.340
 -0.337  -0.333  -0.333  -0.330  -0.328  -0.325  -0.317  -0.313
 -0.313  -0.312  -0.312  -0.311  -0.307  -0.304  -0.304  -0.301
 -0.300  -0.299  -0.298  -0.290  -0.289  -0.288  -0.284  -0.282
 -0.279  -0.279  -0.271  -0.265  -0.253  -0.250  -0.247  -0.246
 -0.245  -0.237  -0.236  -0.231  -0.196  -0.191

          Ground-State Mulliken Net Atomic Charges

     Atom                 Charge (a.u.)
  ----------------------------------------
      1 C                     0.269159
      2 C                    -0.104650
      3 N                    -0.481199
      4 C                    -0.092325
      5 C                     0.075907
      6 C                     0.044784
      7 C                    -0.001615
      8 C                     0.077423
      9 C                     0.165695
     10 N                    -0.497465
     11 N                    -0.476801
     12 C                     0.218560
     13 C                     0.259693
     14 S                     0.592678
     15 N                    -0.560132
     16 C                    -0.215780
     17 S                     0.376843
     18 C                    -0.115694
     19 C                    -0.250995
     20 S                     0.282644
     21 C                     0.162907
     22 C                     0.052248
     23 C                    -0.293146
     24 C                    -0.092569
     25 N                    -0.404265
     26 S                     0.292170
     27 C                     0.114036
     28 C                    -0.311768
     29 C                    -0.228388
     30 H                     0.093014
     31 H                     0.099189
     32 H                     0.112451
     33 H                     0.109571
     34 H                     0.125546
     35 H                     0.114769
     36 H                     0.109507
     37 H                     0.139582
     38 H                     0.093253
     39 C                    -0.176240
     40 H                     0.121653
     41 H                     0.088587
     42 H                     0.104160
     43 C                    -0.181581
     44 H                     0.100033
     45 C                    -0.183547
     46 H                     0.109613
     47 H                     0.083895
     48 H                     0.091635
     49 C                    -0.179806
     50 H                     0.095725
     51 C                    -0.320776
     52 H                     0.089802
     53 H                     0.109608
     54 H                     0.100972
     55 H                     0.103122
     56 C                     0.285359
     57 C                    -0.115449
     58 N                    -0.462718
     59 C                    -0.083812
     60 C                     0.095428
     61 C                     0.038919
     62 C                    -0.019906
     63 C                     0.026924
     64 C                     0.239503
     65 N                    -0.470922
     66 N                    -0.546151
     67 C                     0.246214
     68 C                     0.245773
     69 S                     0.608376
     70 N                    -0.542894
     71 C                    -0.211220
     72 S                     0.340120
     73 C                    -0.127663
     74 C                    -0.228837
     75 S                     0.320191
     76 C                     0.113625
     77 C                     0.063052
     78 C                    -0.325270
     79 C                    -0.066043
     80 N                    -0.420059
     81 S                     0.275457
     82 C                     0.122095
     83 C                    -0.311021
     84 C                    -0.261121
     85 H                     0.096977
     86 H                     0.094834
     87 H                     0.097058
     88 H                     0.124941
     89 H                     0.144380
     90 H                     0.105224
     91 H                     0.116621
     92 H                     0.133181
     93 H                     0.109157
     94 C                    -0.176391
     95 H                     0.106805
     96 H                     0.092056
     97 H                     0.114935
     98 C                    -0.184406
     99 H                     0.090090
    100 C                    -0.172198
    101 H                     0.088369
    102 H                     0.091586
    103 H                     0.092101
    104 C                    -0.174689
    105 H                     0.095682
    106 C                    -0.322310
    107 H                     0.091489
    108 H                     0.105357
    109 H                     0.097746
    110 H                     0.101766
  ----------------------------------------
  Sum of atomic charges =     0.000000

                    Cartesian Multipole Moments
 -----------------------------------------------------------------
    Charge (ESU x 10^10)
                 0.0000
    Dipole Moment (Debye)
         X      -1.2819      Y      -1.0326      Z      -4.9675
       Tot       5.2331
    Quadrupole Moments (Debye-Ang)
        XX    -433.2164     XY      -0.8657     YY    -412.1873
        XZ      -4.0584     YZ       1.9037     ZZ    -442.4693

 Total job time:  90.60s(wall), 1073.80s(cpu)
        *  Thank you very much for using Q-Chem.  Have a nice day.  *
