 Q-Chem 4.4, Q-Chem, Inc., Pleasanton, CA (2016)
 Q-Chem 4.4.2 for Intel X86 Linux

User input:
--------------------------------------------------------------
$comment
SP
$end

$rem
MEM_STATIC 5000
MEM_TOTAL 20000
JOBTYPE SP
EXCHANGE B3LYP
BASIS 6-31g(d,p)
$end

$molecule
0 1
C           8.705000    -18.167000     -1.318000
C           9.864000    -17.672000     -0.700000
N           8.598000    -18.106000     -2.653000
C          11.026000    -17.355000     -1.469000
C           9.613000    -17.669000     -3.328000
C          10.881000    -17.326000     -2.878000
C          12.025000    -16.914000     -3.762000
C          13.351000    -17.306000     -3.439000
C          11.894000    -16.076000     -4.856000
N          14.411000    -17.027000     -4.187000
N          10.729000    -15.491000     -5.197000
C          12.944000    -15.854000     -5.720000
C          14.234000    -16.308000     -5.283000
S          10.965000    -14.642000     -6.522000
N          12.542000    -15.016000     -6.749000
C          15.436000    -15.906000     -6.066000
S          15.537000    -14.446000     -7.002000
C          16.706000    -16.455000     -5.942000
C          17.230000    -14.631000     -7.254000
S          17.212000    -17.991000     -5.183000
C          17.716000    -15.704000     -6.488000
C          18.168000    -13.764000     -7.866000
C          18.902000    -17.632000     -5.788000
C          18.932000    -16.400000     -6.473000
N          17.731000    -12.880000     -8.824000
S          19.681000    -13.203000     -7.137000
C          18.622000    -11.940000     -9.077000
C          19.787000    -12.043000     -8.427000
C           7.524000    -18.570000     -0.462000
H           9.993000    -17.767000      0.374000
H          11.972000    -17.113000     -0.994000
H           9.448000    -17.528000     -4.395000
H          13.491000    -17.967000     -2.585000
H          19.700000    -18.345000     -5.625000
H          19.767000    -16.000000     -7.038000
H          18.323000    -11.163000     -9.768000
H          20.564000    -11.309000     -8.596000
H           7.249000    -17.766000      0.231000
C           7.767000    -19.848000      0.315000
H           6.651000    -18.794000     -1.089000
H           8.522000    -19.687000      1.094000
H           8.159000    -20.695000     -0.263000
C           6.504000    -20.482000      1.003000
H           5.752000    -20.867000      0.303000
C           5.783000    -19.551000      1.916000
H           6.918000    -21.325000      1.570000
H           4.871000    -20.091000      2.198000
H           5.576000    -18.599000      1.413000
C           6.524000    -19.282000      3.217000
H           6.939000    -20.179000      3.693000
C           5.588000    -18.454000      4.150000
H           7.367000    -18.623000      2.975000
H           4.738000    -19.148000      4.156000
H           5.302000    -17.509000      3.673000
H           6.041000    -18.202000      5.117000
C          14.042000    -19.902000     -6.413000
C          15.219000    -20.675000     -6.383000
N          13.892000    -18.982000     -7.373000
C          16.226000    -20.483000     -7.302000
C          14.880000    -18.796000     -8.244000
C          16.149000    -19.447000     -8.255000
C          17.344000    -19.007000     -8.994000
C          17.558000    -17.638000     -9.370000
C          18.364000    -19.940000     -9.475000
N          18.671000    -17.141000     -9.934000
N          18.354000    -21.265000     -9.300000
C          19.448000    -19.424000    -10.267000
C          19.617000    -18.001000    -10.379000
S          19.629000    -21.848000    -10.120000
N          20.296000    -20.411000    -10.610000
C          20.889000    -17.497000    -10.887000
S          22.365000    -18.510000    -11.259000
C          21.262000    -16.168000    -10.985000
C          23.282000    -17.032000    -11.754000
S          20.295000    -14.710000    -10.660000
C          22.529000    -15.931000    -11.479000
C          24.658000    -17.082000    -12.184000
C          21.652000    -13.783000    -11.362000
C          22.782000    -14.524000    -11.575000
N          25.106000    -18.343000    -12.349000
S          25.698000    -15.839000    -12.641000
C          26.430000    -18.324000    -12.720000
C          26.945000    -17.064000    -13.042000
C          12.849000    -20.186000     -5.427000
H          15.327000    -21.440000     -5.619000
H          17.011000    -21.216000     -7.142000
H          14.632000    -18.042000     -8.990000
H          16.804000    -16.880000     -9.165000
H          21.600000    -12.703000    -11.336000
H          23.649000    -14.113000    -12.081000
H          26.992000    -19.228000    -12.913000
H          27.941000    -16.778000    -13.353000
H          13.369000    -20.412000     -4.487000
C          12.004000    -21.475000     -5.606000
H          12.244000    -19.282000     -5.289000
H          12.723000    -22.303000     -5.648000
H          11.595000    -21.326000     -6.613000
C          10.919000    -21.814000     -4.529000
H          10.089000    -21.099000     -4.593000
C          11.419000    -21.877000     -3.138000
H          10.600000    -22.820000     -4.827000
H          11.687000    -20.823000     -2.992000
H          12.288000    -22.530000     -2.987000
C          10.309000    -22.172000     -2.061000
H           9.447000    -21.519000     -2.242000
C          10.827000    -22.026000     -0.623000
H           9.875000    -23.179000     -2.091000
H          10.078000    -22.274000      0.140000
H          11.136000    -20.982000     -0.493000
H          11.687000    -22.676000     -0.421000
$end

--------------------------------------------------------------

             Standard Nuclear Orientation (Angstroms)
    I     Atom           X                Y                Z
 ----------------------------------------------------------------
    1      C      -9.0459279154    -0.6085589235     0.0924098449
    2      C      -8.4251038961    -1.0286895634    -1.0943073845
    3      N      -8.3310278742    -0.5664825273     1.2257864407
    4      C      -7.0037571535    -1.1538626097    -1.1730420385
    5      C      -7.0657621209    -0.8341524142     1.1604075056
    6      C      -6.2794962149    -1.0778045024     0.0421979613
    7      C      -4.7913276633    -1.2891947150     0.0667853576
    8      C      -3.9837225638    -0.7877034285    -0.9879892595
    9      C      -4.1326582015    -2.0399862882     1.0252776913
   10      N      -2.6609537437    -0.8878435202    -1.0226246577
   11      N      -4.7755487313    -2.7140635739     1.9989524726
   12      C      -2.7568041361    -2.0748244374     1.0892456045
   13      C      -2.0537980921    -1.5254529077    -0.0355470095
   14      S      -3.6871348367    -3.4171121248     2.9226406934
   15      N      -2.3517655397    -2.8599129805     2.1580153248
   16      C      -0.5808388387    -1.7293966209    -0.1266238984
   17      S       0.2529105253    -3.0852583987     0.5693630537
   18      C       0.2789478036    -1.0613358971    -0.9892586989
   19      C       1.7208841338    -2.7008599751    -0.2438216343
   20      S       0.0215774915     0.4493174432    -1.9074634735
   21      C       1.5064790121    -1.6516155539    -1.1534356120
   22      C       2.9461821469    -3.4080698973    -0.3114670713
   23      C       1.7704743597     0.3245688500    -2.4335846886
   24      C       2.3680336942    -0.8343561417    -1.8971476416
   25      N       3.2876032678    -4.2484992731     0.7216346093
   26      S       3.7911419012    -3.8654937713    -1.7987926621
   27      C       4.2726763244    -5.0636352146     0.3950240306
   28      C       4.7979338655    -4.8934253507    -0.8237733758
   29      C     -10.5456375553    -0.4076225361     0.1124489072
   30      H      -8.9724202115    -1.0124877464    -2.0320303458
   31      H      -6.5016252240    -1.3337514247    -2.1188795191
   32      H      -6.5449111209    -0.9003426465     2.1143090146
   33      H      -4.4688715693    -0.1908398024    -1.7588467393
   34      H       2.2102007771     1.1016972885    -3.0455112102
   35      H       3.4201806845    -1.0938503340    -1.9429676687
   36      H       4.5507654036    -5.8061910848     1.1311546193
   37      H       5.6146958801    -5.5237386966    -1.1503478658
   38      H     -11.0654056504    -1.2924210989    -0.2738963148
   39      C     -10.9873226947     0.8179929815    -0.6614004584
   40      H     -10.8972592984    -0.2248568611     1.1363594785
   41      H     -10.8280496261     0.6721570267    -1.7366450649
   42      H     -10.4487259146     1.7479967065    -0.4374281834
   43      C     -12.4839343917     1.2534073576    -0.4588251653
   44      H     -12.7181401745     1.6147385181     0.5502914997
   45      C     -13.4708527008     0.1767066920    -0.7535774813
   46      H     -12.6062071858     2.0841262321    -1.1648630647
   47      H     -14.4353690754     0.5908647758    -0.4356950426
   48      H     -13.2074012645    -0.7454932608    -0.2222559329
   49      C     -13.6174942945    -0.1221303182    -2.2379075269
   50      H     -13.6923656289     0.7699532952    -2.8719352156
   51      C     -14.8009284883    -1.1213071573    -2.4203853427
   52      H     -12.7152697098    -0.6649131092    -2.5459199301
   53      H     -15.5735452305    -0.5244646024    -1.9193720351
   54      H     -14.6165470075    -2.0471717148    -1.8625965918
   55      H     -14.9804378915    -1.4053726500    -3.4648398271
   56      C      -2.0251572134     2.1110959128     0.9670956867
   57      C      -1.2139258773     2.9992212756     0.2343644541
   58      N      -1.4498613462     1.2656230097     1.8300616393
   59      C       0.1563275129     2.9942324571     0.3679861532
   60      C      -0.1239638859     1.2604685440     1.9365996892
   61      C       0.8011943714     2.0409877006     1.1821760382
   62      C       2.2476797255     1.7949023005     1.0602412348
   63      C       2.8267104649     0.4934206920     1.2396904638
   64      C       3.2155070441     2.8684633233     0.8299652880
   65      N       4.1121090384     0.1672400571     1.0270153579
   66      N       2.9235504060     4.1651421362     0.6894826281
   67      C       4.6156553808     2.5398286235     0.8173213531
   68      C       5.0097895607     1.1575588106     0.8125871728
   69      S       4.3423813621     4.9479299870     0.5795922341
   70      N       5.3577994176     3.6368677867     0.5793102121
   71      C       6.3891357834     0.8365370733     0.4598648429
   72      S       7.6433790489     2.0284385366    -0.1312136060
   73      C       6.9240952980    -0.4321573979     0.3212767615
   74      C       8.8657639760     0.7037095139    -0.2770426377
   75      S       6.1622513413    -2.0069026970     0.6472353920
   76      C       8.2548479916    -0.4903892154    -0.0409390914
   77      C      10.2060385605     0.9359123939    -0.7571695593
   78      C       7.7816328776    -2.7214220358     0.4009681502
   79      C       8.7039895800    -1.8492601838    -0.1088767453
   80      N      10.4878898521     2.2467792701    -0.8994294706
   81      S      11.4715470642    -0.1461949324    -1.0082272448
   82      C      11.7612980137     2.4000751946    -1.3953226179
   83      C      12.5323859176     1.2339094405    -1.4399306698
   84      C      -3.5952792311     2.1817792657     0.8907955355
   85      H      -1.6852606736     3.7033975889    -0.4457562923
   86      H       0.5847936434     3.7900512787    -0.2338470282
   87      H       0.2240844358     0.5508005901     2.6861127051
   88      H       2.2098401557    -0.3550069034     1.5308032203
   89      H       7.8718751792    -3.7991029482     0.4164658267
   90      H       9.7480500725    -2.1212888395    -0.2210556133
   91      H      12.1988007254     3.3717489455    -1.5817374751
   92      H      13.5462113433     1.0827726569    -1.7861223494
   93      H      -3.7706326433     2.3806755533    -0.1744591043
   94      C      -4.3351878362     3.3843919378     1.5341034066
   95      H      -4.0343012267     1.2102341183     1.1470077797
   96      H      -3.8522635532     4.2845522264     1.1330989282
   97      H      -4.0424849698     3.2792703613     2.5861516404
   98      C      -5.8810273091     3.5132607858     1.3199816091
   99      H      -6.4045774620     2.7223121136     1.8718116874
  100      C      -6.3174788334     3.5100869598    -0.0936484676
  101      H      -6.0943941666     4.5014660851     1.7448649704
  102      H      -6.0479389252     2.4818813646    -0.3660406333
  103      H      -5.8061222410     4.2363305325    -0.7382070052
  104      C      -7.8771747105     3.5927129021    -0.2925849517
  105      H      -8.3651882975     2.8697707111     0.3718029827
  106      C      -8.2987724700     3.3803858822    -1.7536313458
  107      H      -8.3408511406     4.5468498230    -0.0134220882
  108      H      -9.3793773970     3.4815323880    -1.9171439631
  109      H      -7.9885649514     2.3678019350    -2.0378179839
  110      H      -7.8243891240     4.0983527239    -2.4336225629
 ----------------------------------------------------------------

    9   -5663.5035886992      8.09E-06 Convergence criterion met
 Total energy in the final basis set = -5663.5035886992

                    Orbital Energies (a.u.)
 --------------------------------------------------------------

 Alpha MOs
 -- Occupied --
-88.992 -88.984 -88.933 -88.926 -88.926 -88.917 -88.909 -88.906
-14.383 -14.380 -14.378 -14.371 -14.350 -14.349 -14.342 -14.332
-14.325 -14.323 -10.268 -10.264 -10.263 -10.262 -10.256 -10.254
-10.251 -10.245 -10.238 -10.238 -10.237 -10.237 -10.235 -10.234
-10.234 -10.234 -10.231 -10.231 -10.226 -10.226 -10.226 -10.226
-10.223 -10.221 -10.220 -10.220 -10.216 -10.216 -10.215 -10.213
-10.212 -10.204 -10.202 -10.200 -10.199 -10.199 -10.198 -10.187
-10.187 -10.183 -10.181 -10.181 -10.178 -10.177 -10.177 -10.176
-10.176 -10.174 -10.173 -10.171  -8.047  -8.039  -7.995  -7.986
 -7.985  -7.974  -7.967  -7.964  -6.012  -6.006  -6.005  -6.005
 -5.999  -5.997  -5.958  -5.955  -5.952  -5.950  -5.950  -5.947
 -5.946  -5.943  -5.943  -5.939  -5.935  -5.932  -5.931  -5.929
 -5.928  -5.925  -5.923  -5.920  -1.037  -1.030  -0.968  -0.966
 -0.964  -0.952  -0.951  -0.937  -0.914  -0.907  -0.899  -0.891
 -0.839  -0.837  -0.835  -0.825  -0.817  -0.810  -0.808  -0.805
 -0.801  -0.801  -0.795  -0.791  -0.789  -0.778  -0.766  -0.762
 -0.749  -0.748  -0.738  -0.737  -0.722  -0.718  -0.712  -0.711
 -0.696  -0.693  -0.676  -0.674  -0.657  -0.649  -0.644  -0.639
 -0.637  -0.629  -0.624  -0.618  -0.612  -0.606  -0.601  -0.599
 -0.593  -0.592  -0.591  -0.584  -0.575  -0.573  -0.557  -0.551
 -0.546  -0.544  -0.538  -0.533  -0.521  -0.518  -0.516  -0.514
 -0.509  -0.500  -0.497  -0.492  -0.489  -0.483  -0.480  -0.475
 -0.474  -0.470  -0.469  -0.465  -0.463  -0.454  -0.453  -0.450
 -0.447  -0.443  -0.441  -0.436  -0.434  -0.433  -0.432  -0.430
 -0.429  -0.426  -0.425  -0.420  -0.417  -0.415  -0.415  -0.412
 -0.410  -0.409  -0.408  -0.402  -0.401  -0.400  -0.399  -0.397
 -0.394  -0.392  -0.391  -0.390  -0.389  -0.386  -0.384  -0.381
 -0.378  -0.375  -0.373  -0.367  -0.364  -0.362  -0.354  -0.352
 -0.351  -0.348  -0.345  -0.343  -0.341  -0.341  -0.339  -0.338
 -0.335  -0.331  -0.331  -0.329  -0.327  -0.326  -0.325  -0.322
 -0.308  -0.307  -0.307  -0.304  -0.302  -0.300  -0.298  -0.297
 -0.294  -0.293  -0.292  -0.286  -0.284  -0.283  -0.281  -0.278
 -0.273  -0.271  -0.264  -0.262  -0.254  -0.249  -0.248  -0.244
 -0.243  -0.242  -0.232  -0.226  -0.191  -0.190

          Ground-State Mulliken Net Atomic Charges

     Atom                 Charge (a.u.)
  ----------------------------------------
      1 C                     0.273699
      2 C                    -0.123877
      3 N                    -0.477319
      4 C                    -0.085587
      5 C                     0.089561
      6 C                     0.053375
      7 C                     0.021095
      8 C                     0.059631
      9 C                     0.201627
     10 N                    -0.504632
     11 N                    -0.547313
     12 C                     0.259771
     13 C                     0.296418
     14 S                     0.629128
     15 N                    -0.571159
     16 C                    -0.233522
     17 S                     0.372113
     18 C                    -0.119439
     19 C                    -0.182819
     20 S                     0.268192
     21 C                     0.108198
     22 C                     0.024183
     23 C                    -0.313604
     24 C                    -0.069184
     25 N                    -0.419167
     26 S                     0.281148
     27 C                     0.127850
     28 C                    -0.301313
     29 C                    -0.231633
     30 H                     0.086964
     31 H                     0.102509
     32 H                     0.102064
     33 H                     0.108532
     34 H                     0.130971
     35 H                     0.119412
     36 H                     0.109849
     37 H                     0.122856
     38 H                     0.115144
     39 C                    -0.192372
     40 H                     0.117895
     41 H                     0.094312
     42 H                     0.111786
     43 C                    -0.187999
     44 H                     0.090429
     45 C                    -0.161839
     46 H                     0.088315
     47 H                     0.085354
     48 H                     0.095917
     49 C                    -0.182240
     50 H                     0.093012
     51 C                    -0.310199
     52 H                     0.087473
     53 H                     0.103037
     54 H                     0.102705
     55 H                     0.097994
     56 C                     0.272378
     57 C                    -0.111353
     58 N                    -0.486893
     59 C                    -0.053231
     60 C                     0.058368
     61 C                     0.036848
     62 C                     0.052328
     63 C                     0.056674
     64 C                     0.208131
     65 N                    -0.527378
     66 N                    -0.556428
     67 C                     0.229101
     68 C                     0.315915
     69 S                     0.596371
     70 N                    -0.572685
     71 C                    -0.238346
     72 S                     0.359467
     73 C                    -0.140439
     74 C                    -0.244595
     75 S                     0.307311
     76 C                     0.183717
     77 C                     0.059440
     78 C                    -0.298644
     79 C                    -0.095567
     80 N                    -0.431458
     81 S                     0.280559
     82 C                     0.129482
     83 C                    -0.319635
     84 C                    -0.231371
     85 H                     0.080606
     86 H                     0.112070
     87 H                     0.100851
     88 H                     0.126903
     89 H                     0.121034
     90 H                     0.108160
     91 H                     0.118868
     92 H                     0.136762
     93 H                     0.099870
     94 C                    -0.183615
     95 H                     0.104949
     96 H                     0.088794
     97 H                     0.103788
     98 C                    -0.179345
     99 H                     0.104709
    100 C                    -0.166590
    101 H                     0.094208
    102 H                     0.101229
    103 H                     0.086513
    104 C                    -0.190072
    105 H                     0.105001
    106 C                    -0.316706
    107 H                     0.090256
    108 H                     0.096642
    109 H                     0.102082
    110 H                     0.097664
  ----------------------------------------
  Sum of atomic charges =     0.000000

                    Cartesian Multipole Moments
 -----------------------------------------------------------------
    Charge (ESU x 10^10)
                 0.0000
    Dipole Moment (Debye)
         X       2.1686      Y      -0.7229      Z      -3.8154
       Tot       4.4477
    Quadrupole Moments (Debye-Ang)
        XX    -380.1560     XY     -17.3968     YY    -422.2126
        XZ      -3.6857     YZ      -4.8009     ZZ    -448.4679

 Total job time:  97.42s(wall), 1180.87s(cpu)
        *  Thank you very much for using Q-Chem.  Have a nice day.  *
