 Q-Chem 4.4, Q-Chem, Inc., Pleasanton, CA (2016)
 Q-Chem 4.4.2 for Intel X86 Linux

User input:
--------------------------------------------------------------
$comment
SP
$end

$rem
MEM_STATIC 5000
MEM_TOTAL 20000
JOBTYPE SP
EXCHANGE B3LYP
BASIS 6-31g(d,p)
$end

$molecule
0 1
C          10.774000    -15.751000     -9.769000
C          11.352000    -16.840000     -9.134000
N           9.515000    -15.381000     -9.443000
C          10.652000    -17.593000     -8.162000
C           8.820000    -16.134000     -8.554000
C           9.344000    -17.250000     -7.840000
C           8.533000    -18.122000     -6.952000
C           8.775000    -19.519000     -6.878000
C           7.364000    -17.714000     -6.225000
N           7.995000    -20.361000     -6.146000
N           6.971000    -16.447000     -6.142000
C           6.535000    -18.635000     -5.588000
C           6.902000    -19.925000     -5.531000
S           5.542000    -16.449000     -5.278000
N           5.479000    -18.018000     -5.031000
C           6.207000    -20.974000     -4.746000
S           7.084000    -22.059000     -3.687000
C           4.862000    -21.159000     -4.578000
C           5.629000    -22.748000     -2.980000
S           3.506000    -20.412000     -5.370000
C           4.553000    -22.230000     -3.720000
C           5.652000    -23.556000     -1.856000
C           2.430000    -21.619000     -4.537000
C           3.150000    -22.410000     -3.616000
N           4.659000    -24.353000     -1.648000
S           7.157000    -23.907000     -1.015000
C           4.959000    -25.208000     -0.618000
C           6.273000    -25.130000     -0.200000
C          11.525000    -14.978000    -10.837000
H          12.375000    -17.109000     -9.379000
H          11.201000    -18.400000     -7.685000
H           7.834000    -15.710000     -8.370000
H           9.597000    -19.977000     -7.427000
H           1.365000    -21.482000     -4.671000
H           2.690000    -22.962000     -2.804000
H           4.277000    -25.925000     -0.181000
H           6.754000    -25.754000      0.541000
H          11.921000    -15.591000    -11.656000
C          12.709000    -14.167000    -10.284000
H          10.831000    -14.225000    -11.231000
H          13.157000    -14.723000     -9.451000
H          12.234000    -13.298000     -9.813000
C          13.762000    -13.649000    -11.321000
H          14.044000    -14.574000    -11.838000
C          14.941000    -12.957000    -10.625000
H          13.262000    -12.934000    -11.986000
H          15.232000    -13.615000     -9.797000
H          14.668000    -11.979000    -10.208000
C          16.089000    -12.853000    -11.576000
H          17.066000    -12.975000    -11.093000
C          16.067000    -11.467000    -12.297000
H          16.120000    -13.642000    -12.338000
H          15.097000    -11.214000    -12.742000
H          16.859000    -11.354000    -13.047000
H          16.348000    -10.714000    -11.550000
C          14.042000    -19.902000     -6.413000
C          15.219000    -20.675000     -6.383000
N          13.892000    -18.982000     -7.373000
C          16.226000    -20.483000     -7.302000
C          14.880000    -18.796000     -8.244000
C          16.149000    -19.447000     -8.255000
C          17.344000    -19.007000     -8.994000
C          17.558000    -17.638000     -9.370000
C          18.364000    -19.940000     -9.475000
N          18.671000    -17.141000     -9.934000
N          18.354000    -21.265000     -9.300000
C          19.448000    -19.424000    -10.267000
C          19.617000    -18.001000    -10.379000
S          19.629000    -21.848000    -10.120000
N          20.296000    -20.411000    -10.610000
C          20.889000    -17.497000    -10.887000
S          22.365000    -18.510000    -11.259000
C          21.262000    -16.168000    -10.985000
C          23.282000    -17.032000    -11.754000
S          20.295000    -14.710000    -10.660000
C          22.529000    -15.931000    -11.479000
C          24.658000    -17.082000    -12.184000
C          21.652000    -13.783000    -11.362000
C          22.782000    -14.524000    -11.575000
N          25.106000    -18.343000    -12.349000
S          25.698000    -15.839000    -12.641000
C          26.430000    -18.324000    -12.720000
C          26.945000    -17.064000    -13.042000
C          12.849000    -20.186000     -5.427000
H          15.327000    -21.440000     -5.619000
H          17.011000    -21.216000     -7.142000
H          14.632000    -18.042000     -8.990000
H          16.804000    -16.880000     -9.165000
H          21.600000    -12.703000    -11.336000
H          23.649000    -14.113000    -12.081000
H          26.992000    -19.228000    -12.913000
H          27.941000    -16.778000    -13.353000
H          13.369000    -20.412000     -4.487000
C          12.004000    -21.475000     -5.606000
H          12.244000    -19.282000     -5.289000
H          12.723000    -22.303000     -5.648000
H          11.595000    -21.326000     -6.613000
C          10.919000    -21.814000     -4.529000
H          10.089000    -21.099000     -4.593000
C          11.419000    -21.877000     -3.138000
H          10.600000    -22.820000     -4.827000
H          11.687000    -20.823000     -2.992000
H          12.288000    -22.530000     -2.987000
C          10.309000    -22.172000     -2.061000
H           9.447000    -21.519000     -2.242000
C          10.827000    -22.026000     -0.623000
H           9.875000    -23.179000     -2.091000
H          10.078000    -22.274000      0.140000
H          11.136000    -20.982000     -0.493000
H          11.687000    -22.676000     -0.421000
$end

--------------------------------------------------------------

             Standard Nuclear Orientation (Angstroms)
    I     Atom           X                Y                Z
 ----------------------------------------------------------------
    1      C      -0.6129587327    -4.4668831572     0.8102818439
    2      C      -0.6512968281    -3.0831680959     0.7260629661
    3      N      -1.7550776069    -5.1751005108     0.6611186540
    4      C      -1.8614206168    -2.3837890061     0.5063761326
    5      C      -2.9255046640    -4.5065919907     0.5076524927
    6      C      -3.0511766747    -3.0925788330     0.3868165068
    7      C      -4.3516787322    -2.3773182137     0.3256148321
    8      C      -4.5199862470    -1.1099108297     0.9428668904
    9      C      -5.5768264871    -2.9185347809    -0.1917357317
   10      N      -5.7196257938    -0.4678196696     0.9849608312
   11      N      -5.6390642539    -4.0823650228    -0.8306822306
   12      C      -6.7982776075    -2.2709652265    -0.0186408655
   13      C      -6.8239983529    -1.0438796028     0.5250845390
   14      S      -7.2506790380    -4.3470493749    -1.1787928186
   15      N      -7.8007611524    -3.0013130919    -0.5360311800
   16      C      -8.0237269566    -0.1763028910     0.6123366246
   17      S      -7.9815209493     1.5003727088     0.1075469793
   18      C      -9.3113596086    -0.5332579220     0.9056952096
   19      C      -9.7196958744     1.7201710901     0.2559774388
   20      S      -9.9680152406    -2.0336544389     1.4901801735
   21      C     -10.2118427273     0.5459545548     0.8498688459
   22      C     -10.3792466153     2.8332298314    -0.2368329288
   23      C     -11.5589211373    -1.1812612949     1.7159197485
   24      C     -11.5214343077     0.1347356350     1.2069317152
   25      N     -11.5298448680     3.1394996029     0.2600015385
   26      S      -9.5153811031     4.0950543961    -1.1069146174
   27      C     -11.9200711961     4.3715741040    -0.2000428470
   28      C     -10.9355675754     5.0352282210    -0.9055354649
   29      C       0.6873884920    -5.1989149650     1.0848369889
   30      H       0.2761276527    -2.5254987475     0.8144016909
   31      H      -1.7875894999    -1.3043303287     0.4089239396
   32      H      -3.7562266657    -5.1986239495     0.3779577593
   33      H      -3.6849489086    -0.6053953991     1.4276615105
   34      H     -12.3942982058    -1.8003470299     2.0156329549
   35      H     -12.4046569757     0.7096592993     0.9519248545
   36      H     -12.8777466654     4.8366548692    -0.0083671383
   37      H     -10.9878248096     6.0420037223    -1.2973138096
   38      H       1.2282719828    -4.8576760079     1.9760984676
   39      C       1.6835445735    -5.1324330507    -0.0850515598
   40      H       0.4386411460    -6.2633917708     1.1791497017
   41      H       1.5803052097    -4.1583904772    -0.5793305284
   42      H       1.2857830044    -5.8537017519    -0.8090572192
   43      C       3.1700186999    -5.5161279177     0.2242620685
   44      H       3.4055456814    -4.8500346021     1.0628828027
   45      C       4.0713401893    -5.2982601392    -0.9978157538
   46      H       3.1960053460    -6.5747052220     0.5109479330
   47      H       3.8082876040    -4.3103622574    -1.3954212273
   48      H       3.8994063953    -6.0433255965    -1.7853551083
   49      C       5.5009067605    -5.2709455534    -0.5634031251
   50      H       6.1148293968    -4.5628224709    -1.1329316113
   51      C       6.1334058326    -6.6928018640    -0.7033693914
   52      H       5.6562242988    -4.9198624979     0.4645770062
   53      H       5.5419592544    -7.4892304900    -0.2355805622
   54      H       7.1699060521    -6.7448058388    -0.3491154124
   55      H       6.2469525509    -6.8874524744    -1.7772396269
   56      C      -0.2311722936     1.6339506406    -0.5341240047
   57      C       0.5878074137     2.7760661162    -0.4413744523
   58      N       0.2758972511     0.4409331358    -0.2023263103
   59      C       1.9029609167     2.6844516796    -0.0445721608
   60      C       1.5525882392     0.3651701886     0.1633252953
   61      C       2.4993962465     1.4311529736     0.2022906572
   62      C       3.9631035519     1.2899141665     0.2754925939
   63      C       4.6497618801     0.1197741768    -0.1941942643
   64      C       4.8233386564     2.2917868257     0.9067585756
   65      N       5.9817773881    -0.0331708159    -0.2730391484
   66      N       4.4106901018     3.4333255338     1.4661873452
   67      C       6.2319468376     2.0203696120     1.0103524354
   68      C       6.7804537697     0.8921415015     0.3087289778
   69      S       5.7241503131     4.1249423217     2.1252795178
   70      N       6.8703541977     3.0475714318     1.6004494308
   71      C       8.2286842485     0.8236374882     0.1413979280
   72      S       9.4193106305     2.1284459100     0.6136402399
   73      C       8.9253299446    -0.1356091527    -0.5723980204
   74      C      10.7953265530     1.1224808080     0.0094776836
   75      S       8.3081636007    -1.6033211214    -1.3670081644
   76      C      10.2968668035     0.0161881734    -0.6089796591
   77      C      12.1630791412     1.5793598248     0.0454001228
   78      C      10.0181251039    -2.0562693212    -1.6208813331
   79      C      10.9076583279    -1.0568319634    -1.3359153506
   80      N      12.3095773482     2.7291828728     0.7342362672
   81      S      13.5714909999     0.8318761173    -0.4960259046
   82      C      13.6241208489     3.1312855687     0.6986440388
   83      C      14.5225397918     2.1996144334     0.1682278829
   84      C      -1.7595439776     1.7475516568    -0.8908813516
   85      H       0.1662057635     3.7473231173    -0.6852942885
   86      H       2.3354996020     3.6784721768     0.0182572664
   87      H       1.8419954748    -0.6497442558     0.4330068158
   88      H       4.0949659868    -0.7361818319    -0.5745175846
   89      H      10.2303250444    -2.9453431348    -2.1990672369
   90      H      11.9795827576    -1.2218496296    -1.3557442915
   91      H      13.9704759821     4.0286580041     1.1936893235
   92      H      15.5925670740     2.2687225732     0.0240104065
   93      H      -1.7636693883     2.5268312038    -1.6640452208
   94      C      -2.7388994609     2.3627193593     0.1435356509
   95      H      -2.1198845881     0.8099570878    -1.3306040696
   96      H      -2.3013717981     3.3254108274     0.4369699393
   97      H      -2.6288195278     1.6667131287     0.9843618727
   98      C      -4.2257437988     2.6032718675    -0.2848373242
   99      H      -4.7427889367     1.6428403082    -0.4050726982
  100      C      -4.3988091310     3.4209581650    -1.5056106487
  101      H      -4.6264640996     3.1657439180     0.5670132688
  102      H      -3.9657910931     2.7372906560    -2.2466572841
  103      H      -3.8694716054     4.3822704296    -1.4984333198
  104      C      -5.8964630885     3.6151025003    -1.9510257366
  105      H      -6.4069349101     2.6448483875    -1.9355507242
  106      C      -6.0219232303     4.2894019073    -3.3247302399
  107      H      -6.5116093783     4.2358753949    -1.2880468112
  108      H      -7.0601153464     4.4745794282    -3.6289348024
  109      H      -5.5489092906     3.6249926166    -4.0576252579
  110      H      -5.5213886643     5.2647162642    -3.3583613774
 ----------------------------------------------------------------

    9   -5663.5276650354      9.61E-06 Convergence criterion met
 Total energy in the final basis set = -5663.5276650354

                    Orbital Energies (a.u.)
 --------------------------------------------------------------

 Alpha MOs
 -- Occupied --
-88.991 -88.989 -88.937 -88.922 -88.922 -88.917 -88.915 -88.905
-14.389 -14.383 -14.379 -14.374 -14.356 -14.346 -14.346 -14.339
-14.335 -14.321 -10.272 -10.269 -10.262 -10.260 -10.259 -10.253
-10.251 -10.247 -10.246 -10.244 -10.243 -10.239 -10.238 -10.238
-10.236 -10.233 -10.233 -10.232 -10.232 -10.231 -10.231 -10.229
-10.228 -10.227 -10.224 -10.224 -10.223 -10.221 -10.219 -10.211
-10.209 -10.208 -10.207 -10.206 -10.200 -10.198 -10.197 -10.190
-10.188 -10.186 -10.179 -10.179 -10.177 -10.176 -10.175 -10.174
-10.174 -10.173 -10.170 -10.170  -8.046  -8.045  -7.998  -7.984
 -7.979  -7.977  -7.974  -7.965  -6.012  -6.010  -6.006  -6.005
 -6.004  -6.002  -5.962  -5.959  -5.955  -5.947  -5.944  -5.944
 -5.941  -5.941  -5.940  -5.938  -5.937  -5.936  -5.935  -5.934
 -5.930  -5.930  -5.926  -5.921  -1.041  -1.036  -0.979  -0.970
 -0.960  -0.959  -0.948  -0.927  -0.913  -0.909  -0.905  -0.900
 -0.840  -0.838  -0.834  -0.826  -0.815  -0.812  -0.811  -0.808
 -0.806  -0.805  -0.799  -0.794  -0.784  -0.781  -0.767  -0.766
 -0.753  -0.745  -0.743  -0.738  -0.723  -0.717  -0.716  -0.706
 -0.698  -0.690  -0.679  -0.677  -0.655  -0.651  -0.646  -0.645
 -0.635  -0.635  -0.626  -0.621  -0.612  -0.607  -0.605  -0.597
 -0.593  -0.590  -0.586  -0.581  -0.580  -0.572  -0.568  -0.559
 -0.551  -0.546  -0.544  -0.544  -0.525  -0.525  -0.518  -0.511
 -0.508  -0.505  -0.498  -0.498  -0.491  -0.483  -0.478  -0.475
 -0.474  -0.473  -0.470  -0.464  -0.463  -0.460  -0.452  -0.448
 -0.445  -0.443  -0.441  -0.439  -0.438  -0.434  -0.434  -0.431
 -0.430  -0.429  -0.423  -0.423  -0.422  -0.416  -0.414  -0.414
 -0.411  -0.411  -0.407  -0.405  -0.402  -0.398  -0.397  -0.395
 -0.394  -0.394  -0.393  -0.389  -0.388  -0.385  -0.383  -0.379
 -0.377  -0.375  -0.370  -0.368  -0.366  -0.363  -0.360  -0.359
 -0.354  -0.351  -0.350  -0.347  -0.346  -0.344  -0.337  -0.337
 -0.334  -0.332  -0.330  -0.328  -0.328  -0.326  -0.322  -0.320
 -0.313  -0.309  -0.308  -0.305  -0.303  -0.302  -0.299  -0.298
 -0.297  -0.296  -0.296  -0.290  -0.289  -0.285  -0.283  -0.282
 -0.280  -0.272  -0.269  -0.261  -0.259  -0.256  -0.250  -0.248
 -0.242  -0.239  -0.236  -0.227  -0.197  -0.189

          Ground-State Mulliken Net Atomic Charges

     Atom                 Charge (a.u.)
  ----------------------------------------
      1 C                     0.282082
      2 C                    -0.117413
      3 N                    -0.491714
      4 C                    -0.098970
      5 C                     0.074740
      6 C                     0.051908
      7 C                     0.057920
      8 C                     0.048519
      9 C                     0.223516
     10 N                    -0.517729
     11 N                    -0.577479
     12 C                     0.262836
     13 C                     0.254381
     14 S                     0.610204
     15 N                    -0.555100
     16 C                    -0.224478
     17 S                     0.317025
     18 C                    -0.090816
     19 C                    -0.225681
     20 S                     0.252846
     21 C                     0.139719
     22 C                     0.061330
     23 C                    -0.307158
     24 C                    -0.059466
     25 N                    -0.429726
     26 S                     0.275223
     27 C                     0.121792
     28 C                    -0.314167
     29 C                    -0.235937
     30 H                     0.088212
     31 H                     0.124284
     32 H                     0.119516
     33 H                     0.119170
     34 H                     0.131510
     35 H                     0.125276
     36 H                     0.113718
     37 H                     0.130078
     38 H                     0.102150
     39 C                    -0.195167
     40 H                     0.118750
     41 H                     0.090413
     42 H                     0.101282
     43 C                    -0.172216
     44 H                     0.092623
     45 C                    -0.165946
     46 H                     0.099207
     47 H                     0.088732
     48 H                     0.097935
     49 C                    -0.179195
     50 H                     0.094876
     51 C                    -0.325215
     52 H                     0.096871
     53 H                     0.104658
     54 H                     0.095232
     55 H                     0.101228
     56 C                     0.272359
     57 C                    -0.121607
     58 N                    -0.489208
     59 C                    -0.055803
     60 C                     0.066000
     61 C                     0.031505
     62 C                     0.042404
     63 C                     0.052789
     64 C                     0.213163
     65 N                    -0.524119
     66 N                    -0.555785
     67 C                     0.229163
     68 C                     0.318552
     69 S                     0.602669
     70 N                    -0.571909
     71 C                    -0.237696
     72 S                     0.364863
     73 C                    -0.129718
     74 C                    -0.243352
     75 S                     0.288595
     76 C                     0.184504
     77 C                     0.059589
     78 C                    -0.295276
     79 C                    -0.092252
     80 N                    -0.431031
     81 S                     0.284621
     82 C                     0.129988
     83 C                    -0.318543
     84 C                    -0.237355
     85 H                     0.087581
     86 H                     0.119406
     87 H                     0.092940
     88 H                     0.115207
     89 H                     0.128553
     90 H                     0.110774
     91 H                     0.120497
     92 H                     0.138795
     93 H                     0.104280
     94 C                    -0.185873
     95 H                     0.109961
     96 H                     0.090180
     97 H                     0.098733
     98 C                    -0.176133
     99 H                     0.112947
    100 C                    -0.169111
    101 H                     0.100459
    102 H                     0.097130
    103 H                     0.084658
    104 C                    -0.186630
    105 H                     0.105531
    106 C                    -0.322799
    107 H                     0.098256
    108 H                     0.101411
    109 H                     0.101223
    110 H                     0.098728
  ----------------------------------------
  Sum of atomic charges =     0.000000

                    Cartesian Multipole Moments
 -----------------------------------------------------------------
    Charge (ESU x 10^10)
                 0.0000
    Dipole Moment (Debye)
         X       3.5188      Y       3.0087      Z      -1.9811
       Tot       5.0357
    Quadrupole Moments (Debye-Ang)
        XX    -347.3854     XY      -9.0283     YY    -426.7981
        XZ       4.8044     YZ       1.4970     ZZ    -453.2705

 Total job time:  84.65s(wall), 1009.52s(cpu)
        *  Thank you very much for using Q-Chem.  Have a nice day.  *
