 Q-Chem 4.4, Q-Chem, Inc., Pleasanton, CA (2016)
 Q-Chem 4.4.2 for Intel X86 Linux

User input:
--------------------------------------------------------------
$comment
SP
$end

$rem
MEM_STATIC 5000
MEM_TOTAL 20000
JOBTYPE SP
EXCHANGE B3LYP
BASIS 6-31g(d,p)
$end

$molecule
0 1
C          22.318000    -21.234000    -16.910000
C          21.961000    -22.567000    -16.522000
N          23.095000    -20.435000    -16.172000
C          22.464000    -23.039000    -15.286000
C          23.592000    -20.948000    -15.021000
C          23.260000    -22.178000    -14.471000
C          23.769000    -22.527000    -13.131000
C          22.886000    -23.097000    -12.239000
C          25.107000    -22.388000    -12.715000
N          23.268000    -23.698000    -11.114000
N          26.076000    -21.798000    -13.468000
C          25.512000    -22.981000    -11.549000
C          24.549000    -23.720000    -10.732000
S          27.411000    -21.871000    -12.559000
N          26.887000    -22.772000    -11.277000
C          24.886000    -24.291000     -9.438000
S          26.422000    -23.977000     -8.529000
C          24.139000    -25.196000     -8.741000
C          25.784000    -24.981000     -7.208000
S          22.608000    -25.984000     -9.216000
C          24.628000    -25.568000     -7.537000
C          26.440000    -25.224000     -5.962000
C          22.574000    -26.737000     -7.561000
C          23.734000    -26.437000     -6.851000
N          27.524000    -24.507000     -5.834000
S          26.318000    -26.679000     -5.008000
C          28.367000    -25.034000     -4.873000
C          27.840000    -26.203000     -4.263000
C          21.920000    -20.728000    -18.286000
H          21.283000    -23.152000    -17.137000
H          22.254000    -24.074000    -15.034000
H          24.264000    -20.230000    -14.552000
H          21.862000    -23.257000    -12.573000
H          21.752000    -27.349000     -7.213000
H          23.888000    -26.891000     -5.879000
H          29.326000    -24.588000     -4.643000
H          28.213000    -26.844000     -3.474000
H          22.777000    -20.189000    -18.708000
C          20.636000    -19.792000    -18.242000
H          21.634000    -21.618000    -18.860000
H          20.319000    -19.524000    -19.257000
H          20.905000    -18.864000    -17.722000
C          19.472000    -20.457000    -17.506000
H          19.256000    -21.469000    -17.869000
C          18.175000    -19.555000    -17.670000
H          19.702000    -20.534000    -16.436000
H          18.210000    -18.967000    -18.595000
H          18.114000    -18.865000    -16.820000
C          16.828000    -20.351000    -17.733000
H          16.110000    -19.647000    -18.171000
C          16.322000    -21.016000    -16.352000
H          16.897000    -21.093000    -18.538000
H          16.259000    -20.359000    -15.476000
H          17.129000    -21.706000    -16.074000
H          15.362000    -21.543000    -16.410000
C          14.042000    -19.902000     -6.413000
C          15.219000    -20.675000     -6.383000
N          13.892000    -18.982000     -7.373000
C          16.226000    -20.483000     -7.302000
C          14.880000    -18.796000     -8.244000
C          16.149000    -19.447000     -8.255000
C          17.344000    -19.007000     -8.994000
C          17.558000    -17.638000     -9.370000
C          18.364000    -19.940000     -9.475000
N          18.671000    -17.141000     -9.934000
N          18.354000    -21.265000     -9.300000
C          19.448000    -19.424000    -10.267000
C          19.617000    -18.001000    -10.379000
S          19.629000    -21.848000    -10.120000
N          20.296000    -20.411000    -10.610000
C          20.889000    -17.497000    -10.887000
S          22.365000    -18.510000    -11.259000
C          21.262000    -16.168000    -10.985000
C          23.282000    -17.032000    -11.754000
S          20.295000    -14.710000    -10.660000
C          22.529000    -15.931000    -11.479000
C          24.658000    -17.082000    -12.184000
C          21.652000    -13.783000    -11.362000
C          22.782000    -14.524000    -11.575000
N          25.106000    -18.343000    -12.349000
S          25.698000    -15.839000    -12.641000
C          26.430000    -18.324000    -12.720000
C          26.945000    -17.064000    -13.042000
C          12.849000    -20.186000     -5.427000
H          15.327000    -21.440000     -5.619000
H          17.011000    -21.216000     -7.142000
H          14.632000    -18.042000     -8.990000
H          16.804000    -16.880000     -9.165000
H          21.600000    -12.703000    -11.336000
H          23.649000    -14.113000    -12.081000
H          26.992000    -19.228000    -12.913000
H          27.941000    -16.778000    -13.353000
H          13.369000    -20.412000     -4.487000
C          12.004000    -21.475000     -5.606000
H          12.244000    -19.282000     -5.289000
H          12.723000    -22.303000     -5.648000
H          11.595000    -21.326000     -6.613000
C          10.919000    -21.814000     -4.529000
H          10.089000    -21.099000     -4.593000
C          11.419000    -21.877000     -3.138000
H          10.600000    -22.820000     -4.827000
H          11.687000    -20.823000     -2.992000
H          12.288000    -22.530000     -2.987000
C          10.309000    -22.172000     -2.061000
H           9.447000    -21.519000     -2.242000
C          10.827000    -22.026000     -0.623000
H           9.875000    -23.179000     -2.091000
H          10.078000    -22.274000      0.140000
H          11.136000    -20.982000     -0.493000
H          11.687000    -22.676000     -0.421000
$end

--------------------------------------------------------------

             Standard Nuclear Orientation (Angstroms)
    I     Atom           X                Y                Z
 ----------------------------------------------------------------
    1      C      -4.0685440440     4.1208928448     3.2840339601
    2      C      -3.6530269772     3.1386413052     4.2418489110
    3      N      -4.3406918439     3.8355238273     2.0068205484
    4      C      -3.5251447569     1.8040873200     3.7878656533
    5      C      -4.2511870328     2.5370630810     1.6313640541
    6      C      -3.7728149158     1.4968935545     2.4154759554
    7      C      -3.5922343558     0.1641251013     1.8091749481
    8      C      -2.4260341672    -0.5148164589     2.0907215300
    9      C      -4.5512869385    -0.4999351981     1.0205920024
   10      N      -2.2541620988    -1.8105423825     1.8371385590
   11      N      -5.7242267642     0.0644664873     0.6209260133
   12      C      -4.3792036465    -1.8273224036     0.7313506717
   13      C      -3.1899510050    -2.5317402245     1.2114055521
   14      S      -6.4559032674    -1.0768738567    -0.2598842465
   15      N      -5.4357151289    -2.3593218308    -0.0490659459
   16      C      -2.8952846961    -3.9118726113     0.8614736140
   17      S      -3.7782339543    -4.8804765954    -0.3900773955
   18      C      -1.9630574490    -4.7098576537     1.4589811302
   19      C      -2.6461060747    -6.2155075867    -0.0801101128
   20      S      -0.9046522708    -4.3435032299     2.8504166892
   21      C      -1.8321235254    -5.9547050898     0.9487535648
   22      C      -2.6326587807    -7.4665490419    -0.7704835246
   23      C      -0.1230437763    -5.9633255158     2.5812440241
   24      C      -0.7745538789    -6.6720632432     1.5748020635
   25      N      -3.4726546672    -7.4804350306    -1.7703550613
   26      S      -2.1567443274    -9.0027372949    -0.0954604993
   27      C      -3.7779841013    -8.7730163304    -2.1549412286
   28      C      -3.0964912141    -9.7502974051    -1.3823616884
   29      C      -4.3536064489     5.5388921904     3.7486125660
   30      H      -3.3945244423     3.4373928976     5.2538063832
   31      H      -3.2849923762     1.0529385124     4.5341439545
   32      H      -4.5666027940     2.4258705327     0.5944368075
   33      H      -1.7029615020    -0.0291193539     2.7441710254
   34      H       0.7245535924    -6.3077254234     3.1594303298
   35      H      -0.4681942467    -7.6904214154     1.3657412861
   36      H      -4.4765543429    -8.9848339623    -2.9540844625
   37      H      -3.0815167333   -10.8321628721    -1.4256499801
   38      H      -5.2720885909     5.8776183148     3.2539316917
   39      C      -3.1521286355     6.5330222074     3.4406441043
   40      H      -4.4368331873     5.4839296041     4.8410522321
   41      H      -3.3485554804     7.5213066525     3.8733661283
   42      H      -3.0777442999     6.6554368863     2.3527899702
   43      C      -1.8217850430     6.0006020643     3.9749957836
   44      H      -1.8719206953     5.6973886691     5.0276671726
   45      C      -0.7115257084     7.1239008429     3.8069688101
   46      H      -1.5108241216     5.1228531344     3.3948327708
   47      H      -1.1518593190     8.1281325313     3.8217683831
   48      H      -0.2044937713     6.9793394923     2.8455419379
   49      C       0.3846126994     7.1330616490     4.9251774984
   50      H       0.8444180981     8.1263404834     4.8547491488
   51      C       1.4516952544     5.9223610012     4.8941813353
   52      H      -0.1109404786     7.2108298768     5.9007435652
   53      H       1.9709579516     5.7396339456     3.9455132824
   54      H       0.8377718196     5.0195587956     5.0067832616
   55      H       2.2291111108     5.9632526825     5.6666096211
   56      C       8.3123960306     0.4265132708    -0.3925529672
   57      C       7.2503384871    -0.4810381877    -0.2132707191
   58      N       8.0375826229     1.7261026579    -0.5539376507
   59      C       5.9390720364    -0.0617545731    -0.2292565154
   60      C       6.7657131764     2.1144777830    -0.5838353608
   61      C       5.6111580849     1.2803251790    -0.5098422942
   62      C       4.2381687697     1.6637006891    -0.8781757825
   63      C       3.9556066393     2.7090690745    -1.8208828320
   64      C       3.0564466178     1.0686257976    -0.2523414360
   65      N       2.7423203854     3.0333824213    -2.2969409371
   66      N       3.0665304158     0.1217878573     0.6909221707
   67      C       1.7595853920     1.5747286351    -0.6137095018
   68      C       1.6471974378     2.4840223326    -1.7212237994
   69      S       1.5203512115    -0.1043230018     1.1337740052
   70      N       0.7913425719     0.9081048265     0.0413023599
   71      C       0.3225158495     2.7188722736    -2.2870225223
   72      S      -1.2098787882     1.8409323112    -1.8136124499
   73      C       0.0328084201     3.4896593243    -3.3991964870
   74      C      -2.1570872383     2.7967144221    -3.0217824332
   75      S       1.1258571932     4.5038797733    -4.3703191674
   76      C      -1.2975021334     3.5496563625    -3.7627459152
   77      C      -3.5697093259     2.5951798026    -3.2331083306
   78      C      -0.3401985056     5.1098603942    -5.1931497546
   79      C      -1.4765365724     4.4089164621    -4.8952178800
   80      N      -4.1198214431     1.7697604743    -2.3198123266
   81      S      -4.6207488696     3.3353452790    -4.3207520890
   82      C      -5.4542046344     1.5877579140    -2.5977953600
   83      C      -5.9804354540     2.4239115531    -3.5879656566
   84      C       9.8127004907    -0.0334312637    -0.2757687551
   85      H       7.4769189036    -1.5318975560    -0.0553438278
   86      H       5.2846855322    -0.9010696131    -0.0137511401
   87      H       6.6694150411     3.1938628839    -0.6942458363
   88      H       4.7607373698     3.2972613829    -2.2578030937
   89      H      -0.2144460214     5.7839296347    -6.0295688910
   90      H      -2.4523481609     4.7232129570    -5.2496970147
   91      H      -6.0950041803     0.9658298197    -1.9871478451
   92      H      -6.9826029391     2.4790709412    -3.9918849230
   93      H       9.7982399805    -1.0124988762    -0.7720484180
   94      C      10.3834209364    -0.4229683647     1.1135209986
   95      H      10.4644992191     0.6418380066    -0.8427386221
   96      H       9.6831769846    -1.1572389253     1.5316288218
   97      H      10.2637448274     0.5169451426     1.6664868454
   98      C      11.8298850283    -1.0181589585     1.1881185043
   99      H      12.5688030287    -0.2420067245     0.9518794343
  100      C      12.0609023303    -2.2050133618     0.3355590451
  101      H      11.9014769188    -1.3278996752     2.2376594943
  102      H      11.9634699956    -1.7411507136    -0.6540845189
  103      H      11.3338221056    -3.0168675415     0.4644704013
  104      C      13.5319636384    -2.7641494771     0.3845430479
  105      H      14.2384433823    -1.9336471154     0.2689307707
  106      C      13.7830710476    -3.8596327242    -0.6615666617
  107      H      13.8333499011    -3.2231071778     1.3341899031
  108      H      14.7901475619    -4.2929353034    -0.6094152569
  109      H      13.6414742335    -3.4048533181    -1.6492118581
  110      H      13.0886669565    -4.7023100781    -0.5586014462
 ----------------------------------------------------------------

    9   -5663.5251508912      9.50E-06 Convergence criterion met
 Total energy in the final basis set = -5663.5251508912

                    Orbital Energies (a.u.)
 --------------------------------------------------------------

 Alpha MOs
 -- Occupied --
-88.990 -88.983 -88.933 -88.931 -88.922 -88.917 -88.909 -88.909
-14.391 -14.382 -14.381 -14.377 -14.351 -14.344 -14.343 -14.343
-14.324 -14.320 -10.268 -10.263 -10.263 -10.262 -10.256 -10.256
-10.254 -10.251 -10.239 -10.239 -10.238 -10.238 -10.238 -10.236
-10.235 -10.233 -10.233 -10.232 -10.230 -10.228 -10.227 -10.227
-10.226 -10.224 -10.224 -10.223 -10.215 -10.214 -10.214 -10.213
-10.208 -10.206 -10.204 -10.202 -10.201 -10.198 -10.198 -10.190
-10.185 -10.184 -10.182 -10.181 -10.181 -10.180 -10.179 -10.179
-10.176 -10.175 -10.175 -10.172  -8.045  -8.038  -7.994  -7.992
 -7.980  -7.974  -7.968  -7.968  -6.010  -6.004  -6.004  -6.003
 -5.998  -5.996  -5.958  -5.956  -5.955  -5.952  -5.951  -5.949
 -5.944  -5.941  -5.939  -5.936  -5.935  -5.933  -5.932  -5.930
 -5.929  -5.929  -5.925  -5.924  -1.030  -1.030  -0.973  -0.966
 -0.960  -0.953  -0.939  -0.931  -0.916  -0.908  -0.899  -0.892
 -0.836  -0.835  -0.833  -0.827  -0.808  -0.808  -0.808  -0.806
 -0.801  -0.797  -0.794  -0.792  -0.780  -0.773  -0.763  -0.762
 -0.749  -0.743  -0.739  -0.734  -0.725  -0.718  -0.713  -0.705
 -0.694  -0.688  -0.674  -0.670  -0.653  -0.651  -0.640  -0.639
 -0.636  -0.630  -0.620  -0.619  -0.613  -0.607  -0.605  -0.601
 -0.598  -0.592  -0.586  -0.581  -0.576  -0.572  -0.561  -0.559
 -0.546  -0.543  -0.541  -0.538  -0.524  -0.519  -0.515  -0.514
 -0.501  -0.501  -0.493  -0.492  -0.485  -0.479  -0.478  -0.473
 -0.471  -0.466  -0.465  -0.463  -0.456  -0.452  -0.449  -0.448
 -0.444  -0.444  -0.441  -0.437  -0.434  -0.433  -0.432  -0.430
 -0.428  -0.424  -0.422  -0.422  -0.417  -0.416  -0.411  -0.411
 -0.409  -0.408  -0.404  -0.401  -0.399  -0.395  -0.394  -0.392
 -0.392  -0.391  -0.390  -0.389  -0.388  -0.385  -0.383  -0.382
 -0.376  -0.372  -0.369  -0.369  -0.364  -0.362  -0.356  -0.353
 -0.352  -0.350  -0.347  -0.345  -0.344  -0.341  -0.340  -0.339
 -0.332  -0.331  -0.330  -0.330  -0.328  -0.327  -0.325  -0.315
 -0.312  -0.311  -0.310  -0.307  -0.302  -0.300  -0.299  -0.297
 -0.296  -0.294  -0.293  -0.292  -0.286  -0.283  -0.282  -0.279
 -0.274  -0.271  -0.263  -0.261  -0.255  -0.251  -0.247  -0.245
 -0.245  -0.242  -0.232  -0.230  -0.193  -0.192

          Ground-State Mulliken Net Atomic Charges

     Atom                 Charge (a.u.)
  ----------------------------------------
      1 C                     0.280866
      2 C                    -0.118232
      3 N                    -0.485007
      4 C                    -0.087918
      5 C                     0.077321
      6 C                     0.029432
      7 C                     0.023514
      8 C                     0.065574
      9 C                     0.260428
     10 N                    -0.519103
     11 N                    -0.553151
     12 C                     0.165331
     13 C                     0.299699
     14 S                     0.613040
     15 N                    -0.552014
     16 C                    -0.214737
     17 S                     0.359030
     18 C                    -0.126675
     19 C                    -0.234224
     20 S                     0.258328
     21 C                     0.201407
     22 C                     0.061755
     23 C                    -0.303295
     24 C                    -0.087689
     25 N                    -0.427831
     26 S                     0.280684
     27 C                     0.117243
     28 C                    -0.323472
     29 C                    -0.228962
     30 H                     0.093759
     31 H                     0.100562
     32 H                     0.129928
     33 H                     0.107030
     34 H                     0.129981
     35 H                     0.112490
     36 H                     0.122427
     37 H                     0.138779
     38 H                     0.115837
     39 C                    -0.180031
     40 H                     0.091988
     41 H                     0.092710
     42 H                     0.115445
     43 C                    -0.178297
     44 H                     0.084226
     45 C                    -0.184285
     46 H                     0.109015
     47 H                     0.090190
     48 H                     0.100246
     49 C                    -0.184722
     50 H                     0.089233
     51 C                    -0.326698
     52 H                     0.090630
     53 H                     0.105498
     54 H                     0.105787
     55 H                     0.104816
     56 C                     0.267240
     57 C                    -0.120177
     58 N                    -0.476035
     59 C                    -0.057669
     60 C                     0.057856
     61 C                     0.032219
     62 C                     0.042901
     63 C                     0.052825
     64 C                     0.210197
     65 N                    -0.523689
     66 N                    -0.558009
     67 C                     0.228346
     68 C                     0.318213
     69 S                     0.610924
     70 N                    -0.573304
     71 C                    -0.236232
     72 S                     0.364099
     73 C                    -0.127671
     74 C                    -0.245731
     75 S                     0.284561
     76 C                     0.184425
     77 C                     0.063320
     78 C                    -0.293949
     79 C                    -0.092683
     80 N                    -0.443129
     81 S                     0.286389
     82 C                     0.147589
     83 C                    -0.319634
     84 C                    -0.229736
     85 H                     0.082290
     86 H                     0.117539
     87 H                     0.096046
     88 H                     0.115234
     89 H                     0.126972
     90 H                     0.110006
     91 H                     0.101086
     92 H                     0.137470
     93 H                     0.100031
     94 C                    -0.181811
     95 H                     0.108898
     96 H                     0.089725
     97 H                     0.104906
     98 C                    -0.176057
     99 H                     0.096000
    100 C                    -0.163561
    101 H                     0.095386
    102 H                     0.101335
    103 H                     0.088522
    104 C                    -0.182132
    105 H                     0.092539
    106 C                    -0.316509
    107 H                     0.091876
    108 H                     0.099013
    109 H                     0.102342
    110 H                     0.101512
  ----------------------------------------
  Sum of atomic charges =     0.000000

                    Cartesian Multipole Moments
 -----------------------------------------------------------------
    Charge (ESU x 10^10)
                 0.0000
    Dipole Moment (Debye)
         X      -1.8062      Y      -3.6181      Z       0.4716
       Tot       4.0713
    Quadrupole Moments (Debye-Ang)
        XX    -429.8486     XY     -15.3633     YY    -399.7584
        XZ      18.4339     YZ      -7.0978     ZZ    -425.0425

 Total job time:  82.01s(wall), 961.08s(cpu)
        *  Thank you very much for using Q-Chem.  Have a nice day.  *
