 Q-Chem 4.4, Q-Chem, Inc., Pleasanton, CA (2016)
 Q-Chem 4.4.2 for Intel X86 Linux

User input:
--------------------------------------------------------------
$comment
SP
$end

$rem
MEM_STATIC 5000
MEM_TOTAL 20000
JOBTYPE SP
EXCHANGE B3LYP
BASIS 6-31g(d,p)
$end

$molecule
0 1
C          15.532000    -24.923000    -11.151000
C          15.703000    -23.914000    -10.166000
N          14.803000    -26.001000    -10.848000
C          15.246000    -24.082000     -8.848000
C          14.333000    -26.134000     -9.572000
C          14.514000    -25.217000     -8.470000
C          13.851000    -25.355000     -7.166000
C          12.531000    -25.944000     -7.053000
C          14.396000    -24.897000     -5.929000
N          11.965000    -26.220000     -5.841000
N          15.605000    -24.206000     -5.859000
C          13.781000    -25.090000     -4.730000
C          12.546000    -25.770000     -4.696000
S          15.731000    -23.821000     -4.298000
N          14.368000    -24.515000     -3.623000
C          11.740000    -25.948000     -3.503000
S          12.289000    -26.030000     -1.750000
C          10.401000    -26.176000     -3.515000
C          10.708000    -26.256000     -1.136000
S           9.264000    -26.292000     -4.804000
C           9.942000    -26.503000     -2.232000
C          10.348000    -26.485000      0.280000
C           8.074000    -26.750000     -3.556000
C           8.546000    -26.821000     -2.282000
N           9.437000    -27.390000      0.516000
S          11.120000    -25.779000      1.662000
C           9.279000    -27.590000      1.860000
C           9.952000    -26.640000      2.625000
C          15.828000    -24.710000    -12.633000
H          16.229000    -22.991000    -10.393000
H          15.423000    -23.283000     -8.133000
H          13.723000    -27.035000     -9.530000
H          12.021000    -26.335000     -7.932000
H           7.020000    -26.851000     -3.779000
H           7.917000    -27.060000     -1.433000
H           8.540000    -28.276000      2.252000
H           9.946000    -26.355000      3.669000
H          16.887000    -24.480000    -12.805000
C          15.171000    -23.473000    -13.262000
H          15.600000    -25.612000    -13.214000
H          15.579000    -23.379000    -14.276000
H          15.590000    -22.608000    -12.735000
C          13.633000    -23.518000    -13.283000
H          13.240000    -23.587000    -12.262000
C          13.098000    -24.678000    -14.110000
H          13.249000    -22.546000    -13.616000
H          12.009000    -24.559000    -14.177000
H          13.257000    -25.652000    -13.631000
C          13.609000    -24.859000    -15.565000
H          13.294000    -23.967000    -16.121000
C          13.007000    -26.099000    -16.254000
H          14.701000    -24.882000    -15.665000
H          11.920000    -25.953000    -16.223000
H          13.188000    -26.980000    -15.625000
H          13.317000    -26.181000    -17.303000
C          14.042000    -19.902000     -6.413000
C          15.219000    -20.675000     -6.383000
N          13.892000    -18.982000     -7.373000
C          16.226000    -20.483000     -7.302000
C          14.880000    -18.796000     -8.244000
C          16.149000    -19.447000     -8.255000
C          17.344000    -19.007000     -8.994000
C          17.558000    -17.638000     -9.370000
C          18.364000    -19.940000     -9.475000
N          18.671000    -17.141000     -9.934000
N          18.354000    -21.265000     -9.300000
C          19.448000    -19.424000    -10.267000
C          19.617000    -18.001000    -10.379000
S          19.629000    -21.848000    -10.120000
N          20.296000    -20.411000    -10.610000
C          20.889000    -17.497000    -10.887000
S          22.365000    -18.510000    -11.259000
C          21.262000    -16.168000    -10.985000
C          23.282000    -17.032000    -11.754000
S          20.295000    -14.710000    -10.660000
C          22.529000    -15.931000    -11.479000
C          24.658000    -17.082000    -12.184000
C          21.652000    -13.783000    -11.362000
C          22.782000    -14.524000    -11.575000
N          25.106000    -18.343000    -12.349000
S          25.698000    -15.839000    -12.641000
C          26.430000    -18.324000    -12.720000
C          26.945000    -17.064000    -13.042000
C          12.849000    -20.186000     -5.427000
H          15.327000    -21.440000     -5.619000
H          17.011000    -21.216000     -7.142000
H          14.632000    -18.042000     -8.990000
H          16.804000    -16.880000     -9.165000
H          21.600000    -12.703000    -11.336000
H          23.649000    -14.113000    -12.081000
H          26.992000    -19.228000    -12.913000
H          27.941000    -16.778000    -13.353000
H          13.369000    -20.412000     -4.487000
C          12.004000    -21.475000     -5.606000
H          12.244000    -19.282000     -5.289000
H          12.723000    -22.303000     -5.648000
H          11.595000    -21.326000     -6.613000
C          10.919000    -21.814000     -4.529000
H          10.089000    -21.099000     -4.593000
C          11.419000    -21.877000     -3.138000
H          10.600000    -22.820000     -4.827000
H          11.687000    -20.823000     -2.992000
H          12.288000    -22.530000     -2.987000
C          10.309000    -22.172000     -2.061000
H           9.447000    -21.519000     -2.242000
C          10.827000    -22.026000     -0.623000
H           9.875000    -23.179000     -2.091000
H          10.078000    -22.274000      0.140000
H          11.136000    -20.982000     -0.493000
H          11.687000    -22.676000     -0.421000
$end

--------------------------------------------------------------

             Standard Nuclear Orientation (Angstroms)
    I     Atom           X                Y                Z
 ----------------------------------------------------------------
    1      C      -0.5900650621    -4.4572346156    -1.0144328001
    2      C      -0.6307219528    -3.0840339357    -0.6535811547
    3      N       0.5869895050    -5.0047924826    -1.3307505648
    4      C       0.5023157338    -2.2591566453    -0.7535814376
    5      C       1.6882120819    -4.1980828975    -1.3881394258
    6      C       1.7511368065    -2.7787711566    -1.1242290978
    7      C       3.0000965434    -2.0074708457    -1.0592336671
    8      C       4.2318899130    -2.6106328748    -0.5891585016
    9      C       3.1150906231    -0.6246280114    -1.3931199610
   10      N       5.4298112264    -1.9590009486    -0.6655545736
   11      N       2.0124774134     0.1470127955    -1.7576423541
   12      C       4.2987684168     0.0474370850    -1.3755021632
   13      C       5.4724157718    -0.6431913533    -1.0089435097
   14      S       2.6269442972     1.6282928166    -1.9281180053
   15      N       4.2559567732     1.4021169698    -1.6277967787
   16      C       6.7736649547    -0.0221654436    -0.8487986273
   17      S       7.4367064617     1.4803393841    -1.6758350248
   18      C       7.7745168119    -0.5355091440    -0.0873376597
   19      C       8.9532583258     1.3957224166    -0.8880892457
   20      S       7.8634577673    -1.9439324328     0.9006802279
   21      C       8.9652608633     0.1754288517    -0.2883221622
   22      C      10.1058997900     2.2930910663    -1.1188362101
   23      C       9.5876233870    -1.5393234841     1.1172731979
   24      C      10.0259678786    -0.4327348050     0.4583220599
   25      N      11.2842703382     1.7337432894    -1.1755364365
   26      S      10.0318388227     3.9890735239    -1.4688397481
   27      C      12.2467363398     2.6471054839    -1.5082956549
   28      C      11.7730138203     3.9569069779    -1.4825853296
   29      C      -1.7294527908    -5.4337805699    -0.7361117575
   30      H      -1.5543029622    -2.6174229473    -0.3228149162
   31      H       0.4054315632    -1.2114716388    -0.4816906789
   32      H       2.5529128971    -4.8234893578    -1.6045285651
   33      H       4.2639251567    -3.6634880682    -0.3133112885
   34      H      10.2169935676    -2.0705369528     1.8190932791
   35      H      11.0429932675    -0.0670287639     0.5323588727
   36      H      13.2930732186     2.3783554282    -1.5660325033
   37      H      12.2313574829     4.9367131729    -1.5157200128
   38      H      -2.6475294012    -5.1449871617    -1.2630830136
   39      C      -2.2372310286    -5.4536255041     0.7127589889
   40      H      -1.4731674919    -6.4451533426    -1.0746261003
   41      H      -3.1298907931    -6.0911692555     0.7266337835
   42      H      -2.6345052149    -4.4506486930     0.9069901329
   43      C      -1.1956224013    -5.9322093978     1.7393645237
   44      H      -0.3210422111    -5.2713840652     1.7309757996
   45      C      -0.7489757404    -7.3649827159     1.4875285069
   46      H      -1.5920960657    -5.7822672867     2.7510240498
   47      H      -0.1132297434    -7.6639700302     2.3307394017
   48      H      -0.1179490936    -7.4642323668     0.5957029198
   49      C      -1.8285838292    -8.4710655233     1.3394265220
   50      H      -2.3592350791    -8.5214361674     2.2985391583
   51      C      -1.2205555865    -9.8565236342     1.0469671591
   52      H      -2.6068478132    -8.2519941006     0.5982747946
   53      H      -0.5436231997   -10.0626742804     1.8854839775
   54      H      -0.5639511104    -9.7804643448     0.1708116099
   55      H      -1.9829526419   -10.6444804603     1.0138043772
   56      C       0.6857146026     1.5801630225     2.4208839257
   57      C       0.2832983791     1.5227179706     1.0723590839
   58      N      -0.1977036456     1.2713873321     3.3772989881
   59      C      -1.0044497661     1.1837593140     0.7226652982
   60      C      -1.4426634200     0.9618627951     3.0256589431
   61      C      -1.9884589602     0.9637679520     1.7079387154
   62      C      -3.4192864185     0.9546106660     1.3609589917
   63      C      -4.4315220300     1.4543854041     2.2480538447
   64      C      -3.9289117284     0.3610306089     0.1239485797
   65      N      -5.7355964317     1.5913856051     1.9573737804
   66      N      -3.1883874308    -0.2164231713    -0.8271144552
   67      C      -5.3516678005     0.3191664386    -0.0824213561
   68      C      -6.2101688867     1.0446047703     0.8135413172
   69      S      -4.2286410188    -0.8178671269    -1.9198411553
   70      N      -5.6419167345    -0.2429812718    -1.2701366031
   71      C      -7.5925860053     1.2750408103     0.4062500927
   72      S      -8.3081540201     0.8546144295    -1.2229623165
   73      C      -8.5350064856     2.0190278193     1.0942188193
   74      C      -9.9116413380     1.5187571735    -0.7148866955
   75      S      -8.4007444083     2.7866300647     2.6939808290
   76      C      -9.7782327133     2.1153860492     0.5021059600
   77      C     -11.0542869406     1.5423704873    -1.5949886432
   78      C     -10.1526360843     3.1151357011     2.5653666680
   79      C     -10.6763739563     2.8688057233     1.3258626609
   80      N     -10.8441464246     0.8600420699    -2.7388063272
   81      S     -12.6062136669     2.1451283464    -1.3425913382
   82      C     -11.9515670806     0.9528046421    -3.5487400257
   83      C     -13.0829809363     1.5223834147    -2.9554511340
   84      C       2.1802547659     1.8697950450     2.8190848697
   85      H       1.0097138267     1.7475365057     0.2962391037
   86      H      -1.0894391593     1.1394034848    -0.3589646586
   87      H      -2.0596876236     0.7055560398     3.8859635284
   88      H      -4.1727367026     1.8105288634     3.2436928308
   89      H     -10.6204313987     3.7024570229     3.3438274626
   90      H     -11.7413667994     2.9354959998     1.1309558856
   91      H     -12.0047920032     0.4729281215    -4.5168281583
   92      H     -14.0642826045     1.7131496683    -3.3692001793
   93      H       2.4716216834     2.6416716321     2.0949385767
   94      C       3.2634363051     0.7933124697     2.5443304007
   95      H       2.2312035691     2.2938102187     3.8289860292
   96      H       3.1539199267     0.5188044075     1.4874668869
   97      H       2.8965628220    -0.0415753059     3.1541641892
   98      C       4.7633635856     1.1562447306     2.8099868087
   99      H       4.9415008792     1.2542461309     3.8883577237
  100      C       5.2453050237     2.3679094590     2.1110940872
  101      H       5.2906943206     0.2874435925     2.3980306481
  102      H       4.6431729349     3.1274799954     2.6254340020
  103      H       5.0605355643     2.3833945639     1.0294326529
  104      C       6.7409270277     2.7474176342     2.4243709075
  105      H       6.9040212091     2.7101297424     3.5079870301
  106      C       7.1372644773     4.1140142416     1.8474702760
  107      H       7.4975723137     2.0579181826     2.0301838742
  108      H       8.1904447581     4.3725116676     2.0167758487
  109      H       6.5033585667     4.8671780825     2.3304035275
  110      H       6.9859599866     4.1690046649     0.7625799569
 ----------------------------------------------------------------

   10   -5663.5261457948      7.01E-06 Convergence criterion met
 Total energy in the final basis set = -5663.5261457948

                    Orbital Energies (a.u.)
 --------------------------------------------------------------

 Alpha MOs
 -- Occupied --
-88.995 -88.990 -88.936 -88.933 -88.922 -88.920 -88.914 -88.908
-14.397 -14.394 -14.389 -14.384 -14.355 -14.353 -14.348 -14.346
-14.328 -14.327 -10.275 -10.271 -10.268 -10.262 -10.262 -10.262
-10.260 -10.257 -10.247 -10.244 -10.243 -10.242 -10.239 -10.239
-10.239 -10.238 -10.237 -10.237 -10.232 -10.232 -10.232 -10.232
-10.230 -10.229 -10.228 -10.227 -10.224 -10.220 -10.218 -10.213
-10.209 -10.206 -10.206 -10.205 -10.202 -10.195 -10.193 -10.187
-10.186 -10.183 -10.182 -10.179 -10.176 -10.175 -10.173 -10.172
-10.172 -10.170 -10.169 -10.167  -8.050  -8.045  -7.998  -7.994
 -7.979  -7.978  -7.973  -7.968  -6.015  -6.010  -6.009  -6.008
 -6.005  -6.002  -5.961  -5.958  -5.958  -5.955  -5.955  -5.952
 -5.944  -5.943  -5.940  -5.939  -5.937  -5.936  -5.935  -5.934
 -5.933  -5.929  -5.929  -5.924  -1.038  -1.036  -0.982  -0.969
 -0.958  -0.954  -0.942  -0.933  -0.915  -0.912  -0.905  -0.904
 -0.843  -0.839  -0.835  -0.832  -0.815  -0.811  -0.809  -0.806
 -0.805  -0.804  -0.797  -0.796  -0.781  -0.775  -0.765  -0.765
 -0.751  -0.749  -0.741  -0.738  -0.722  -0.721  -0.714  -0.710
 -0.696  -0.693  -0.679  -0.673  -0.656  -0.653  -0.644  -0.643
 -0.637  -0.634  -0.624  -0.623  -0.611  -0.610  -0.604  -0.603
 -0.597  -0.596  -0.583  -0.583  -0.580  -0.575  -0.558  -0.556
 -0.551  -0.547  -0.543  -0.536  -0.526  -0.523  -0.517  -0.516
 -0.506  -0.502  -0.501  -0.497  -0.488  -0.485  -0.478  -0.475
 -0.474  -0.473  -0.470  -0.466  -0.462  -0.457  -0.451  -0.449
 -0.445  -0.444  -0.442  -0.438  -0.438  -0.433  -0.432  -0.430
 -0.428  -0.425  -0.421  -0.421  -0.420  -0.419  -0.416  -0.414
 -0.413  -0.409  -0.404  -0.404  -0.401  -0.398  -0.396  -0.396
 -0.395  -0.394  -0.393  -0.391  -0.389  -0.388  -0.385  -0.382
 -0.380  -0.376  -0.369  -0.367  -0.364  -0.363  -0.360  -0.359
 -0.356  -0.351  -0.348  -0.346  -0.345  -0.342  -0.341  -0.338
 -0.337  -0.335  -0.333  -0.332  -0.328  -0.326  -0.323  -0.320
 -0.314  -0.312  -0.309  -0.306  -0.304  -0.304  -0.302  -0.300
 -0.300  -0.297  -0.296  -0.296  -0.288  -0.288  -0.285  -0.282
 -0.279  -0.273  -0.267  -0.262  -0.259  -0.255  -0.250  -0.249
 -0.247  -0.242  -0.234  -0.231  -0.196  -0.195

          Ground-State Mulliken Net Atomic Charges

     Atom                 Charge (a.u.)
  ----------------------------------------
      1 C                     0.284065
      2 C                    -0.134354
      3 N                    -0.475809
      4 C                    -0.070982
      5 C                     0.045423
      6 C                     0.045156
      7 C                     0.023306
      8 C                     0.060938
      9 C                     0.213839
     10 N                    -0.523134
     11 N                    -0.541903
     12 C                     0.220599
     13 C                     0.271431
     14 S                     0.612583
     15 N                    -0.556879
     16 C                    -0.221085
     17 S                     0.294008
     18 C                    -0.064664
     19 C                    -0.194677
     20 S                     0.289127
     21 C                     0.095307
     22 C                     0.056308
     23 C                    -0.313823
     24 C                    -0.039173
     25 N                    -0.411998
     26 S                     0.280271
     27 C                     0.117969
     28 C                    -0.307914
     29 C                    -0.229013
     30 H                     0.098881
     31 H                     0.122494
     32 H                     0.100111
     33 H                     0.123814
     34 H                     0.116177
     35 H                     0.120514
     36 H                     0.120130
     37 H                     0.140784
     38 H                     0.097314
     39 C                    -0.181997
     40 H                     0.120341
     41 H                     0.098132
     42 H                     0.085694
     43 C                    -0.175371
     44 H                     0.101973
     45 C                    -0.178763
     46 H                     0.087692
     47 H                     0.086182
     48 H                     0.109052
     49 C                    -0.179388
     50 H                     0.088214
     51 C                    -0.317117
     52 H                     0.091239
     53 H                     0.100888
     54 H                     0.105929
     55 H                     0.101113
     56 C                     0.267310
     57 C                    -0.107027
     58 N                    -0.476419
     59 C                    -0.068204
     60 C                     0.059175
     61 C                     0.028392
     62 C                     0.044222
     63 C                     0.053851
     64 C                     0.213015
     65 N                    -0.523055
     66 N                    -0.560737
     67 C                     0.229713
     68 C                     0.318107
     69 S                     0.603647
     70 N                    -0.571640
     71 C                    -0.236791
     72 S                     0.364224
     73 C                    -0.128168
     74 C                    -0.243949
     75 S                     0.286900
     76 C                     0.183503
     77 C                     0.059906
     78 C                    -0.293653
     79 C                    -0.092883
     80 N                    -0.431554
     81 S                     0.284408
     82 C                     0.130017
     83 C                    -0.318771
     84 C                    -0.229163
     85 H                     0.068330
     86 H                     0.120459
     87 H                     0.097342
     88 H                     0.117011
     89 H                     0.128196
     90 H                     0.110549
     91 H                     0.120454
     92 H                     0.138594
     93 H                     0.100254
     94 C                    -0.183249
     95 H                     0.110309
     96 H                     0.082645
     97 H                     0.105197
     98 C                    -0.181876
     99 H                     0.094337
    100 C                    -0.174589
    101 H                     0.105946
    102 H                     0.094770
    103 H                     0.105394
    104 C                    -0.184841
    105 H                     0.088128
    106 C                    -0.322636
    107 H                     0.102345
    108 H                     0.097139
    109 H                     0.097955
    110 H                     0.108500
  ----------------------------------------
  Sum of atomic charges =     0.000000

                    Cartesian Multipole Moments
 -----------------------------------------------------------------
    Charge (ESU x 10^10)
                 0.0000
    Dipole Moment (Debye)
         X      -1.4536      Y       3.8832      Z      -1.0739
       Tot       4.2832
    Quadrupole Moments (Debye-Ang)
        XX    -334.9869     XY      12.8590     YY    -444.2259
        XZ      10.2477     YZ     -10.0381     ZZ    -446.3103

 Total job time:  99.06s(wall), 1201.49s(cpu)
        *  Thank you very much for using Q-Chem.  Have a nice day.  *
