 Q-Chem 4.4, Q-Chem, Inc., Pleasanton, CA (2016)
 Q-Chem 4.4.2 for Intel X86 Linux

User input:
--------------------------------------------------------------
$comment
SP
$end

$rem
MEM_STATIC 5000
MEM_TOTAL 20000
JOBTYPE SP
EXCHANGE B3LYP
BASIS 6-31g(d,p)
$end

$molecule
0 1
C           7.868000     20.591000     -3.209000
C           8.505000     21.313000     -2.172000
N           6.796000     19.814000     -3.171000
C           7.974000     20.987000     -0.907000
C           6.283000     19.643000     -1.939000
C           6.805000     20.185000     -0.741000
C           6.168000     19.899000      0.610000
C           4.785000     19.779000      0.633000
C           6.806000     19.528000      1.804000
N           4.009000     19.424000      1.756000
N           8.133000     19.544000      1.879000
C           6.067000     19.115000      2.950000
C           4.668000     19.121000      2.934000
S           8.376000     19.060000      3.393000
N           6.872000     18.667000      3.886000
C           3.873000     18.704000      4.114000
S           4.420000     17.917000      5.562000
C           2.538000     18.940000      4.247000
C           2.788000     17.584000      6.139000
S           1.467000     20.075000      3.444000
C           1.961000     18.357000      5.391000
C           2.369000     16.962000      7.378000
C           0.134000     19.647000      4.550000
C           0.559000     18.719000      5.516000
N           1.164000     17.194000      7.842000
S           3.507000     15.887000      8.154000
C           1.153000     16.607000      9.141000
C           2.317000     15.822000      9.417000
C           8.378000     20.865000     -4.615000
H           9.356000     21.961000     -2.359000
H           8.509000     21.359000     -0.039000
H           5.345000     19.099000     -1.847000
H           4.155000     19.983000     -0.231000
H          -0.880000     20.010000      4.443000
H          -0.137000     18.350000      6.262000
H           0.256000     16.639000      9.746000
H           2.503000     15.256000     10.321000
H           7.587000     20.824000     -5.374000
C           9.407000     19.785000     -4.998000
H           8.800000     21.873000     -4.715000
H           8.932000     18.797000     -4.943000
H          10.243000     19.863000     -4.293000
C          10.098000     19.989000     -6.344000
H           9.954000     21.015000     -6.705000
C           9.573000     19.033000     -7.411000
H          11.169000     19.766000     -6.267000
H           8.495000     19.174000     -7.561000
H           9.675000     18.014000     -7.017000
C          10.380000     19.109000     -8.762000
H          10.484000     20.088000     -9.246000
C           9.934000     18.170000     -9.906000
H          11.420000     18.833000     -8.547000
H          10.373000     18.346000    -10.895000
H           8.852000     18.342000     -9.961000
H          10.063000     17.132000     -9.574000
C           4.095000      8.897000      4.055000
C           3.223000      8.808000      2.980000
N           4.451000     10.070000      4.498000
C           2.626000      9.947000      2.440000
C           3.925000     11.206000      3.961000
C           2.943000     11.216000      2.977000
C           2.270000     12.467000      2.528000
C           3.015000     13.602000      2.096000
C           0.857000     12.718000      2.632000
N           2.494000     14.752000      1.619000
N          -0.055000     11.799000      3.098000
C           0.306000     13.983000      2.316000
C           1.183000     15.010000      1.841000
S          -1.534000     12.546000      2.864000
N          -1.019000     14.058000      2.518000
C           0.648000     16.311000      1.448000
S          -0.900000     16.935000      2.029000
C           1.227000     17.208000      0.627000
C          -0.660000     18.482000      1.189000
S           2.675000     16.988000     -0.341000
C           0.505000     18.361000      0.436000
C          -1.679000     19.562000      1.202000
C           2.159000     18.502000     -1.171000
C           1.068000     19.116000     -0.627000
N          -1.498000     20.549000      0.356000
S          -3.155000     19.459000      2.071000
C          -2.573000     21.397000      0.518000
C          -3.603000     20.891000      1.294000
C           4.763000      7.672000      4.739000
H           2.949000      7.805000      2.665000
H           1.989000      9.931000      1.561000
H           4.207000     12.117000      4.487000
H           4.059000     13.506000      1.800000
H           2.635000     18.818000     -2.090000
H           0.674000     20.063000     -0.977000
H          -2.591000     22.390000      0.089000
H          -4.462000     21.468000      1.612000
H           5.778000      7.879000      5.098000
C           4.644000      6.298000      4.097000
H           4.249000      7.589000      5.705000
H           5.071000      6.384000      3.090000
H           3.629000      5.883000      4.051000
C           5.591000      5.208000      4.687000
H           5.587000      4.368000      3.982000
C           5.106000      4.728000      6.088000
H           6.616000      5.584000      4.788000
H           4.057000      4.422000      5.985000
H           5.005000      5.521000      6.840000
C           5.938000      3.501000      6.724000
H           6.981000      3.788000      6.905000
C           5.977000      2.249000      5.905000
H           5.448000      3.305000      7.685000
H           6.380000      2.386000      4.895000
H           4.898000      2.095000      5.777000
H           6.518000      1.436000      6.405000
$end

--------------------------------------------------------------

             Standard Nuclear Orientation (Angstroms)
    I     Atom           X                Y                Z
 ----------------------------------------------------------------
    1      C      -7.5201243678    -3.0311155789    -0.6108605385
    2      C      -7.6249526211    -2.6819822730    -1.9781713927
    3      N      -6.6387147772    -2.6475798683     0.3003883255
    4      C      -6.5042394958    -1.9467543799    -2.4162399217
    5      C      -5.6616510788    -1.8555362066    -0.1773640867
    6      C      -5.5052148012    -1.4527441331    -1.5244862922
    7      C      -4.3396398884    -0.5826690053    -1.9685250231
    8      C      -3.9009271528     0.3775162443    -1.0667526450
    9      C      -3.5065780654    -0.7593023272    -3.0843788078
   10      N      -2.7820359731     1.2184754999    -1.2405342852
   11      N      -3.7939330633    -1.6941023858    -3.9845932020
   12      C      -2.3382069659     0.0326734570    -3.2785162104
   13      C      -2.0160348587     1.0565195215    -2.3810545848
   14      S      -2.5910900141    -1.5098248595    -5.0356457183
   15      N      -1.6367350410    -0.4144308810    -4.2948133370
   16      C      -0.8112011555     1.9014641252    -2.5620473043
   17      S       0.5145249919     1.6718552875    -3.6597776736
   18      C      -0.5952269771     3.0638092832    -1.8853502614
   19      C       1.5023733836     2.9282166023    -2.9161690387
   20      S      -1.6867737822     4.1316915881    -1.0203485533
   21      C       0.6646573933     3.6442913218    -2.1246951505
   22      C       2.8101107626     3.4107908507    -3.3092479651
   23      C      -0.3874708434     5.3352307963    -0.8044452245
   24      C       0.7944985760     4.9205169599    -1.4415682311
   25      N       3.1917597053     4.6119139533    -2.9448410813
   26      S       3.8232953675     2.3149619812    -4.2177968328
   27      C       4.4094889633     4.8385252295    -3.6504427989
   28      C       4.8991323482     3.6740513081    -4.3224151509
   29      C      -8.6780955535    -3.8370793417    -0.0438180833
   30      H      -8.4406304944    -3.0342472891    -2.6023932807
   31      H      -6.4125454764    -1.7812054844    -3.4849862760
   32      H      -4.9612107321    -1.4224239464     0.5340015652
   33      H      -4.4133882735     0.5941467457    -0.1310888028
   34      H      -0.4874900031     6.2315161958    -0.2060451490
   35      H       1.6842512254     5.5398419525    -1.3983273209
   36      H       4.9545265307     5.7636918070    -3.5138453829
   37      H       5.8219705688     3.6045895341    -4.8842983065
   38      H      -8.9007061277    -3.5911601122     1.0018449910
   39      C      -8.3135010195    -5.3331353949    -0.0724032464
   40      H      -9.6184511736    -3.6442709281    -0.5755174563
   41      H      -7.4022430433    -5.4947802605     0.5177440557
   42      H      -8.1619692750    -5.6143827165    -1.1211849560
   43      C      -9.4256403586    -6.2850420048     0.3609936808
   44      H     -10.3967481088    -5.7744860884     0.3649171516
   45      C      -9.1841303548    -6.8550252957     1.7555695899
   46      H      -9.4652728749    -7.1600040388    -0.2989833663
   47      H      -9.1220767066    -6.0492457209     2.4980880217
   48      H      -8.1890259985    -7.3173687919     1.7529596751
   49      C     -10.2279753967    -7.9632258306     2.1611618767
   50      H     -11.2943142058    -7.7108017376     2.1090406587
   51      C     -10.0636982978    -8.6137693492     3.5537060107
   52      H     -10.1383198429    -8.7871599798     1.4420684201
   53      H     -10.8845614180    -9.2486542965     3.9071502660
   54      H      -9.9690561812    -7.7491824996     4.2221859650
   55      H      -9.0966765940    -9.1317355598     3.5835226016
   56      C       6.6934668007    -3.5771743037     0.5835041309
   57      C       6.3424481244    -3.4278864629     1.9170816612
   58      N       5.9591830570    -3.0231398804    -0.3399606716
   59      C       5.2879002113    -2.5975074942     2.2961983549
   60      C       4.8916527677    -2.2452744389    -0.0070260888
   61      C       4.5437071530    -1.9243089658     1.3001062741
   62      C       3.4739973672    -0.9402024228     1.6268879842
   63      C       2.1632970558    -1.0528305018     1.0798472093
   64      C       3.6801213332     0.2755572895     2.3683913440
   65      N       1.1188595606    -0.2463598426     1.3630880864
   66      N       4.8836344231     0.6413549037     2.9262527497
   67      C       2.6481339686     1.2324423654     2.5202301758
   68      C       1.3641481546     0.9469056845     1.9551352869
   69      S       4.5236996868     2.0339175719     3.7814849993
   70      N       3.0267540917     2.3290094290     3.1956866713
   71      C       0.2553573059     1.8797390140     2.1386559482
   72      S       0.4844545071     3.5924177759     2.5094482498
   73      C      -1.0589727972     1.6002968391     2.0473353528
   74      C      -1.2627667403     3.9047588492     2.4315382584
   75      S      -1.8034241240     0.0195567004     1.8765113610
   76      C      -1.8899639172     2.6738135684     2.2575485544
   77      C      -1.8464183989     5.2410153939     2.7120720139
   78      C      -3.3375710399     0.8732985373     2.2825533739
   79      C      -3.2322164611     2.2297885248     2.3923182433
   80      N      -3.1494239146     5.2920586465     2.8611264087
   81      S      -0.9031420847     6.6272483502     3.0766731467
   82      C      -3.4527573183     6.6056528679     3.1499725059
   83      C      -2.3591112161     7.4086575669     3.4296753061
   84      C       7.8818535703    -4.4467505874     0.0872391083
   85      H       7.0003637742    -3.8976638336     2.6428682825
   86      H       4.9386615840    -2.5006181014     3.3195804081
   87      H       4.4265923085    -1.7440674505    -0.8547473426
   88      H       1.8134188407    -1.9931389822     0.6553790758
   89      H      -4.2347245880     0.3156263766     2.5173091453
   90      H      -4.0756453276     2.8858127841     2.5734395241
   91      H      -4.4684124081     6.9778704065     3.1322851519
   92      H      -2.4131966173     8.4817182641     3.5621498682
   93      H       7.6878983661    -4.9323934211    -0.8763414109
   94      C       8.5982742311    -5.3652457762     1.0656608093
   95      H       8.6352714033    -3.7160969492    -0.2333039152
   96      H       7.8394326884    -6.0472958072     1.4690728422
   97      H       9.1365403297    -4.8628580116     1.8795662959
   98      C       9.5600573970    -6.4055686268     0.4131958613
   99      H       9.7985313679    -7.1463428094     1.1858696447
  100      C      10.8685780682    -5.7311675427    -0.0980602692
  101      H       9.0817873238    -6.9136785357    -0.4325488151
  102      H      11.2972504646    -5.1684917585     0.7411548037
  103      H      10.7192443248    -4.9192906604    -0.8213232650
  104      C      11.9909968065    -6.7420164707    -0.6642842712
  105      H      11.6241490281    -7.2783985806    -1.5478542682
  106      C      12.4713545176    -7.7836291410     0.2970093959
  107      H      12.8232039838    -6.0920135043    -0.9591814696
  108      H      11.6770395151    -8.4217767148     0.7008773829
  109      H      12.7749191150    -7.1272163440     1.1224255183
  110      H      13.2635487664    -8.4134805714    -0.1265061856
 ----------------------------------------------------------------

   10   -5663.5037936453      4.78E-06 Convergence criterion met
 Total energy in the final basis set = -5663.5037936453

                    Orbital Energies (a.u.)
 --------------------------------------------------------------

 Alpha MOs
 -- Occupied --
-88.983 -88.981 -88.932 -88.929 -88.920 -88.915 -88.903 -88.900
-14.384 -14.384 -14.382 -14.380 -14.350 -14.349 -14.347 -14.346
-14.332 -14.319 -10.269 -10.268 -10.261 -10.260 -10.256 -10.254
-10.252 -10.251 -10.238 -10.238 -10.237 -10.235 -10.233 -10.233
-10.231 -10.231 -10.229 -10.227 -10.227 -10.226 -10.225 -10.225
-10.221 -10.221 -10.220 -10.219 -10.218 -10.217 -10.215 -10.212
-10.210 -10.208 -10.202 -10.200 -10.200 -10.193 -10.190 -10.188
-10.185 -10.184 -10.183 -10.181 -10.179 -10.177 -10.177 -10.176
-10.175 -10.173 -10.170 -10.168  -8.039  -8.038  -7.994  -7.990
 -7.980  -7.974  -7.962  -7.959  -6.004  -6.003  -5.998  -5.997
 -5.996  -5.995  -5.958  -5.954  -5.954  -5.951  -5.951  -5.947
 -5.944  -5.940  -5.938  -5.936  -5.934  -5.931  -5.926  -5.924
 -5.923  -5.920  -5.918  -5.915  -1.051  -1.025  -0.979  -0.965
 -0.951  -0.946  -0.941  -0.937  -0.920  -0.910  -0.908  -0.894
 -0.836  -0.834  -0.828  -0.827  -0.823  -0.812  -0.805  -0.804
 -0.801  -0.799  -0.794  -0.790  -0.781  -0.779  -0.764  -0.763
 -0.750  -0.744  -0.738  -0.729  -0.718  -0.717  -0.708  -0.706
 -0.692  -0.688  -0.670  -0.667  -0.654  -0.648  -0.647  -0.638
 -0.631  -0.631  -0.626  -0.625  -0.610  -0.602  -0.594  -0.592
 -0.592  -0.591  -0.581  -0.577  -0.574  -0.573  -0.566  -0.559
 -0.550  -0.545  -0.536  -0.535  -0.520  -0.518  -0.510  -0.508
 -0.507  -0.501  -0.496  -0.493  -0.489  -0.486  -0.475  -0.473
 -0.471  -0.468  -0.466  -0.462  -0.459  -0.458  -0.452  -0.446
 -0.442  -0.440  -0.438  -0.436  -0.434  -0.432  -0.431  -0.426
 -0.425  -0.422  -0.420  -0.417  -0.416  -0.414  -0.411  -0.410
 -0.409  -0.409  -0.406  -0.405  -0.399  -0.395  -0.393  -0.393
 -0.390  -0.388  -0.387  -0.384  -0.384  -0.382  -0.381  -0.379
 -0.378  -0.377  -0.376  -0.364  -0.359  -0.355  -0.354  -0.352
 -0.352  -0.351  -0.348  -0.347  -0.344  -0.342  -0.340  -0.335
 -0.334  -0.333  -0.332  -0.331  -0.323  -0.322  -0.320  -0.317
 -0.316  -0.312  -0.310  -0.307  -0.304  -0.303  -0.301  -0.298
 -0.296  -0.295  -0.291  -0.290  -0.288  -0.283  -0.281  -0.278
 -0.271  -0.270  -0.265  -0.261  -0.260  -0.251  -0.247  -0.244
 -0.239  -0.238  -0.230  -0.228  -0.193  -0.188

          Ground-State Mulliken Net Atomic Charges

     Atom                 Charge (a.u.)
  ----------------------------------------
      1 C                     0.270851
      2 C                    -0.099489
      3 N                    -0.473751
      4 C                    -0.089465
      5 C                     0.074655
      6 C                     0.047803
      7 C                     0.057612
      8 C                     0.033995
      9 C                     0.190111
     10 N                    -0.520078
     11 N                    -0.531514
     12 C                     0.250536
     13 C                     0.297881
     14 S                     0.583261
     15 N                    -0.559044
     16 C                    -0.219375
     17 S                     0.319593
     18 C                    -0.104016
     19 C                    -0.249190
     20 S                     0.281115
     21 C                     0.132906
     22 C                     0.099831
     23 C                    -0.319236
     24 C                    -0.042838
     25 N                    -0.445142
     26 S                     0.287534
     27 C                     0.102943
     28 C                    -0.305798
     29 C                    -0.232190
     30 H                     0.106375
     31 H                     0.106187
     32 H                     0.091678
     33 H                     0.118129
     34 H                     0.131358
     35 H                     0.127831
     36 H                     0.117403
     37 H                     0.129884
     38 H                     0.111159
     39 C                    -0.176733
     40 H                     0.090376
     41 H                     0.111810
     42 H                     0.088277
     43 C                    -0.174030
     44 H                     0.091680
     45 C                    -0.177534
     46 H                     0.090967
     47 H                     0.093095
     48 H                     0.094136
     49 C                    -0.183386
     50 H                     0.090638
     51 C                    -0.320504
     52 H                     0.089103
     53 H                     0.102089
     54 H                     0.101177
     55 H                     0.100662
     56 C                     0.290643
     57 C                    -0.124101
     58 N                    -0.492758
     59 C                    -0.055128
     60 C                     0.065900
     61 C                     0.042229
     62 C                    -0.009784
     63 C                     0.047855
     64 C                     0.231283
     65 N                    -0.512350
     66 N                    -0.557096
     67 C                     0.233253
     68 C                     0.309001
     69 S                     0.591745
     70 N                    -0.564295
     71 C                    -0.229895
     72 S                     0.314129
     73 C                    -0.089240
     74 C                    -0.248930
     75 S                     0.280294
     76 C                     0.191430
     77 C                     0.071927
     78 C                    -0.328548
     79 C                    -0.051423
     80 N                    -0.425569
     81 S                     0.286667
     82 C                     0.111883
     83 C                    -0.305961
     84 C                    -0.213552
     85 H                     0.085979
     86 H                     0.102187
     87 H                     0.103579
     88 H                     0.115155
     89 H                     0.125664
     90 H                     0.126266
     91 H                     0.113803
     92 H                     0.131618
     93 H                     0.120871
     94 C                    -0.194756
     95 H                     0.119612
     96 H                     0.097033
     97 H                     0.098098
     98 C                    -0.180593
     99 H                     0.095350
    100 C                    -0.186578
    101 H                     0.096503
    102 H                     0.084166
    103 H                     0.094953
    104 C                    -0.181058
    105 H                     0.089057
    106 C                    -0.305345
    107 H                     0.092275
    108 H                     0.103170
    109 H                     0.099253
    110 H                     0.102801
  ----------------------------------------
  Sum of atomic charges =     0.000000

                    Cartesian Multipole Moments
 -----------------------------------------------------------------
    Charge (ESU x 10^10)
                 0.0000
    Dipole Moment (Debye)
         X       0.9962      Y       2.0508      Z      -0.4317
       Tot       2.3204
    Quadrupole Moments (Debye-Ang)
        XX    -410.7143     XY      -0.4076     YY    -411.2293
        XZ      10.1634     YZ      10.9691     ZZ    -431.9491

 Total job time:  93.77s(wall), 1111.15s(cpu)
        *  Thank you very much for using Q-Chem.  Have a nice day.  *
