 Q-Chem 4.4, Q-Chem, Inc., Pleasanton, CA (2016)
 Q-Chem 4.4.2 for Intel X86 Linux

User input:
--------------------------------------------------------------
$comment
SP
$end

$rem
MEM_STATIC 5000
MEM_TOTAL 20000
JOBTYPE SP
EXCHANGE B3LYP
BASIS 6-31g(d,p)
$end

$molecule
0 1
C          -2.058000     19.214000     -3.061000
C          -2.587000     20.502000     -3.236000
N          -0.786000     18.908000     -3.394000
C          -1.683000     21.511000     -3.677000
C           0.038000     19.849000     -3.867000
C          -0.334000     21.181000     -4.028000
C           0.620000     22.280000     -4.398000
C           0.229000     23.453000     -5.145000
C           2.015000     22.260000     -4.180000
N           0.997000     24.547000     -5.273000
N           2.666000     21.267000     -3.555000
C           2.833000     23.344000     -4.452000
C           2.330000     24.532000     -5.051000
S           4.238000     21.628000     -3.613000
N           4.160000     23.131000     -4.186000
C           3.020000     25.840000     -5.145000
S           2.578000     27.171000     -6.245000
C           3.799000     26.321000     -4.124000
C           3.706000     28.301000     -5.430000
S           4.034000     25.611000     -2.573000
C           4.151000     27.600000     -4.278000
C           3.888000     29.712000     -5.726000
C           4.792000     27.169000     -2.096000
C           4.708000     28.120000     -3.057000
N           2.903000     30.234000     -6.401000
S           5.246000     30.625000     -5.387000
C           3.241000     31.564000     -6.697000
C           4.530000     31.863000     -6.400000
C          -2.937000     18.088000     -2.494000
H          -3.595000     20.770000     -2.932000
H          -1.964000     22.550000     -3.823000
H           1.003000     19.496000     -4.226000
H          -0.823000     23.590000     -5.393000
H           5.204000     27.239000     -1.098000
H           5.030000     29.141000     -2.883000
H           2.482000     32.156000     -7.191000
H           5.097000     32.753000     -6.639000
H          -3.460000     18.636000     -1.701000
C          -2.183000     16.865000     -1.850000
H          -3.774000     17.733000     -3.108000
H          -1.325000     17.176000     -1.241000
H          -1.771000     16.290000     -2.689000
C          -3.197000     15.944000     -1.161000
H          -3.811000     16.536000     -0.471000
C          -2.665000     14.630000     -0.485000
H          -3.899000     15.621000     -1.940000
H          -3.482000     14.400000      0.210000
H          -1.787000     14.843000      0.139000
C          -2.401000     13.526000     -1.505000
H          -3.409000     13.178000     -1.763000
C          -1.645000     12.381000     -0.791000
H          -1.947000     13.972000     -2.398000
H          -2.314000     11.909000     -0.061000
H          -0.711000     12.777000     -0.374000
H          -1.481000     11.634000     -1.578000
C           4.095000      8.897000      4.055000
C           3.223000      8.808000      2.980000
N           4.451000     10.070000      4.498000
C           2.626000      9.947000      2.440000
C           3.925000     11.206000      3.961000
C           2.943000     11.216000      2.977000
C           2.270000     12.467000      2.528000
C           3.015000     13.602000      2.096000
C           0.857000     12.718000      2.632000
N           2.494000     14.752000      1.619000
N          -0.055000     11.799000      3.098000
C           0.306000     13.983000      2.316000
C           1.183000     15.010000      1.841000
S          -1.534000     12.546000      2.864000
N          -1.019000     14.058000      2.518000
C           0.648000     16.311000      1.448000
S          -0.900000     16.935000      2.029000
C           1.227000     17.208000      0.627000
C          -0.660000     18.482000      1.189000
S           2.675000     16.988000     -0.341000
C           0.505000     18.361000      0.436000
C          -1.679000     19.562000      1.202000
C           2.159000     18.502000     -1.171000
C           1.068000     19.116000     -0.627000
N          -1.498000     20.549000      0.356000
S          -3.155000     19.459000      2.071000
C          -2.573000     21.397000      0.518000
C          -3.603000     20.891000      1.294000
C           4.763000      7.672000      4.739000
H           2.949000      7.805000      2.665000
H           1.989000      9.931000      1.561000
H           4.207000     12.117000      4.487000
H           4.059000     13.506000      1.800000
H           2.635000     18.818000     -2.090000
H           0.674000     20.063000     -0.977000
H          -2.591000     22.390000      0.089000
H          -4.462000     21.468000      1.612000
H           5.778000      7.879000      5.098000
C           4.644000      6.298000      4.097000
H           4.249000      7.589000      5.705000
H           5.071000      6.384000      3.090000
H           3.629000      5.883000      4.051000
C           5.591000      5.208000      4.687000
H           5.587000      4.368000      3.982000
C           5.106000      4.728000      6.088000
H           6.616000      5.584000      4.788000
H           4.057000      4.422000      5.985000
H           5.005000      5.521000      6.840000
C           5.938000      3.501000      6.724000
H           6.981000      3.788000      6.905000
C           5.977000      2.249000      5.905000
H           5.448000      3.305000      7.685000
H           6.380000      2.386000      4.895000
H           4.898000      2.095000      5.777000
H           6.518000      1.436000      6.405000
$end

--------------------------------------------------------------

             Standard Nuclear Orientation (Angstroms)
    I     Atom           X                Y                Z
 ----------------------------------------------------------------
    1      C      -1.6840859181    -3.6252128331    -1.7242949273
    2      C      -2.9187481690    -4.1584024567    -1.3233860203
    3      N      -1.5603996666    -2.3587637074    -2.1752021497
    4      C      -4.0267816571    -3.2630522713    -1.3036924996
    5      C      -2.6200083626    -1.5438789666    -2.2123272152
    6      C      -3.8897351369    -1.9198969436    -1.7822883803
    7      C      -5.0491466202    -0.9734347078    -1.6606691027
    8      C      -6.4257159307    -1.3782713063    -1.8279510857
    9      C      -4.9492291517     0.4250949975    -1.4930977358
   10      N      -7.4755510060    -0.6136555069    -1.4869921528
   11      N      -3.7896723548     1.0876362283    -1.3629357130
   12      C      -6.0520424624     1.2372610427    -1.2872990068
   13      C      -7.3779335693     0.7229463526    -1.3127385872
   14      S      -4.1536414668     2.6580591549    -1.2844034443
   15      N      -5.7565943975     2.5688108607    -1.1579176981
   16      C      -8.6060020481     1.4099388587    -0.8483151727
   17      S     -10.2759804912     0.9479399635    -1.2662314564
   18      C      -8.6103108565     2.2057338083     0.2685262809
   19      C     -10.9578615446     2.0885276487    -0.0630660640
   20      S      -7.3069621111     2.4678236818     1.3628374551
   21      C      -9.8350697764     2.5537826052     0.6713769023
   22      C     -12.3612842323     2.2640509713     0.2704865146
   23      C      -8.5172547354     3.2322813413     2.4492320659
   24      C      -9.7872442876     3.1309771178     1.9889691067
   25      N     -13.1137957978     1.2671771374    -0.1014044682
   26      S     -13.0525644760     3.6267151242     0.9471932688
   27      C     -14.4452863963     1.5987586423     0.1951532697
   28      C     -14.5990223423     2.8923306718     0.5722045440
   29      C      -0.4166036827    -4.4933039161    -1.6805610225
   30      H      -3.0226582446    -5.1613459563    -0.9188974139
   31      H      -5.0260159257    -3.5475354393    -0.9868357442
   32      H      -2.4624515226    -0.5847810332    -2.7022476131
   33      H      -6.6470247703    -2.4344786959    -1.9777020378
   34      H      -8.1569261685     3.6611484118     3.3749125506
   35      H     -10.6382439440     3.4548740843     2.5782834031
   36      H     -15.1854800461     0.8308646257     0.0134030563
   37      H     -15.5103198462     3.4542889966     0.7285685438
   38      H      -0.5683496202    -5.0032694506    -0.7216082999
   39      C       0.9581177374    -3.7272244102    -1.6331879514
   40      H      -0.3515764036    -5.3402846323    -2.3748125038
   41      H       0.9305475886    -2.8592879671    -0.9625970048
   42      H       1.1154960113    -3.3289991849    -2.6436030883
   43      C       2.0936165226    -4.7284227760    -1.3894619965
   44      H       1.8587815293    -5.3311731972    -0.5034007933
   45      C       3.5660945483    -4.1836750971    -1.3487873116
   46      H       2.0580244575    -5.4432652088    -2.2211515426
   47      H       4.0780045250    -4.9884899756    -0.8069061558
   48      H       3.6333527352    -3.2953882377    -0.7068747072
   49      C       4.1253712600    -3.9359826866    -2.7469182173
   50      H       4.3377783954    -4.9478824720    -3.1138978261
   51      C       5.4595258681    -3.1667891924    -2.6029395727
   52      H       3.3364987194    -3.4977028115    -3.3698723615
   53      H       6.2039230218    -3.8227878659    -2.1351964616
   54      H       5.2723656134    -2.2262186416    -2.0706247429
   55      H       5.7966399502    -3.0154705043    -3.6362501506
   56      C      10.6346832385     2.6583867291     0.1996741495
   57      C      10.2623521322     1.7682941921    -0.7968371765
   58      N       9.7611091314     3.0207082988     1.0966163770
   59      C       9.0067600074     1.1610469422    -0.7885189066
   60      C       8.5089304633     2.4845048047     1.1052994668
   61      C       8.0869538785     1.4858792365     0.2350335669
   62      C       6.7696881026     0.8040810255     0.3746511701
   63      C       5.5529254549     1.5404818074     0.4587733876
   64      C       6.5988947651    -0.6071927547     0.5971864550
   65      N       4.3137218734     1.0102854649     0.5275943295
   66      N       7.6363452760    -1.5102058744     0.6387164818
   67      C       5.3248771520    -1.1647575791     0.8611610527
   68      C       4.1862498742    -0.2970004928     0.8582350925
   69      S       6.8731905660    -2.9937218279     0.7690288153
   70      N       5.3543630663    -2.4861993767     1.0956310009
   71      C       2.8466209424    -0.8399149818     1.0677898176
   72      S       2.5438800357    -2.3784178053     1.8830186232
   73      C       1.6799035455    -0.2758774326     0.7010158289
   74      C       0.7843248229    -2.1543035938     1.7822849483
   75      S       1.4527498582     1.1556455177    -0.2895755324
   76      C       0.5619929839    -1.0021766534     1.0325869647
   77      C      -0.1778976043    -3.1740123700     2.2714188895
   78      C      -0.2665092254     0.6240730183    -0.3840788725
   79      C      -0.5797843152    -0.4581164763     0.3865946095
   80      N      -1.4333951685    -3.0084325456     1.9265200810
   81      S       0.2990657360    -4.6348947681     3.0347501352
   82      C      -2.1217257015    -4.0813638797     2.4518698974
   83      C      -1.3239619217    -5.0974926366     2.9520371704
   84      C      12.0290296984     3.3391619881     0.2836264944
   85      H      11.0363663423     1.4899708948    -1.5065893478
   86      H       8.6503790274     0.5091853818    -1.5801849368
   87      H       7.9082738600     2.7745123482     1.9662456146
   88      H       5.5045055848     2.5793845576     0.1345750043
   89      H      -0.9491883192     1.0840367029    -1.0864859225
   90      H      -1.5822178515    -0.8589656511     0.4814204725
   91      H      -3.2026128662    -4.1076591602     2.4893598342
   92      H      -1.7023843381    -5.9515279526     3.4991698359
   93      H      11.9872148505     4.3599216869     0.6814407172
   94      C      12.9971939581     3.2106174754    -0.8827076235
   95      H      12.5215368728     2.8417716184     1.1287776663
   96      H      12.4851469723     3.6203192403    -1.7623247836
   97      H      13.3609137793     2.1953961856    -1.0866674828
   98      C      14.2270235031     4.1686164062    -0.8301116270
   99      H      14.6846508857     4.1534489552    -1.8265995231
  100      C      15.2642156551     3.7080267403     0.2378376226
  101      H      13.9220013548     5.1948118906    -0.5932861283
  102      H      15.5053110381     2.6577307853     0.0295171409
  103      H      14.8700357829     3.6190568633     1.2582593929
  104      C      16.6384909373     4.5519626408     0.2751021434
  105      H      16.4479877921     5.5976068600     0.5458708983
  106      C      17.4193694149     4.5782588188    -1.0013473519
  107      H      17.2307945220     4.0785964643     1.0670225476
  108      H      16.8601404920     4.9638620553    -1.8614933604
  109      H      17.5126336093     3.4973896688    -1.1667700546
  110      H      18.3636605382     5.1285074375    -0.9054790463
 ----------------------------------------------------------------

   10   -5663.4960256070      5.47E-06 Convergence criterion met
 Total energy in the final basis set = -5663.4960256070

                    Orbital Energies (a.u.)
 --------------------------------------------------------------

 Alpha MOs
 -- Occupied --
-88.990 -88.985 -88.932 -88.931 -88.924 -88.918 -88.906 -88.903
-14.386 -14.383 -14.382 -14.377 -14.349 -14.346 -14.346 -14.339
-14.324 -14.320 -10.270 -10.265 -10.262 -10.261 -10.257 -10.255
-10.254 -10.253 -10.242 -10.240 -10.240 -10.238 -10.236 -10.232
-10.232 -10.231 -10.231 -10.230 -10.230 -10.227 -10.226 -10.226
-10.226 -10.222 -10.221 -10.219 -10.219 -10.216 -10.215 -10.211
-10.211 -10.209 -10.205 -10.203 -10.202 -10.201 -10.193 -10.185
-10.184 -10.184 -10.184 -10.183 -10.181 -10.178 -10.174 -10.173
-10.169 -10.168 -10.168 -10.164  -8.046  -8.040  -7.994  -7.994
 -7.982  -7.977  -7.968  -7.962  -6.011  -6.005  -6.005  -6.004
 -6.000  -5.998  -5.958  -5.957  -5.955  -5.954  -5.951  -5.951
 -5.946  -5.942  -5.941  -5.938  -5.937  -5.933  -5.932  -5.929
 -5.926  -5.923  -5.923  -5.918  -1.045  -1.027  -0.979  -0.978
 -0.954  -0.953  -0.941  -0.935  -0.918  -0.912  -0.903  -0.896
 -0.842  -0.836  -0.828  -0.828  -0.823  -0.815  -0.808  -0.804
 -0.802  -0.797  -0.794  -0.792  -0.782  -0.779  -0.766  -0.765
 -0.751  -0.750  -0.742  -0.738  -0.725  -0.718  -0.708  -0.706
 -0.692  -0.691  -0.672  -0.671  -0.654  -0.652  -0.643  -0.639
 -0.633  -0.632  -0.627  -0.626  -0.610  -0.606  -0.601  -0.594
 -0.593  -0.591  -0.583  -0.580  -0.576  -0.572  -0.559  -0.556
 -0.550  -0.545  -0.542  -0.536  -0.524  -0.521  -0.518  -0.511
 -0.508  -0.507  -0.501  -0.493  -0.486  -0.478  -0.476  -0.471
 -0.470  -0.468  -0.467  -0.465  -0.458  -0.458  -0.452  -0.452
 -0.447  -0.442  -0.441  -0.438  -0.437  -0.434  -0.431  -0.430
 -0.428  -0.425  -0.420  -0.418  -0.417  -0.416  -0.415  -0.414
 -0.411  -0.408  -0.407  -0.402  -0.398  -0.397  -0.394  -0.393
 -0.392  -0.391  -0.390  -0.388  -0.387  -0.386  -0.384  -0.382
 -0.380  -0.380  -0.378  -0.367  -0.365  -0.359  -0.355  -0.352
 -0.352  -0.350  -0.348  -0.346  -0.346  -0.341  -0.341  -0.341
 -0.335  -0.333  -0.332  -0.331  -0.328  -0.327  -0.321  -0.313
 -0.312  -0.311  -0.307  -0.303  -0.300  -0.298  -0.296  -0.295
 -0.295  -0.293  -0.292  -0.292  -0.289  -0.285  -0.283  -0.279
 -0.272  -0.268  -0.265  -0.262  -0.256  -0.251  -0.247  -0.246
 -0.244  -0.241  -0.231  -0.229  -0.194  -0.192

          Ground-State Mulliken Net Atomic Charges

     Atom                 Charge (a.u.)
  ----------------------------------------
      1 C                     0.284628
      2 C                    -0.109672
      3 N                    -0.483160
      4 C                    -0.091107
      5 C                     0.089045
      6 C                     0.058208
      7 C                     0.036674
      8 C                     0.036545
      9 C                     0.232640
     10 N                    -0.456210
     11 N                    -0.565898
     12 C                     0.153647
     13 C                     0.243341
     14 S                     0.616382
     15 N                    -0.523576
     16 C                    -0.208370
     17 S                     0.345908
     18 C                    -0.103129
     19 C                    -0.202857
     20 S                     0.261519
     21 C                     0.115797
     22 C                     0.066291
     23 C                    -0.299770
     24 C                    -0.070453
     25 N                    -0.424911
     26 S                     0.281327
     27 C                     0.119896
     28 C                    -0.308519
     29 C                    -0.246939
     30 H                     0.093844
     31 H                     0.095507
     32 H                     0.111094
     33 H                     0.105611
     34 H                     0.127224
     35 H                     0.107594
     36 H                     0.119008
     37 H                     0.132845
     38 H                     0.106769
     39 C                    -0.166933
     40 H                     0.112843
     41 H                     0.117471
     42 H                     0.105484
     43 C                    -0.194342
     44 H                     0.081531
     45 C                    -0.173859
     46 H                     0.078733
     47 H                     0.081230
     48 H                     0.110396
     49 C                    -0.181014
     50 H                     0.092343
     51 C                    -0.318042
     52 H                     0.102935
     53 H                     0.104844
     54 H                     0.107160
     55 H                     0.097715
     56 C                     0.290968
     57 C                    -0.124231
     58 N                    -0.492026
     59 C                    -0.055150
     60 C                     0.066874
     61 C                     0.040710
     62 C                    -0.008008
     63 C                     0.045400
     64 C                     0.231575
     65 N                    -0.510200
     66 N                    -0.556243
     67 C                     0.232967
     68 C                     0.306125
     69 S                     0.600711
     70 N                    -0.571630
     71 C                    -0.230698
     72 S                     0.306925
     73 C                    -0.096638
     74 C                    -0.253317
     75 S                     0.269265
     76 C                     0.160231
     77 C                     0.077207
     78 C                    -0.309880
     79 C                    -0.042240
     80 N                    -0.424738
     81 S                     0.293558
     82 C                     0.111180
     83 C                    -0.310328
     84 C                    -0.213955
     85 H                     0.086415
     86 H                     0.103631
     87 H                     0.102903
     88 H                     0.116042
     89 H                     0.130317
     90 H                     0.130716
     91 H                     0.112497
     92 H                     0.131333
     93 H                     0.121420
     94 C                    -0.195223
     95 H                     0.120397
     96 H                     0.096954
     97 H                     0.098195
     98 C                    -0.180113
     99 H                     0.095204
    100 C                    -0.186344
    101 H                     0.096493
    102 H                     0.084075
    103 H                     0.095309
    104 C                    -0.181769
    105 H                     0.089296
    106 C                    -0.305061
    107 H                     0.092585
    108 H                     0.103012
    109 H                     0.099163
    110 H                     0.102870
  ----------------------------------------
  Sum of atomic charges =     0.000000

                    Cartesian Multipole Moments
 -----------------------------------------------------------------
    Charge (ESU x 10^10)
                 0.0000
    Dipole Moment (Debye)
         X      -2.3350      Y      -1.8695      Z       1.1059
       Tot       3.1891
    Quadrupole Moments (Debye-Ang)
        XX    -387.8048     XY     -22.8302     YY    -415.1298
        XZ     -36.9438     YZ      -5.9024     ZZ    -442.5252

 Total job time:  99.39s(wall), 1205.79s(cpu)
        *  Thank you very much for using Q-Chem.  Have a nice day.  *
