 Q-Chem 4.4, Q-Chem, Inc., Pleasanton, CA (2016)
 Q-Chem 4.4.2 for Intel X86 Linux

User input:
--------------------------------------------------------------
$comment
SP
$end

$rem
MEM_STATIC 5000
MEM_TOTAL 20000
JOBTYPE SP
EXCHANGE B3LYP
BASIS 6-31g(d,p)
$end

$molecule
0 1
C           1.784000     11.407000     -1.870000
C           3.131000     11.231000     -1.282000
N           0.973000     10.369000     -1.892000
C           3.452000     10.037000     -0.710000
C           1.361000      9.110000     -1.453000
C           2.557000      8.913000     -0.763000
C           2.972000      7.539000     -0.292000
C           4.347000      7.221000     -0.242000
C           2.136000      6.572000      0.180000
N           4.810000      6.101000      0.278000
N           0.829000      6.752000      0.396000
C           2.626000      5.336000      0.702000
C           4.017000      5.124000      0.787000
S           0.269000      5.428000      1.168000
N           1.726000      4.629000      1.376000
C           4.571000      3.773000      1.075000
S           3.647000      2.376000      1.747000
C           5.913000      3.428000      1.029000
C           5.189000      1.581000      2.206000
S           7.224000      4.332000      0.317000
C           6.211000      2.233000      1.680000
C           5.224000      0.232000      2.738000
C           8.309000      3.070000      1.008000
C           7.659000      2.095000      1.753000
N           4.153000     -0.490000      2.511000
S           6.634000     -0.587000      3.242000
C           4.388000     -1.793000      2.955000
C           5.594000     -1.923000      3.519000
C           1.326000     12.641000     -2.624000
H           3.836000     12.049000     -1.173000
H           4.445000      9.847000     -0.313000
H           0.634000      8.303000     -1.526000
H           5.077000      7.979000     -0.521000
H           9.349000      3.037000      0.712000
H           8.202000      1.338000      2.306000
H           3.604000     -2.537000      2.893000
H           5.994000     -2.810000      3.994000
H           0.454000     12.417000     -3.250000
C           2.390000     13.336000     -3.574000
H           0.944000     13.406000     -1.937000
H           3.232000     13.765000     -3.016000
H           1.982000     14.237000     -4.047000
C           2.865000     12.216000     -4.542000
H           3.475000     11.394000     -4.147000
C           3.755000     12.823000     -5.653000
H           2.016000     11.720000     -5.030000
H           4.670000     13.219000     -5.196000
H           3.200000     13.712000     -5.978000
C           4.143000     11.790000     -6.739000
H           4.930000     11.130000     -6.355000
C           4.604000     12.682000     -7.858000
H           3.276000     11.221000     -7.096000
H           3.868000     13.452000     -8.120000
H           4.917000     12.110000     -8.741000
H           5.516000     13.214000     -7.561000
C           4.095000      8.897000      4.055000
C           3.223000      8.808000      2.980000
N           4.451000     10.070000      4.498000
C           2.626000      9.947000      2.440000
C           3.925000     11.206000      3.961000
C           2.943000     11.216000      2.977000
C           2.270000     12.467000      2.528000
C           3.015000     13.602000      2.096000
C           0.857000     12.718000      2.632000
N           2.494000     14.752000      1.619000
N          -0.055000     11.799000      3.098000
C           0.306000     13.983000      2.316000
C           1.183000     15.010000      1.841000
S          -1.534000     12.546000      2.864000
N          -1.019000     14.058000      2.518000
C           0.648000     16.311000      1.448000
S          -0.900000     16.935000      2.029000
C           1.227000     17.208000      0.627000
C          -0.660000     18.482000      1.189000
S           2.675000     16.988000     -0.341000
C           0.505000     18.361000      0.436000
C          -1.679000     19.562000      1.202000
C           2.159000     18.502000     -1.171000
C           1.068000     19.116000     -0.627000
N          -1.498000     20.549000      0.356000
S          -3.155000     19.459000      2.071000
C          -2.573000     21.397000      0.518000
C          -3.603000     20.891000      1.294000
C           4.763000      7.672000      4.739000
H           2.949000      7.805000      2.665000
H           1.989000      9.931000      1.561000
H           4.207000     12.117000      4.487000
H           4.059000     13.506000      1.800000
H           2.635000     18.818000     -2.090000
H           0.674000     20.063000     -0.977000
H          -2.591000     22.390000      0.089000
H          -4.462000     21.468000      1.612000
H           5.778000      7.879000      5.098000
C           4.644000      6.298000      4.097000
H           4.249000      7.589000      5.705000
H           5.071000      6.384000      3.090000
H           3.629000      5.883000      4.051000
C           5.591000      5.208000      4.687000
H           5.587000      4.368000      3.982000
C           5.106000      4.728000      6.088000
H           6.616000      5.584000      4.788000
H           4.057000      4.422000      5.985000
H           5.005000      5.521000      6.840000
C           5.938000      3.501000      6.724000
H           6.981000      3.788000      6.905000
C           5.977000      2.249000      5.905000
H           5.448000      3.305000      7.685000
H           6.380000      2.386000      4.895000
H           4.898000      2.095000      5.777000
H           6.518000      1.436000      6.405000
$end

--------------------------------------------------------------

             Standard Nuclear Orientation (Angstroms)
    I     Atom           X                Y                Z
 ----------------------------------------------------------------
    1      C      -2.2976713575     2.5383601360    -0.9683851745
    2      C      -1.5957464271     2.3828696170     0.3255441477
    3      N      -1.6088951669     2.3577163951    -2.0768093705
    4      C      -0.2954513763     1.9765588042     0.3278472162
    5      C      -0.2442596393     2.1006098658    -2.0733295245
    6      C       0.4405919763     1.8038141727    -0.8951039175
    7      C       1.9258808148     1.5284515712    -0.9009779155
    8      C       2.6934274997     1.8999961804     0.2246666509
    9      C       2.6099034507     0.8662983356    -1.8758805394
   10      N       3.9654974053     1.5826313354     0.3670980748
   11      N       2.0313100943     0.2661809302    -2.9210569971
   12      C       3.9993206816     0.5593456772    -1.7510613734
   13      C       4.6785789849     0.8982800742    -0.5632980839
   14      S       3.1831526414    -0.5872051113    -3.7005125832
   15      N       4.4483056865    -0.3242375138    -2.6352662195
   16      C       6.1635869793     0.8378962321    -0.4847738938
   17      S       7.2462513474    -0.0251887649    -1.6423105688
   18      C       6.9315514992     1.2922877210     0.5762934326
   19      C       8.5718469973     0.0232695714    -0.4336261755
   20      S       6.4327500579     2.3265801288     1.8894260752
   21      C       8.2361621926     0.8038041628     0.5784733569
   22      C       9.9140950442    -0.4238361992    -0.7538083277
   23      C       8.0712612555     2.0356088686     2.5807774916
   24      C       8.8641248693     1.1683239898     1.8409570884
   25      N      10.1920249722    -0.4976439896    -2.0333243945
   26      S      11.2237791788    -0.4565425936     0.3400539850
   27      C      11.5466157069    -0.8032180063    -2.1812380913
   28      C      12.1547066533    -0.9792959913    -1.0028264722
   29      C      -3.7071780319     3.0762821773    -1.1263940741
   30      H      -2.1033329984     2.4572696264     1.2820223289
   31      H       0.2729216144     1.8989821713     1.2501768804
   32      H       0.2507416499     1.9849242284    -3.0359808409
   33      H       2.1953276205     2.3543330557     1.0795230798
   34      H       8.4115562248     2.6274870388     3.4199345481
   35      H       9.8300997225     0.8296485328     2.1957788998
   36      H      11.9652877942    -0.9486376112    -3.1689641778
   37      H      13.1823206022    -1.2810601460    -0.8436348672
   38      H      -3.8817647734     3.4236821263    -2.1517080480
   39      C      -4.1285614791     4.2723115291    -0.1726798717
   40      H      -4.4510900644     2.2789494967    -1.0081845810
   41      H      -4.1644738519     3.9732836800     0.8826218136
   42      H      -5.1716234969     4.5692750515    -0.3333917050
   43      C      -3.0625686404     5.3786004935    -0.4110765897
   44      H      -2.0357837462     5.2129884961    -0.0616564309
   45      C      -3.4835906593     6.6800037880     0.3127741716
   46      H      -2.9567901566     5.6112441014    -1.4786199678
   47      H      -3.4783935551     6.5002263829     1.3946905615
   48      H      -4.5442533349     6.7926112417     0.0553149517
   49      C      -2.5446131475     7.8698890680    -0.0026988900
   50      H      -1.6103252227     7.7611868584     0.5609631571
   51      C      -3.3769154228     9.0411972693     0.4396313261
   52      H      -2.3584876649     7.9748961839    -1.0784450545
   53      H      -4.3791024174     9.0444809908    -0.0062951756
   54      H      -2.8635889231     9.9979521376     0.2785163773
   55      H      -3.5218797997     9.0081640213     1.5263102731
   56      C       1.6555143595    -2.3380144317     1.7408102342
   57      C       1.2918984543    -1.5671320903     0.6465278716
   58      N       0.7468360972    -2.6990060323     2.6027283742
   59      C      -0.0459509493    -1.2710923682     0.3860485897
   60      C      -0.5638090811    -2.3846800713     2.4053723337
   61      C      -1.0438633894    -1.7369260922     1.2728341914
   62      C      -2.4987605097    -1.5544246071     1.0092083629
   63      C      -3.3642111309    -0.9636673110     1.9745451121
   64      C      -3.1950528726    -2.0817057190    -0.1342677297
   65      N      -4.6777214221    -0.7056433163     1.8025441445
   66      N      -2.5822216565    -2.7624397499    -1.1611562728
   67      C      -4.6029751284    -1.9905074039    -0.2488093765
   68      C      -5.3294008748    -1.3155774440     0.7837884079
   69      S      -3.8100916139    -3.0051756277    -2.2718410441
   70      N      -5.0919208199    -2.5786861608    -1.3520010465
   71      C      -6.7762902529    -1.1474929089     0.6763932665
   72      S      -7.7979251298    -2.1839014755    -0.3262833820
   73      C      -7.5312934425    -0.2258084291     1.3043732848
   74      C      -9.2749995430    -1.3687420040     0.2306503790
   75      S      -6.9740340535     1.1352617822     2.2630587667
   76      C      -8.8751195709    -0.3004022934     1.0291622890
   77      C     -10.6224362807    -1.7233100238    -0.2827946105
   78      C      -8.6744203151     1.7181007815     2.1352414659
   79      C      -9.5375670444     0.8527872857     1.5274394606
   80      N     -11.5991915946    -0.8990477092     0.0158468022
   81      S     -10.9025730803    -2.9861634796    -1.4102122451
   82      C     -12.7286231501    -1.4037680378    -0.5929345636
   83      C     -12.4961954158    -2.4307029553    -1.4932089793
   84      C       3.1177142429    -2.7472421271     2.0712783786
   85      H       2.0881667661    -1.3103345989    -0.0465246690
   86      H      -0.3704173791    -0.6203535481    -0.4201316159
   87      H      -1.2419681008    -2.8370518070     3.1275780915
   88      H      -2.9639408205    -0.3682573328     2.7943247389
   89      H      -8.9374215241     2.7244346851     2.4337635564
   90      H     -10.6013338165     1.0347985365     1.4283578828
   91      H     -13.7193106840    -1.0366647987    -0.3601526440
   92      H     -13.2784409402    -3.0102087704    -1.9667054944
   93      H       3.3187308590    -2.7968213694     3.1478884374
   94      C       4.2654040627    -2.1186206485     1.2954922520
   95      H       3.1576983161    -3.8183695036     1.8360584448
   96      H       4.1874435387    -1.0342544304     1.4432963849
   97      H       4.3021402630    -2.3600108149     0.2254701779
   98      C       5.6829734514    -2.3604973822     1.8996459360
   99      H       6.3637150098    -1.6575659518     1.4045506576
  100      C       6.1636087271    -3.8233943514     1.6601711161
  101      H       5.6936738918    -2.1671817096     2.9788662802
  102      H       6.0793792956    -4.0245199141     0.5844853298
  103      H       5.4977630090    -4.6005423415     2.0567117588
  104      C       7.6763023695    -4.1381440465     2.1237868768
  105      H       7.7871997333    -4.0125292362     3.2077157002
  106      C       8.7388550373    -3.2983277316     1.4870166000
  107      H       7.8288400160    -5.1931793220     1.8675256161
  108      H       8.6049045137    -2.2201093344     1.6311704938
  109      H       8.4995173185    -3.4901448608     0.4333256371
  110      H       9.7487797104    -3.5849284849     1.8057047905
 ----------------------------------------------------------------

    9   -5663.5012750896      8.43E-06 Convergence criterion met
 Total energy in the final basis set = -5663.5012750896

                    Orbital Energies (a.u.)
 --------------------------------------------------------------

 Alpha MOs
 -- Occupied --
-88.987 -88.985 -88.931 -88.931 -88.921 -88.919 -88.916 -88.908
-14.386 -14.385 -14.382 -14.380 -14.350 -14.349 -14.346 -14.343
-14.326 -14.317 -10.270 -10.266 -10.266 -10.262 -10.257 -10.255
-10.253 -10.252 -10.242 -10.242 -10.241 -10.239 -10.238 -10.237
-10.234 -10.233 -10.232 -10.231 -10.229 -10.227 -10.226 -10.226
-10.225 -10.222 -10.222 -10.221 -10.220 -10.219 -10.216 -10.212
-10.210 -10.210 -10.209 -10.204 -10.204 -10.203 -10.191 -10.189
-10.188 -10.186 -10.180 -10.177 -10.176 -10.175 -10.175 -10.174
-10.173 -10.171 -10.166 -10.165  -8.042  -8.040  -7.994  -7.994
 -7.978  -7.978  -7.975  -7.968  -6.007  -6.005  -6.002  -6.000
 -5.999  -5.997  -5.958  -5.958  -5.954  -5.954  -5.951  -5.951
 -5.943  -5.943  -5.939  -5.939  -5.939  -5.936  -5.935  -5.935
 -5.932  -5.931  -5.929  -5.923  -1.036  -1.026  -0.979  -0.979
 -0.961  -0.954  -0.938  -0.932  -0.916  -0.914  -0.908  -0.895
 -0.840  -0.840  -0.835  -0.826  -0.823  -0.817  -0.810  -0.804
 -0.803  -0.799  -0.797  -0.791  -0.780  -0.775  -0.771  -0.763
 -0.753  -0.748  -0.744  -0.739  -0.723  -0.722  -0.711  -0.706
 -0.697  -0.691  -0.680  -0.671  -0.651  -0.650  -0.648  -0.637
 -0.632  -0.632  -0.625  -0.619  -0.609  -0.609  -0.602  -0.595
 -0.593  -0.592  -0.585  -0.578  -0.577  -0.575  -0.573  -0.553
 -0.552  -0.550  -0.543  -0.537  -0.530  -0.523  -0.519  -0.512
 -0.508  -0.506  -0.498  -0.495  -0.486  -0.484  -0.476  -0.473
 -0.471  -0.468  -0.466  -0.464  -0.463  -0.453  -0.452  -0.447
 -0.444  -0.441  -0.441  -0.439  -0.437  -0.436  -0.434  -0.433
 -0.431  -0.426  -0.424  -0.421  -0.420  -0.417  -0.416  -0.415
 -0.412  -0.410  -0.405  -0.403  -0.399  -0.396  -0.395  -0.395
 -0.395  -0.390  -0.390  -0.388  -0.387  -0.386  -0.384  -0.381
 -0.380  -0.377  -0.376  -0.370  -0.363  -0.362  -0.359  -0.356
 -0.353  -0.350  -0.349  -0.348  -0.347  -0.345  -0.343  -0.339
 -0.339  -0.335  -0.331  -0.330  -0.329  -0.327  -0.327  -0.319
 -0.315  -0.310  -0.308  -0.306  -0.304  -0.303  -0.300  -0.297
 -0.293  -0.293  -0.291  -0.289  -0.288  -0.286  -0.279  -0.276
 -0.271  -0.270  -0.265  -0.260  -0.258  -0.254  -0.247  -0.246
 -0.241  -0.239  -0.235  -0.231  -0.197  -0.194

          Ground-State Mulliken Net Atomic Charges

     Atom                 Charge (a.u.)
  ----------------------------------------
      1 C                     0.286990
      2 C                    -0.124933
      3 N                    -0.485171
      4 C                    -0.077720
      5 C                     0.064301
      6 C                     0.031794
      7 C                     0.053527
      8 C                     0.066316
      9 C                     0.210378
     10 N                    -0.514653
     11 N                    -0.555270
     12 C                     0.187704
     13 C                     0.316121
     14 S                     0.596099
     15 N                    -0.547040
     16 C                    -0.231427
     17 S                     0.344063
     18 C                    -0.116715
     19 C                    -0.245029
     20 S                     0.291550
     21 C                     0.167822
     22 C                     0.069351
     23 C                    -0.301793
     24 C                    -0.085375
     25 N                    -0.430882
     26 S                     0.286640
     27 C                     0.118668
     28 C                    -0.303446
     29 C                    -0.237910
     30 H                     0.097564
     31 H                     0.099359
     32 H                     0.124656
     33 H                     0.109844
     34 H                     0.128562
     35 H                     0.117330
     36 H                     0.120409
     37 H                     0.128006
     38 H                     0.126160
     39 C                    -0.194769
     40 H                     0.111531
     41 H                     0.098312
     42 H                     0.101412
     43 C                    -0.172771
     44 H                     0.098789
     45 C                    -0.178993
     46 H                     0.097482
     47 H                     0.088709
     48 H                     0.086490
     49 C                    -0.174244
     50 H                     0.098169
     51 C                    -0.309420
     52 H                     0.097611
     53 H                     0.105550
     54 H                     0.085984
     55 H                     0.098279
     56 C                     0.290831
     57 C                    -0.130820
     58 N                    -0.494109
     59 C                    -0.057280
     60 C                     0.064322
     61 C                     0.033851
     62 C                     0.000985
     63 C                     0.043688
     64 C                     0.232785
     65 N                    -0.514913
     66 N                    -0.551972
     67 C                     0.232837
     68 C                     0.306343
     69 S                     0.600854
     70 N                    -0.565844
     71 C                    -0.230791
     72 S                     0.314489
     73 C                    -0.102906
     74 C                    -0.253424
     75 S                     0.268302
     76 C                     0.172104
     77 C                     0.076520
     78 C                    -0.310729
     79 C                    -0.054367
     80 N                    -0.427941
     81 S                     0.296058
     82 C                     0.111844
     83 C                    -0.305164
     84 C                    -0.213411
     85 H                     0.082603
     86 H                     0.118241
     87 H                     0.100758
     88 H                     0.110891
     89 H                     0.120661
     90 H                     0.126991
     91 H                     0.113140
     92 H                     0.132310
     93 H                     0.119597
     94 C                    -0.211044
     95 H                     0.118534
     96 H                     0.112327
     97 H                     0.099998
     98 C                    -0.185334
     99 H                     0.106507
    100 C                    -0.186508
    101 H                     0.093505
    102 H                     0.086787
    103 H                     0.092142
    104 C                    -0.184347
    105 H                     0.086358
    106 C                    -0.308509
    107 H                     0.090587
    108 H                     0.103212
    109 H                     0.105570
    110 H                     0.098907
  ----------------------------------------
  Sum of atomic charges =     0.000000

                    Cartesian Multipole Moments
 -----------------------------------------------------------------
    Charge (ESU x 10^10)
                 0.0000
    Dipole Moment (Debye)
         X       1.4674      Y       0.7747      Z      -0.5111
       Tot       1.7363
    Quadrupole Moments (Debye-Ang)
        XX    -341.6137     XY       5.7007     YY    -444.9418
        XZ      19.5222     YZ      20.3323     ZZ    -445.6300

 Total job time:  91.58s(wall), 1111.58s(cpu)
        *  Thank you very much for using Q-Chem.  Have a nice day.  *
