 Q-Chem 4.4, Q-Chem, Inc., Pleasanton, CA (2016)
 Q-Chem 4.4.2 for Intel X86 Linux

User input:
--------------------------------------------------------------
$comment
SP
$end

$rem
MEM_STATIC 5000
MEM_TOTAL 20000
JOBTYPE SP
EXCHANGE B3LYP
BASIS 6-31g(d,p)
$end

$molecule
0 1
C         -28.930000      3.227000      1.408000
C         -28.689000      2.554000      0.223000
N         -28.738000      4.568000      1.497000
C         -28.274000      3.280000     -0.924000
C         -28.315000      5.306000      0.398000
C         -28.205000      4.671000     -0.871000
C         -27.870000      5.442000     -2.145000
C         -27.149000      4.740000     -3.143000
C         -28.234000      6.762000     -2.402000
N         -26.911000      5.313000     -4.303000
N         -28.871000      7.584000     -1.571000
C         -27.917000      7.298000     -3.663000
C         -27.341000      6.551000     -4.625000
S         -28.984000      9.050000     -2.289000
N         -28.346000      8.620000     -3.687000
C         -27.111000      7.071000     -6.009000
S         -27.484000      8.722000     -6.578000
C         -26.651000      6.294000     -7.057000
C         -27.310000      8.248000     -8.273000
S         -26.152000      4.659000     -7.098000
C         -26.799000      6.944000     -8.318000
C         -27.613000      9.070000     -9.481000
C         -26.016000      4.737000     -8.857000
C         -26.367000      5.970000     -9.333000
N         -27.098000      8.794000    -10.624000
S         -28.667000     10.363000     -9.462000
C         -27.734000      9.572000    -11.642000
C         -28.642000     10.463000    -11.132000
C         -29.586000      2.357000      2.560000
H         -28.879000      1.486000      0.166000
H         -28.145000      2.762000     -1.870000
H         -28.040000      6.344000      0.579000
H         -26.791000      3.714000     -3.066000
H         -25.709000      3.911000     -9.484000
H         -26.418000      6.289000    -10.368000
H         -27.295000      9.425000    -12.620000
H         -29.305000     11.155000    -11.635000
H         -29.830000      3.047000      3.377000
C         -28.740000      1.123000      3.003000
H         -30.562000      2.007000      2.203000
H         -27.798000      1.476000      3.440000
H         -28.417000      0.593000      2.098000
C         -29.456000      0.254000      4.059000
H         -29.934000      0.965000      4.744000
C         -28.470000     -0.639000      4.862000
H         -30.291000     -0.299000      3.613000
H         -29.084000     -1.176000      5.596000
H         -27.702000      0.029000      5.272000
C         -27.959000     -1.716000      3.870000
H         -28.784000     -2.341000      3.505000
C         -26.885000     -2.663000      4.410000
H         -27.578000     -1.254000      2.951000
H         -26.820000     -3.468000      3.667000
H         -27.216000     -3.183000      5.317000
H         -25.947000     -2.144000      4.645000
C         -14.388000     -3.633000    -10.427000
C         -14.822000     -2.951000     -9.238000
N         -15.320000     -3.662000    -11.421000
C         -16.111000     -2.391000     -9.155000
C         -16.508000     -3.089000    -11.401000
C         -17.003000     -2.467000    -10.195000
C         -18.456000     -2.227000     -9.892000
C         -18.835000     -1.136000     -9.103000
C         -19.489000     -3.113000    -10.251000
N         -20.090000     -0.817000     -8.747000
N         -19.403000     -4.157000    -11.069000
C         -20.808000     -2.850000     -9.838000
C         -21.069000     -1.623000     -9.134000
S         -20.851000     -4.937000    -10.977000
N         -21.676000     -3.728000    -10.313000
C         -22.488000     -1.216000     -8.838000
S         -23.954000     -2.146000     -8.946000
C         -22.827000      0.045000     -8.380000
C         -25.018000     -0.790000     -8.588000
S         -21.764000      1.432000     -7.988000
C         -24.184000      0.258000     -8.350000
C         -26.485000     -0.754000     -8.506000
C         -23.329000      2.189000     -7.567000
C         -24.519000      1.534000     -7.902000
N         -26.978000     -1.976000     -8.586000
S         -27.616000      0.575000     -8.715000
C         -28.321000     -1.910000     -8.795000
C         -28.874000     -0.596000     -8.816000
C         -13.046000     -4.318000    -10.526000
H         -14.245000     -2.901000     -8.319000
H         -16.265000     -1.877000     -8.211000
H         -17.148000     -3.183000    -12.277000
H         -18.084000     -0.382000     -8.869000
H         -23.308000      3.110000     -6.999000
H         -25.507000      1.932000     -7.698000
H         -28.832000     -2.851000     -8.952000
H         -29.899000     -0.389000     -9.096000
H         -12.273000     -3.599000    -10.227000
C         -12.750000     -4.957000    -11.927000
H         -13.071000     -5.193000     -9.865000
H         -12.854000     -4.181000    -12.695000
H         -13.424000     -5.749000    -12.277000
C         -11.384000     -5.651000    -11.863000
H         -10.625000     -4.875000    -12.020000
C         -11.298000     -6.818000    -12.861000
H         -11.282000     -5.976000    -10.820000
H         -12.081000     -7.535000    -12.586000
H         -10.376000     -7.399000    -12.737000
C         -11.484000     -6.450000    -14.353000
H         -11.449000     -7.269000    -15.082000
C         -10.312000     -5.496000    -14.829000
H         -12.482000     -6.002000    -14.430000
H         -10.454000     -4.622000    -14.182000
H         -10.481000     -5.325000    -15.900000
H          -9.343000     -5.996000    -14.706000
$end

--------------------------------------------------------------

             Standard Nuclear Orientation (Angstroms)
    I     Atom           X                Y                Z
 ----------------------------------------------------------------
    1      C      -8.2167384060    -5.1081141876     0.8041204326
    2      C      -7.1262116489    -4.6328035799     0.0969668295
    3      N      -8.8420361799    -4.3290382440     1.7234187347
    4      C      -6.6804071588    -3.3015679448     0.3066810174
    5      C      -8.4198217558    -3.0273978076     1.9659906918
    6      C      -7.4013831276    -2.4586248224     1.1505361855
    7      C      -6.9753571163    -0.9981367108     1.2738987139
    8      C      -5.6223746874    -0.7020479610     0.9732011921
    9      C      -7.8140973277     0.0533929678     1.6368659202
   10      N      -5.2123242614     0.5479043590     0.9660705746
   11      N      -9.0933335880    -0.0405867150     1.9928664953
   12      C      -7.2811145080     1.3547880228     1.6225053914
   13      C      -6.0225221745     1.5995491339     1.2086620194
   14      S      -9.6160302664     1.4501717388     2.4193362067
   15      N      -8.2768784375     2.2304467386     2.0396109061
   16      C      -5.4834788148     2.9884997440     1.0708053586
   17      S      -6.3576028199     4.4914583906     1.4778846266
   18      C      -4.2491624312     3.2844190484     0.5207800586
   19      C      -5.1784999111     5.4885925983     0.6156684690
   20      S      -3.0061922367     2.2569656877    -0.0477898025
   21      C      -4.1023035160     4.6746701489     0.2376558164
   22      C      -5.2571655822     6.9530186925     0.3399422880
   23      C      -2.1185880773     3.6563691318    -0.6581092737
   24      C      -2.7978352545     4.8206537091    -0.4276083078
   25      N      -4.2073359221     7.6393412022     0.0666858196
   26      S      -6.6948287429     7.7989065377     0.3130277979
   27      C      -4.5854187782     8.9410560868    -0.3901464396
   28      C      -5.9388172085     9.1476683355    -0.3263571977
   29      C      -8.7563988280    -6.5265259792     0.3445395167
   30      H      -6.6607276362    -5.2626701443    -0.6557387868
   31      H      -5.8644577186    -2.9076364358    -0.2924228777
   32      H      -8.8686322832    -2.5150921607     2.8156624135
   33      H      -4.8597312654    -1.4274670956     0.6922900138
   34      H      -1.1647082067     3.6022354050    -1.1648998933
   35      H      -2.5132734542     5.8226257320    -0.7287123545
   36      H      -3.7359903288     9.5851604017    -0.5756590834
   37      H      -6.5340221851     9.9989792337    -0.6304012578
   38      H      -9.6835872963    -6.7075356426     0.9019281118
   39      C      -7.7148470969    -7.6833144234     0.4528515056
   40      H      -9.0823091845    -6.4405380525    -0.6989706729
   41      H      -7.4522566051    -7.8278057370     1.5078920232
   42      H      -6.7762727755    -7.3353697351     0.0031107613
   43      C      -8.2514667417    -9.0250733403    -0.0899885867
   44      H      -9.2909054773    -9.0828949167     0.2556322754
   45      C      -7.4651693775   -10.2467138659     0.4611782494
   46      H      -8.3279853563    -9.0048002866    -1.1834619083
   47      H      -7.9553505569   -11.1325808945     0.0379962330
   48      H      -7.4799424864   -10.1636648934     1.5552681101
   49      C      -6.0612723308   -10.1868161398    -0.1950224399
   50      H      -6.1306992523   -10.2751323944    -1.2867436230
   51      C      -5.0598246599   -11.2434155581     0.2767669533
   52      H      -5.6061528866    -9.1981436348    -0.0587911313
   53      H      -4.2313771479   -11.1864022319    -0.4406751701
   54      H      -5.4432655114   -12.2615430273     0.1389280256
   55      H      -4.7930276923   -11.1264705469     1.3348658345
   56      C      11.2340145115    -0.8728292269     2.3296240365
   57      C      10.0018249348    -1.3387498653     2.9056690052
   58      N      11.0692651987    -0.0933775562     1.2238149405
   59      C       8.7615929465    -1.0009119479     2.3314737799
   60      C       9.9225800990     0.2977280152     0.7020652743
   61      C       8.6717707370    -0.2173778894     1.2085105793
   62      C       7.3837039715    -0.2470813251     0.4335139898
   63      C       6.1608922127    -0.1463540357     1.1051004812
   64      C       7.3056081795    -0.4990325960    -0.9490154328
   65      N       4.9438774871    -0.1734508668     0.5379471337
   66      N       8.3121575695    -0.5372603948    -1.8161099841
   67      C       6.0467656331    -0.6034623676    -1.5686192305
   68      C       4.8740252056    -0.3547609931    -0.7735761398
   69      S       7.6732849774    -1.0544747911    -3.2436600110
   70      N       6.1347781795    -0.7667542917    -2.8783988070
   71      C       3.5237189153    -0.2738705921    -1.4346023611
   72      S       3.0473527291    -0.7320137062    -3.0436083100
   73      C       2.3949203107     0.1886376597    -0.7813751209
   74      C       1.4082206450    -0.1066770947    -2.8980193909
   75      S       2.2103426192     0.7333026185     0.9147006906
   76      C       1.3178972560     0.3485971172    -1.6193204125
   77      C       0.3243029715    -0.0956802186    -3.8905467435
   78      C       0.5114402538     0.9460108944     0.3970126161
   79      C       0.1886142879     0.8282219471    -0.9591802756
   80      N       0.6712075249    -0.7953691327    -4.9548895710
   81      S      -1.0783257777     0.9513934404    -4.0497709398
   82      C      -0.2040421892    -0.5455134634    -5.9664211239
   83      C      -1.2836540023     0.3270667161    -5.6410165090
   84      C      12.5857601133    -1.2798303465     2.8654634869
   85      H       9.9426840039    -2.0346810384     3.7376378462
   86      H       7.9312510049    -1.3949791051     2.9096531080
   87      H       9.9408130063     0.9347163977    -0.1809553154
   88      H       6.1716990310     0.1275990974     2.1596647958
   89      H      -0.2359287866     1.0946486854     1.1655517007
   90      H      -0.8118770581     0.9591767439    -1.3567125483
   91      H       0.0164795293    -1.0062665783    -6.9205320917
   92      H      -1.9783007491     0.7103208380    -6.3775327513
   93      H      12.5998452494    -1.0789935664     3.9440538617
   94      C      13.7989983139    -0.6184555513     2.1242655046
   95      H      12.7228529356    -2.3453736338     2.6441174656
   96      H      13.6754092580     0.4709122939     2.1528914213
   97      H      13.9173743441    -0.8299829633     1.0540864217
   98      C      15.0950344911    -1.1575406649     2.7418134525
   99      H      15.2851045925    -0.5687748064     3.6474260189
  100      C      16.2527480201    -1.1355249273     1.7296357547
  101      H      14.8455488720    -2.1712753209     3.0794182111
  102      H      15.9583722126    -1.7767279976     0.8899902899
  103      H      17.1494231105    -1.6333250314     2.1184671306
  104      C      16.6334416551     0.2542729924     1.1642879868
  105      H      17.4417615581     0.2926342397     0.4236299354
  106      C      17.1683670821     1.1876570753     2.3274410039
  107      H      15.7324802024     0.6338048872     0.6674369008
  108      H      16.2946982397     1.2512106485     2.9872233143
  109      H      17.4666628534     2.1271821857     1.8445795332
  110      H      18.0550509696     0.7405890654     2.7943584251
 ----------------------------------------------------------------

   10   -5663.4838333623      3.59E-06 Convergence criterion met
 Total energy in the final basis set = -5663.4838333623

                    Orbital Energies (a.u.)
 --------------------------------------------------------------

 Alpha MOs
 -- Occupied --
-88.998 -88.986 -88.937 -88.927 -88.924 -88.917 -88.912 -88.910
-14.382 -14.381 -14.374 -14.372 -14.352 -14.347 -14.341 -14.341
-14.330 -14.323 -10.270 -10.266 -10.266 -10.260 -10.252 -10.251
-10.250 -10.250 -10.247 -10.242 -10.241 -10.237 -10.236 -10.235
-10.235 -10.234 -10.233 -10.232 -10.232 -10.231 -10.230 -10.227
-10.226 -10.225 -10.223 -10.222 -10.222 -10.220 -10.216 -10.213
-10.212 -10.210 -10.203 -10.198 -10.197 -10.196 -10.196 -10.195
-10.195 -10.190 -10.185 -10.182 -10.180 -10.178 -10.176 -10.175
-10.175 -10.175 -10.171 -10.170  -8.053  -8.042  -7.997  -7.989
 -7.985  -7.976  -7.971  -7.970  -6.018  -6.012  -6.011  -6.007
 -6.001  -5.999  -5.962  -5.958  -5.954  -5.953  -5.950  -5.949
 -5.946  -5.946  -5.942  -5.940  -5.936  -5.935  -5.935  -5.932
 -5.932  -5.931  -5.927  -5.926  -1.044  -1.039  -0.981  -0.972
 -0.967  -0.965  -0.932  -0.922  -0.915  -0.908  -0.904  -0.896
 -0.844  -0.839  -0.832  -0.829  -0.823  -0.816  -0.814  -0.808
 -0.806  -0.805  -0.794  -0.790  -0.780  -0.780  -0.765  -0.764
 -0.749  -0.744  -0.740  -0.739  -0.724  -0.714  -0.709  -0.707
 -0.695  -0.692  -0.681  -0.675  -0.654  -0.653  -0.646  -0.642
 -0.634  -0.633  -0.623  -0.620  -0.610  -0.607  -0.603  -0.603
 -0.596  -0.590  -0.584  -0.581  -0.575  -0.573  -0.566  -0.550
 -0.547  -0.545  -0.543  -0.542  -0.524  -0.523  -0.520  -0.519
 -0.506  -0.505  -0.499  -0.498  -0.483  -0.483  -0.481  -0.479
 -0.475  -0.473  -0.468  -0.465  -0.465  -0.464  -0.455  -0.450
 -0.448  -0.444  -0.441  -0.437  -0.436  -0.436  -0.433  -0.431
 -0.426  -0.424  -0.423  -0.419  -0.418  -0.417  -0.416  -0.415
 -0.412  -0.411  -0.406  -0.405  -0.402  -0.401  -0.398  -0.395
 -0.393  -0.393  -0.392  -0.391  -0.389  -0.387  -0.384  -0.383
 -0.378  -0.378  -0.373  -0.371  -0.369  -0.365  -0.363  -0.356
 -0.353  -0.350  -0.350  -0.348  -0.346  -0.345  -0.344  -0.338
 -0.337  -0.334  -0.333  -0.331  -0.326  -0.326  -0.321  -0.317
 -0.313  -0.308  -0.305  -0.304  -0.301  -0.300  -0.300  -0.298
 -0.295  -0.294  -0.293  -0.290  -0.288  -0.286  -0.282  -0.281
 -0.278  -0.271  -0.264  -0.259  -0.257  -0.251  -0.247  -0.243
 -0.239  -0.231  -0.231  -0.228  -0.196  -0.193

          Ground-State Mulliken Net Atomic Charges

     Atom                 Charge (a.u.)
  ----------------------------------------
      1 C                     0.278177
      2 C                    -0.113487
      3 N                    -0.504154
      4 C                    -0.086017
      5 C                     0.083038
      6 C                     0.041729
      7 C                     0.010451
      8 C                     0.069152
      9 C                     0.262814
     10 N                    -0.535919
     11 N                    -0.586013
     12 C                     0.197316
     13 C                     0.326104
     14 S                     0.627062
     15 N                    -0.567758
     16 C                    -0.217080
     17 S                     0.324329
     18 C                    -0.133343
     19 C                    -0.245576
     20 S                     0.290439
     21 C                     0.152899
     22 C                     0.086934
     23 C                    -0.321186
     24 C                    -0.061446
     25 N                    -0.432355
     26 S                     0.281941
     27 C                     0.093083
     28 C                    -0.306974
     29 C                    -0.237632
     30 H                     0.090032
     31 H                     0.098968
     32 H                     0.126784
     33 H                     0.121857
     34 H                     0.139461
     35 H                     0.118358
     36 H                     0.119426
     37 H                     0.143823
     38 H                     0.114229
     39 C                    -0.177697
     40 H                     0.111275
     41 H                     0.102487
     42 H                     0.096952
     43 C                    -0.182728
     44 H                     0.089997
     45 C                    -0.170864
     46 H                     0.091076
     47 H                     0.094430
     48 H                     0.097843
     49 C                    -0.175397
     50 H                     0.090942
     51 C                    -0.315969
     52 H                     0.096366
     53 H                     0.098329
     54 H                     0.098686
     55 H                     0.104078
     56 C                     0.285359
     57 C                    -0.136572
     58 N                    -0.494313
     59 C                    -0.056754
     60 C                     0.110486
     61 C                    -0.007713
     62 C                     0.036629
     63 C                     0.045746
     64 C                     0.247244
     65 N                    -0.529173
     66 N                    -0.566058
     67 C                     0.214772
     68 C                     0.324984
     69 S                     0.595868
     70 N                    -0.549504
     71 C                    -0.240165
     72 S                     0.342033
     73 C                    -0.105055
     74 C                    -0.215701
     75 S                     0.289269
     76 C                     0.144594
     77 C                     0.040209
     78 C                    -0.312757
     79 C                    -0.093968
     80 N                    -0.404782
     81 S                     0.303719
     82 C                     0.108784
     83 C                    -0.322619
     84 C                    -0.247037
     85 H                     0.079805
     86 H                     0.097900
     87 H                     0.116974
     88 H                     0.112914
     89 H                     0.129615
     90 H                     0.113334
     91 H                     0.114703
     92 H                     0.139503
     93 H                     0.120217
     94 C                    -0.169698
     95 H                     0.125289
     96 H                     0.108128
     97 H                     0.110834
     98 C                    -0.179000
     99 H                     0.093949
    100 C                    -0.185751
    101 H                     0.087280
    102 H                     0.088523
    103 H                     0.084349
    104 C                    -0.186618
    105 H                     0.090334
    106 C                    -0.313961
    107 H                     0.101122
    108 H                     0.109830
    109 H                     0.099363
    110 H                     0.104267
  ----------------------------------------
  Sum of atomic charges =     0.000000

                    Cartesian Multipole Moments
 -----------------------------------------------------------------
    Charge (ESU x 10^10)
                 0.0000
    Dipole Moment (Debye)
         X      -2.0632      Y       1.1756      Z      -1.4457
       Tot       2.7801
    Quadrupole Moments (Debye-Ang)
        XX    -443.2989     XY     -35.9395     YY    -408.8116
        XZ      22.6708     YZ      -3.9419     ZZ    -426.3854

 Total job time:  86.57s(wall), 1015.49s(cpu)
        *  Thank you very much for using Q-Chem.  Have a nice day.  *
