 Q-Chem 4.4, Q-Chem, Inc., Pleasanton, CA (2016)
 Q-Chem 4.4.2 for Intel X86 Linux

User input:
--------------------------------------------------------------
$comment
SP
$end

$rem
MEM_STATIC 5000
MEM_TOTAL 20000
JOBTYPE SP
EXCHANGE B3LYP
BASIS 6-31g(d,p)
$end

$molecule
0 1
C          -0.150000    -18.811000     -5.419000
C           0.476000    -18.218000     -4.354000
N          -0.912000    -19.817000     -5.246000
C           0.245000    -18.793000     -3.085000
C          -1.186000    -20.357000     -4.038000
C          -0.557000    -19.884000     -2.891000
C          -0.871000    -20.347000     -1.494000
C          -2.292000    -20.438000     -1.249000
C          -0.092000    -20.448000     -0.359000
N          -2.847000    -20.593000     -0.060000
N           1.280000    -20.326000     -0.411000
C          -0.599000    -20.795000      0.879000
C          -2.075000    -20.866000      0.971000
S           1.767000    -20.791000      1.083000
N           0.308000    -20.983000      1.832000
C          -2.857000    -21.000000      2.210000
S          -4.434000    -20.221000      2.399000
C          -2.541000    -21.775000      3.347000
C          -4.580000    -20.923000      4.061000
S          -1.322000    -22.984000      3.590000
C          -3.493000    -21.779000      4.328000
C          -5.665000    -20.672000      5.009000
C          -1.896000    -23.285000      5.204000
C          -3.035000    -22.521000      5.479000
N          -6.809000    -20.556000      4.371000
S          -5.667000    -20.746000      6.715000
C          -7.853000    -20.480000      5.358000
C          -7.410000    -20.551000      6.624000
C          -0.095000    -18.141000     -6.740000
H           1.189000    -17.415000     -4.517000
H           0.640000    -18.169000     -2.289000
H          -1.964000    -21.116000     -4.111000
H          -2.921000    -20.484000     -2.137000
H          -1.388000    -23.957000      5.883000
H          -3.650000    -22.604000      6.368000
H          -8.875000    -20.438000      5.004000
H          -7.980000    -20.450000      7.539000
H           0.895000    -17.727000     -6.967000
C          -1.123000    -17.121000     -7.086000
H          -0.202000    -18.941000     -7.483000
H          -1.263000    -16.402000     -6.270000
H          -2.035000    -17.696000     -7.286000
C          -0.764000    -16.320000     -8.337000
H          -1.176000    -15.336000     -8.082000
C          -1.388000    -16.730000     -9.776000
H           0.325000    -16.189000     -8.360000
H          -2.471000    -16.616000     -9.640000
H          -1.326000    -17.797000    -10.024000
C          -0.841000    -15.818000    -10.932000
H          -1.105000    -14.756000    -10.858000
C          -1.179000    -16.412000    -12.297000
H           0.253000    -15.746000    -10.933000
H          -1.097000    -17.506000    -12.308000
H          -0.717000    -15.999000    -13.203000
H          -2.251000    -16.181000    -12.329000
C          -4.983000    -17.731000     -2.608000
C          -6.404000    -17.661000     -2.645000
N          -4.271000    -17.883000     -1.490000
C          -7.081000    -17.690000     -1.409000
C          -4.888000    -17.865000     -0.303000
C          -6.296000    -17.764000     -0.239000
C          -7.038000    -17.773000      1.107000
C          -6.549000    -17.180000      2.259000
C          -8.250000    -18.493000      1.260000
N          -7.241000    -17.080000      3.454000
N          -8.940000    -19.212000      0.297000
C          -8.903000    -18.491000      2.484000
C          -8.378000    -17.796000      3.549000
S         -10.260000    -19.842000      1.056000
N         -10.077000    -19.263000      2.627000
C          -9.111000    -17.653000      4.871000
S         -10.887000    -17.867000      5.093000
C          -8.501000    -17.345000      6.059000
C         -10.661000    -17.705000      6.901000
S          -6.787000    -17.259000      6.362000
C          -9.366000    -17.414000      7.177000
C         -11.712000    -18.012000      7.874000
C          -7.275000    -17.503000      8.062000
C          -8.598000    -17.482000      8.374000
N         -12.698000    -18.870000      7.529000
S         -11.641000    -17.618000      9.643000
C         -13.426000    -19.289000      8.585000
C         -13.005000    -18.740000      9.737000
C          -4.168000    -17.617000     -3.820000
H          -6.941000    -17.650000     -3.588000
H          -8.159000    -17.568000     -1.376000
H          -4.391000    -18.106000      0.635000
H          -5.565000    -16.716000      2.212000
H          -6.547000    -17.456000      8.861000
H          -9.014000    -17.513000      9.375000
H         -14.306000    -19.884000      8.380000
H         -13.475000    -18.868000     10.703000
H          -4.022000    -16.591000     -4.178000
C          -4.600000    -18.522000     -4.995000
H          -3.108000    -17.771000     -3.586000
H          -3.858000    -18.433000     -5.798000
H          -5.458000    -17.992000     -5.427000
C          -5.083000    -20.005000     -4.688000
H          -4.633000    -20.557000     -3.853000
C          -4.945000    -20.926000     -5.935000
H          -6.123000    -19.952000     -4.345000
H          -4.026000    -20.611000     -6.445000
H          -5.816000    -20.641000     -6.539000
C          -4.747000    -22.429000     -5.717000
H          -4.405000    -23.034000     -6.566000
C          -6.096000    -23.036000     -5.265000
H          -4.035000    -22.587000     -4.898000
H          -6.182000    -23.989000     -4.728000
H          -6.766000    -23.090000     -6.131000
H          -6.583000    -22.295000     -4.620000
$end

--------------------------------------------------------------

             Standard Nuclear Orientation (Angstroms)
    I     Atom           X                Y                Z
 ----------------------------------------------------------------
    1      C      -8.1207374870    -0.5262187496    -0.7060166861
    2      C      -7.5564253429    -1.2777879045    -1.7032356237
    3      N      -7.5645093458    -0.4416540266     0.4368166624
    4      C      -6.3584549865    -1.9540225798    -1.3839854251
    5      C      -6.3952528524    -1.0406822223     0.7529566210
    6      C      -5.7628551314    -1.8841735073    -0.1545534751
    7      C      -4.4126779891    -2.5120229614     0.0631636516
    8      C      -3.4463927414    -1.5749031539     0.5881839239
    9      C      -3.8688069767    -3.7036845038    -0.3720536394
   10      N      -2.1442907361    -1.7884531702     0.6567241183
   11      N      -4.6458451143    -4.6837536553    -0.9514051657
   12      C      -2.5503348521    -4.0577176204    -0.1566614183
   13      C      -1.6840913982    -2.9957974165     0.4037212715
   14      S      -3.6414221705    -5.9759464626    -1.0338812156
   15      N      -2.2284321172    -5.2958364773    -0.5167201987
   16      C      -0.2185520147    -3.0501423057     0.5213730828
   17      S       0.7810838160    -1.6042663456     0.3222200913
   18      C       0.5762979708    -4.1665156367     0.8607461611
   19      C       2.2663046304    -2.5891830983     0.6391145886
   20      S       0.1343772931    -5.7249354509     1.4793937162
   21      C       1.9141075503    -3.9109439615     0.9774922435
   22      C       3.6464756716    -2.1092813675     0.5778591747
   23      C       1.8063818589    -6.1905289206     1.5920722543
   24      C       2.6448604633    -5.1296807662     1.2340264147
   25      N       3.7176749359    -0.8713519702     1.0156918733
   26      S       5.0901064870    -2.9653770178     0.2633018563
   27      C       5.1094487904    -0.5146341108     1.0905177165
   28      C       5.9434224674    -1.4987174781     0.7161998937
   29      C      -9.2689651711     0.3501591366    -1.0384335720
   30      H      -8.0774206724    -1.4138470969    -2.6465270753
   31      H      -5.8982983838    -2.3845358545    -2.2682541746
   32      H      -6.0392034930    -0.7219229930     1.7318924756
   33      H      -3.8611019458    -0.6794980908     1.0492338657
   34      H       2.1111690671    -7.1898846204     1.8732873729
   35      H       3.7251532229    -5.1217228409     1.3253457717
   36      H       5.3558253776     0.4609923744     1.4892852411
   37      H       7.0211119532    -1.4615311644     0.6185856003
   38      H      -9.9908302918    -0.1297325332    -1.7104750385
   39      C      -9.0155602734     1.7329542883    -1.5289063298
   40      H      -9.8375884288     0.4601814206    -0.1067358270
   41      H      -8.2530667981     1.7439942073    -2.3168776620
   42      H      -8.6958744483     2.2928686539    -0.6419644622
   43      C     -10.2673493823     2.3958671214    -2.1025382698
   44      H      -9.8346908340     2.9982922748    -2.9105701474
   45      C     -11.1494785265     3.4032208216    -1.1885997075
   46      H     -10.8687621081     1.6232956843    -2.5975606006
   47      H     -10.4564704341     4.2182190715    -0.9438577282
   48      H     -11.3890541449     3.0322912508    -0.1841835703
   49      C     -12.4216835883     3.9215204043    -1.9502747189
   50      H     -12.2213246788     4.5301795451    -2.8404468134
   51      C     -13.3934327724     4.5964193567    -0.9856401107
   52      H     -13.0069892634     3.1099187928    -2.3983161132
   53      H     -13.4432360992     4.0840044352    -0.0168101066
   54      H     -14.4073813984     4.8515974299    -1.3197678328
   55      H     -12.8486866831     5.5330012127    -0.8134915552
   56      C      -3.1663861567     2.2798954499    -0.6276840939
   57      C      -2.4390021559     3.4206049984    -0.1858648533
   58      N      -2.6009536019     1.1268467237    -0.9892593432
   59      C      -1.0323893135     3.3305348769    -0.1997819234
   60      C      -1.2679517741     1.0338787204    -1.0559307573
   61      C      -0.4622129135     2.1285116069    -0.6695051730
   62      C       1.0720523241     2.0434647608    -0.7035377276
   63      C       1.7830827388     1.3551708346    -1.6723314210
   64      C       1.8508314752     2.6029232864     0.3410972287
   65      N       3.1626549902     1.3501265651    -1.7891387771
   66      N       1.4073129009     3.3019502486     1.4524399213
   67      C       3.2343886739     2.5130803248     0.2932775673
   68      C       3.8523326520     1.8816349919    -0.7613773674
   69      S       2.7558418862     3.6882106577     2.3171094953
   70      N       3.9845759447     3.0265290207     1.3741561430
   71      C       5.3610437948     1.8644605542    -0.9314294956
   72      S       6.4978388726     3.0348421377    -0.1651658985
   73      C       6.0387477976     0.9471512887    -1.6914090980
   74      C       7.9052344363     2.0519003734    -0.7970260216
   75      S       5.3793102100    -0.4831672122    -2.4372857996
   76      C       7.4461178039     1.0423478354    -1.5767038980
   77      C       9.2900614543     2.2616279072    -0.3682516148
   78      C       7.0779245242    -1.0329472765    -2.4258275094
   79      C       8.0481821040    -0.1571844549    -2.0519910353
   80      N       9.5275266520     2.8311707196     0.8345020028
   81      S      10.7465638629     1.5132987230    -1.1481504325
   82      C      10.8103666671     2.7055249860     1.2335203550
   83      C      11.5578443041     2.0512827850     0.3285395129
   84      C      -4.6266616774     2.2874435074    -0.7447457469
   85      H      -2.9495145396     4.2955469318     0.2034842435
   86      H      -0.4291569925     4.1949325622     0.0590315396
   87      H      -0.7396135914     0.0965653353    -1.2209652471
   88      H       1.2164528710     0.8134312932    -2.4281156906
   89      H       7.3645152101    -1.9609955578    -2.9024680094
   90      H       9.1167344415    -0.3350644562    -2.1027119104
   91      H      11.1087959497     3.2349222891     2.1285781514
   92      H      12.6259357501     1.8916182077     0.3927881378
   93      H      -5.0103875424     2.7749682222    -1.6487535527
   94      C      -5.3866401935     2.8133566503     0.4930434197
   95      H      -4.9944494716     1.2941889472    -1.0280292043
   96      H      -6.4620657064     2.6684619839     0.3325457506
   97      H      -5.2952587695     3.9033634322     0.4080572393
   98      C      -4.8646860277     2.4200105425     1.9420671215
   99      H      -4.3973945288     1.4395517987     2.0994466209
  100      C      -5.9898938749     2.5354664335     3.0111186814
  101      H      -4.0194500012     3.0762325962     2.1808278299
  102      H      -6.9128071117     2.2062466072     2.5174270131
  103      H      -6.0362511517     3.6170307833     3.1920926025
  104      C      -5.9068085448     1.6528083413     4.2600176045
  105      H      -6.8054213976     1.5496670919     4.8810222933
  106      C      -4.8024150420     2.2197471179     5.1827577709
  107      H      -5.5941479628     0.6421887790     3.9709493414
  108      H      -4.2996153911     1.6296198294     5.9592346181
  109      H      -5.1766044754     3.1327204501     5.6604961540
  110      H      -3.9992467374     2.5898835607     4.5345335133
 ----------------------------------------------------------------

   10   -5663.4530435679      4.72E-06 Convergence criterion met
 Total energy in the final basis set = -5663.4530435679

                    Orbital Energies (a.u.)
 --------------------------------------------------------------

 Alpha MOs
 -- Occupied --
-88.989 -88.982 -88.931 -88.926 -88.926 -88.919 -88.912 -88.907
-14.396 -14.388 -14.383 -14.378 -14.354 -14.341 -14.341 -14.338
-14.326 -14.314 -10.275 -10.262 -10.261 -10.259 -10.258 -10.255
-10.252 -10.248 -10.241 -10.240 -10.238 -10.238 -10.236 -10.231
-10.229 -10.228 -10.226 -10.226 -10.226 -10.225 -10.225 -10.224
-10.224 -10.223 -10.222 -10.220 -10.215 -10.214 -10.211 -10.210
-10.209 -10.208 -10.204 -10.204 -10.202 -10.200 -10.199 -10.189
-10.187 -10.184 -10.182 -10.181 -10.181 -10.178 -10.178 -10.175
-10.173 -10.170 -10.170 -10.164  -8.044  -8.038  -7.991  -7.987
 -7.983  -7.976  -7.971  -7.968  -6.008  -6.003  -6.003  -6.002
 -5.997  -5.995  -5.955  -5.952  -5.951  -5.948  -5.948  -5.947
 -5.944  -5.944  -5.941  -5.940  -5.937  -5.936  -5.933  -5.932
 -5.932  -5.929  -5.927  -5.924  -1.031  -1.019  -0.964  -0.962
 -0.960  -0.952  -0.951  -0.941  -0.909  -0.908  -0.898  -0.891
 -0.842  -0.836  -0.832  -0.829  -0.809  -0.804  -0.804  -0.802
 -0.799  -0.798  -0.793  -0.789  -0.784  -0.781  -0.767  -0.765
 -0.751  -0.748  -0.738  -0.737  -0.726  -0.718  -0.707  -0.706
 -0.693  -0.690  -0.669  -0.668  -0.654  -0.653  -0.645  -0.643
 -0.633  -0.633  -0.625  -0.624  -0.614  -0.606  -0.602  -0.592
 -0.592  -0.590  -0.585  -0.579  -0.575  -0.574  -0.569  -0.562
 -0.544  -0.542  -0.536  -0.530  -0.523  -0.519  -0.516  -0.512
 -0.506  -0.506  -0.498  -0.495  -0.487  -0.486  -0.473  -0.470
 -0.469  -0.466  -0.463  -0.462  -0.458  -0.454  -0.450  -0.448
 -0.446  -0.441  -0.437  -0.435  -0.432  -0.431  -0.429  -0.427
 -0.426  -0.423  -0.421  -0.418  -0.417  -0.414  -0.411  -0.410
 -0.409  -0.406  -0.404  -0.399  -0.397  -0.397  -0.394  -0.393
 -0.393  -0.391  -0.388  -0.387  -0.386  -0.385  -0.383  -0.381
 -0.380  -0.377  -0.372  -0.368  -0.365  -0.362  -0.357  -0.354
 -0.352  -0.350  -0.348  -0.346  -0.345  -0.344  -0.341  -0.338
 -0.336  -0.334  -0.331  -0.328  -0.327  -0.326  -0.322  -0.313
 -0.312  -0.309  -0.307  -0.305  -0.304  -0.301  -0.300  -0.299
 -0.295  -0.293  -0.291  -0.286  -0.283  -0.283  -0.279  -0.278
 -0.276  -0.267  -0.264  -0.261  -0.254  -0.252  -0.250  -0.245
 -0.240  -0.237  -0.232  -0.229  -0.196  -0.187

          Ground-State Mulliken Net Atomic Charges

     Atom                 Charge (a.u.)
  ----------------------------------------
      1 C                     0.304077
      2 C                    -0.123897
      3 N                    -0.492899
      4 C                    -0.065649
      5 C                     0.046654
      6 C                     0.058326
      7 C                     0.005230
      8 C                     0.110139
      9 C                     0.197163
     10 N                    -0.508913
     11 N                    -0.544327
     12 C                     0.252196
     13 C                     0.281323
     14 S                     0.592444
     15 N                    -0.563020
     16 C                    -0.235690
     17 S                     0.363018
     18 C                    -0.123608
     19 C                    -0.223800
     20 S                     0.281698
     21 C                     0.130449
     22 C                     0.054490
     23 C                    -0.300976
     24 C                    -0.080166
     25 N                    -0.436435
     26 S                     0.263898
     27 C                     0.109107
     28 C                    -0.297635
     29 C                    -0.229607
     30 H                     0.087421
     31 H                     0.102302
     32 H                     0.110098
     33 H                     0.112096
     34 H                     0.136537
     35 H                     0.106181
     36 H                     0.140389
     37 H                     0.139919
     38 H                     0.087940
     39 C                    -0.177327
     40 H                     0.108735
     41 H                     0.090266
     42 H                     0.110907
     43 C                    -0.183242
     44 H                     0.091311
     45 C                    -0.182358
     46 H                     0.090722
     47 H                     0.096861
     48 H                     0.098591
     49 C                    -0.176996
     50 H                     0.096772
     51 C                    -0.321599
     52 H                     0.094450
     53 H                     0.104627
     54 H                     0.100327
     55 H                     0.101950
     56 C                     0.301525
     57 C                    -0.120650
     58 N                    -0.500282
     59 C                    -0.054099
     60 C                     0.105105
     61 C                     0.029372
     62 C                     0.031042
     63 C                     0.047936
     64 C                     0.263419
     65 N                    -0.526374
     66 N                    -0.555834
     67 C                     0.203615
     68 C                     0.286104
     69 S                     0.615898
     70 N                    -0.555417
     71 C                    -0.221905
     72 S                     0.326056
     73 C                    -0.103144
     74 C                    -0.218993
     75 S                     0.296014
     76 C                     0.143554
     77 C                     0.029735
     78 C                    -0.306860
     79 C                    -0.077003
     80 N                    -0.417087
     81 S                     0.250614
     82 C                     0.144445
     83 C                    -0.310650
     84 C                    -0.256810
     85 H                     0.097374
     86 H                     0.115314
     87 H                     0.108048
     88 H                     0.116335
     89 H                     0.114616
     90 H                     0.114013
     91 H                     0.121898
     92 H                     0.123570
     93 H                     0.108739
     94 C                    -0.204231
     95 H                     0.126599
     96 H                     0.114274
     97 H                     0.091040
     98 C                    -0.189807
     99 H                     0.099889
    100 C                    -0.183956
    101 H                     0.098864
    102 H                     0.108742
    103 H                     0.092014
    104 C                    -0.180694
    105 H                     0.100202
    106 C                    -0.327117
    107 H                     0.096031
    108 H                     0.097286
    109 H                     0.099251
    110 H                     0.101915
  ----------------------------------------
  Sum of atomic charges =     0.000000

                    Cartesian Multipole Moments
 -----------------------------------------------------------------
    Charge (ESU x 10^10)
                 0.0000
    Dipole Moment (Debye)
         X       3.0395      Y      -0.7232      Z      -0.8598
       Tot       3.2405
    Quadrupole Moments (Debye-Ang)
        XX    -393.6720     XY     -19.4013     YY    -422.8697
        XZ      14.6797     YZ       4.6965     ZZ    -446.4818

 Total job time:  103.99s(wall), 1263.02s(cpu)
        *  Thank you very much for using Q-Chem.  Have a nice day.  *
