 Q-Chem 4.4, Q-Chem, Inc., Pleasanton, CA (2016)
 Q-Chem 4.4.2 for Intel X86 Linux

User input:
--------------------------------------------------------------
$comment
SP
$end

$rem
MEM_STATIC 5000
MEM_TOTAL 20000
JOBTYPE SP
EXCHANGE B3LYP
BASIS 6-31g(d,p)
$end

$molecule
0 1
C          -2.058000     19.214000     -3.061000
C          -2.587000     20.502000     -3.236000
N          -0.786000     18.908000     -3.394000
C          -1.683000     21.511000     -3.677000
C           0.038000     19.849000     -3.867000
C          -0.334000     21.181000     -4.028000
C           0.620000     22.280000     -4.398000
C           0.229000     23.453000     -5.145000
C           2.015000     22.260000     -4.180000
N           0.997000     24.547000     -5.273000
N           2.666000     21.267000     -3.555000
C           2.833000     23.344000     -4.452000
C           2.330000     24.532000     -5.051000
S           4.238000     21.628000     -3.613000
N           4.160000     23.131000     -4.186000
C           3.020000     25.840000     -5.145000
S           2.578000     27.171000     -6.245000
C           3.799000     26.321000     -4.124000
C           3.706000     28.301000     -5.430000
S           4.034000     25.611000     -2.573000
C           4.151000     27.600000     -4.278000
C           3.888000     29.712000     -5.726000
C           4.792000     27.169000     -2.096000
C           4.708000     28.120000     -3.057000
N           2.903000     30.234000     -6.401000
S           5.246000     30.625000     -5.387000
C           3.241000     31.564000     -6.697000
C           4.530000     31.863000     -6.400000
C          -2.937000     18.088000     -2.494000
H          -3.595000     20.770000     -2.932000
H          -1.964000     22.550000     -3.823000
H           1.003000     19.496000     -4.226000
H          -0.823000     23.590000     -5.393000
H           5.204000     27.239000     -1.098000
H           5.030000     29.141000     -2.883000
H           2.482000     32.156000     -7.191000
H           5.097000     32.753000     -6.639000
H          -3.460000     18.636000     -1.701000
C          -2.183000     16.865000     -1.850000
H          -3.774000     17.733000     -3.108000
H          -1.325000     17.176000     -1.241000
H          -1.771000     16.290000     -2.689000
C          -3.197000     15.944000     -1.161000
H          -3.811000     16.536000     -0.471000
C          -2.665000     14.630000     -0.485000
H          -3.899000     15.621000     -1.940000
H          -3.482000     14.400000      0.210000
H          -1.787000     14.843000      0.139000
C          -2.401000     13.526000     -1.505000
H          -3.409000     13.178000     -1.763000
C          -1.645000     12.381000     -0.791000
H          -1.947000     13.972000     -2.398000
H          -2.314000     11.909000     -0.061000
H          -0.711000     12.777000     -0.374000
H          -1.481000     11.634000     -1.578000
C           3.522000     20.049000     -7.616000
C           3.308000     19.613000     -8.921000
N           2.719000     20.904000     -6.999000
C           2.144000     20.100000     -9.584000
C           1.595000     21.281000     -7.563000
C           1.319000     21.063000     -8.948000
C           0.105000     21.578000     -9.648000
C           0.090000     21.535000    -11.015000
C          -1.144000     21.774000     -9.043000
N          -1.031000     21.719000    -11.783000
N          -1.319000     21.688000     -7.708000
C          -2.290000     22.040000     -9.732000
C          -2.140000     22.150000    -11.176000
S          -2.899000     21.693000     -7.447000
N          -3.412000     22.099000     -8.951000
C          -3.205000     22.502000    -12.117000
S          -3.242000     21.956000    -13.837000
C          -4.147000     23.467000    -11.851000
C          -4.573000     23.081000    -14.119000
S          -4.186000     24.691000    -10.557000
C          -4.856000     23.795000    -13.022000
C          -5.021000     23.448000    -15.462000
C          -5.495000     25.476000    -11.534000
C          -5.676000     24.935000    -12.805000
N          -6.182000     23.975000    -15.593000
S          -4.166000     23.006000    -16.885000
C          -6.393000     24.381000    -16.895000
C          -5.281000     24.097000    -17.640000
C           4.566000     19.462000     -6.629000
H           4.029000     18.941000     -9.378000
H           1.875000     19.720000    -10.566000
H           1.059000     21.995000     -6.939000
H           0.960000     21.246000    -11.603000
H          -5.902000     26.403000    -11.153000
H          -6.324000     25.395000    -13.542000
H          -7.277000     24.946000    -17.161000
H          -5.206000     24.261000    -18.707000
H           5.375000     20.200000     -6.572000
C           5.220000     18.153000     -7.090000
H           4.115000     19.345000     -5.636000
H           5.875000     18.354000     -7.946000
H           4.468000     17.424000     -7.417000
C           6.184000     17.462000     -6.026000
H           6.660000     16.625000     -6.550000
C           5.417000     16.815000     -4.868000
H           6.927000     18.201000     -5.702000
H           4.844000     15.970000     -5.270000
H           4.693000     17.519000     -4.440000
C           6.249000     16.263000     -3.787000
H           6.979000     15.486000     -4.044000
C           5.450000     15.664000     -2.740000
H           6.837000     17.073000     -3.339000
H           5.944000     15.424000     -1.790000
H           5.028000     14.707000     -3.070000
H           4.539000     16.235000     -2.518000
$end

--------------------------------------------------------------

             Standard Nuclear Orientation (Angstroms)
    I     Atom           X                Y                Z
 ----------------------------------------------------------------
    1      C      -2.8487807932     3.9728047553     2.9619365483
    2      C      -2.1104841535     3.0360093187     3.7013568496
    3      N      -3.3257446544     3.7003329549     1.7287400542
    4      C      -1.9820585966     1.7336122890     3.1382877123
    5      C      -3.1457401665     2.4935057719     1.1816088683
    6      C      -2.4909944039     1.4496053896     1.8297670112
    7      C      -2.4245738775     0.0449188236     1.3032112544
    8      C      -1.3227032206    -0.8510545673     1.5676573515
    9      C      -3.3439896828    -0.5350714872     0.4019705449
   10      N      -1.3558313984    -2.1697266022     1.3165585895
   11      N      -4.4399312711     0.0858529594    -0.0604576836
   12      C      -3.2889975838    -1.8671352907     0.0268093899
   13      C      -2.2444969365    -2.7275627619     0.4648013587
   14      S      -5.1350250869    -0.9160094800    -1.1178058948
   15      N      -4.2588955547    -2.2433258777    -0.8647244391
   16      C      -2.2114390745    -4.2057241422     0.3660789624
   17      S      -0.7569595378    -5.2247376377     0.5178214192
   18      C      -3.3346193984    -4.9681624985     0.5604927292
   19      C      -1.7377593010    -6.7244932426     0.5655073737
   20      S      -4.8935504142    -4.4179919236     1.0421278883
   21      C      -3.0812751861    -6.2752816784     0.6640164443
   22      C      -1.2467408499    -8.0786690759     0.7572616254
   23      C      -5.2989693803    -6.1474014227     1.3145893466
   24      C      -4.2400369901    -6.9762373819     1.1512763170
   25      N      -0.0493595633    -8.1311070830     1.2689864636
   26      S      -2.0156631795    -9.4844143186     0.2826114764
   27      C       0.3392975877    -9.4791818974     1.3179753769
   28      C      -0.5098961915   -10.3011455148     0.6528612986
   29      C      -3.1215502631     5.3709204250     3.5388900909
   30      H      -1.7588384454     3.2291573988     4.7109820845
   31      H      -1.4595966984     0.9152650226     3.6252572354
   32      H      -3.4508530152     2.3952283612     0.1414345078
   33      H      -0.5314645869    -0.5242978902     2.2415627591
   34      H      -6.3104625956    -6.3811733819     1.6193517895
   35      H      -4.3007449004    -8.0353774498     1.3769705042
   36      H       1.2873498488    -9.6907678548     1.7944302991
   37      H      -0.3967139699   -11.3499646230     0.4122822829
   38      H      -3.3547984313     5.1060051089     4.5772046710
   39      C      -4.3438886646     6.1553822364     2.9310336123
   40      H      -2.2674575464     6.0471552303     3.6685902043
   41      H      -5.2158303524     5.5098200041     2.7675310211
   42      H      -4.0212256217     6.4920775114     1.9376480615
   43      C      -4.5940584699     7.4272006053     3.7502107024
   44      H      -4.6847024072     7.1609921525     4.8106241766
   45      C      -5.7474141305     8.3894361106     3.2914410952
   46      H      -3.6693910976     8.0154574257     3.6961906696
   47      H      -5.9367987207     8.9527083310     4.2135429782
   48      H      -6.6661958109     7.8238646345     3.0874849008
   49      C      -5.3294352601     9.2662090292     2.1143791116
   50      H      -4.6725013586    10.0119174407     2.5792326520
   51      C      -6.5905429896     9.9798367916     1.5733618184
   52      H      -4.7342181052     8.6626065049     1.4187775509
   53      H      -6.9460597304    10.6982479427     2.3221864073
   54      H      -7.3257622054     9.2236192971     1.2722824174
   55      H      -6.2213081258    10.5787463369     0.7311937996
   56      C      -1.8919356149     0.7914198212    -3.4835957964
   57      C      -0.8255822552     1.2685882067    -4.2413014413
   58      N      -1.7587389524     0.3684827024    -2.2346338904
   59      C       0.4480639360     1.3247514432    -3.6038808028
   60      C      -0.6137066376     0.5074228599    -1.6075791633
   61      C       0.6039884146     0.8138743981    -2.2896577617
   62      C       1.9410077349     0.8660013450    -1.6273261840
   63      C       3.0491185043     0.9023978878    -2.4282811231
   64      C       2.1577734051     1.2296786163    -0.2912148539
   65      N       4.3109007276     1.2129912143    -1.9903788435
   66      N       1.1443964530     1.3912006846     0.5846982551
   67      C       3.3887278866     1.4774871185     0.2399489727
   68      C       4.5097838230     1.3043299391    -0.6727317922
   69      S       1.7687048304     2.0673439590     1.8952764948
   70      N       3.3616931004     1.9114345993     1.5373635959
   71      C       5.9238162536     1.4380420580    -0.3174243839
   72      S       7.2067882191     1.9357779455    -1.4853828258
   73      C       6.4427171902     0.9732344819     0.8674978646
   74      C       8.4158950788     1.4901048914    -0.2786740247
   75      S       5.7126571101    -0.1067996922     2.0818583804
   76      C       7.8495636794     0.9741421407     0.8196634398
   77      C       9.8341231767     1.3425233777    -0.6040826281
   78      C       7.3913096988    -0.2594405170     2.7474868539
   79      C       8.3867931885     0.2985761397     1.9484167489
   80      N      10.6837387962     1.3647341088     0.3553291618
   81      S      10.4298321697     1.3649686702    -2.2152762863
   82      C      11.9529624689     1.0803597485    -0.1059337695
   83      C      11.9007451314     0.8541040951    -1.4543798118
   84      C      -3.3899884187     0.8792207885    -3.8795791132
   85      H      -1.0004763596     1.5625640135    -5.2724485099
   86      H       1.2947974790     1.7770873128    -4.1133114343
   87      H      -0.6619743015     0.0971091125    -0.5997196188
   88      H       2.9960191087     0.7856694044    -3.5098170288
   89      H       7.5246413783    -0.9190919613     3.5943762417
   90      H       9.4411868523     0.1569008165     2.1554314935
   91      H      12.7751925908     0.9483488982     0.5854038919
   92      H      12.7683839977     0.6668653561    -2.0733745228
   93      H      -3.6825842249    -0.1344231403    -4.1783895542
   94      C      -3.6827392991     1.7771330521    -5.0886152950
   95      H      -3.9872048488     1.1851171065    -3.0118815978
   96      H      -3.2840311880     1.3086159026    -5.9961865169
   97      H      -3.1986740732     2.7564032533    -4.9857331780
   98      C      -5.2266263005     1.9937173135    -5.4178221977
   99      H      -5.2581215405     2.5415250210    -6.3668405144
  100      C      -5.9211117470     2.9150342796    -4.4094933761
  101      H      -5.7010395189     1.0092657756    -5.5123381627
  102      H      -5.4992244022     3.9216376980    -4.5222702639
  103      H      -5.7132051830     2.5932653658    -3.3817698594
  104      C      -7.3748849971     3.0629441789    -4.5831453245
  105      H      -7.7428454279     3.4491594231    -5.5413315832
  106      C      -7.9504691153     3.9539506231    -3.5991628859
  107      H      -7.8506781444     2.0817963723    -4.4668789819
  108      H      -9.0424758932     3.9645401794    -3.4917149533
  109      H      -7.6944205868     4.9972622082    -3.8200091841
  110      H      -7.5090146458     3.8312931570    -2.6015060825
 ----------------------------------------------------------------

    9   -5663.4675964079      9.18E-06 Convergence criterion met
 Total energy in the final basis set = -5663.4675964079

                    Orbital Energies (a.u.)
 --------------------------------------------------------------

 Alpha MOs
 -- Occupied --
-88.989 -88.980 -88.928 -88.924 -88.921 -88.919 -88.908 -88.902
-14.384 -14.376 -14.372 -14.364 -14.347 -14.339 -14.336 -14.335
-14.324 -14.323 -10.262 -10.261 -10.261 -10.255 -10.254 -10.250
-10.244 -10.243 -10.237 -10.236 -10.233 -10.233 -10.232 -10.231
-10.230 -10.229 -10.228 -10.228 -10.228 -10.227 -10.227 -10.224
-10.223 -10.222 -10.220 -10.219 -10.219 -10.217 -10.217 -10.215
-10.214 -10.213 -10.203 -10.202 -10.202 -10.201 -10.198 -10.196
-10.187 -10.187 -10.184 -10.182 -10.174 -10.174 -10.173 -10.172
-10.172 -10.171 -10.168 -10.162  -8.045  -8.035  -7.991  -7.987
 -7.980  -7.977  -7.968  -7.963  -6.010  -6.004  -6.003  -6.000
 -5.994  -5.993  -5.955  -5.951  -5.951  -5.948  -5.948  -5.944
 -5.944  -5.941  -5.940  -5.938  -5.936  -5.934  -5.933  -5.929
 -5.928  -5.924  -5.924  -5.919  -1.041  -1.032  -0.982  -0.975
 -0.957  -0.948  -0.947  -0.934  -0.913  -0.909  -0.898  -0.892
 -0.839  -0.837  -0.831  -0.822  -0.814  -0.812  -0.810  -0.809
 -0.801  -0.799  -0.795  -0.791  -0.790  -0.782  -0.768  -0.763
 -0.751  -0.749  -0.741  -0.739  -0.722  -0.721  -0.710  -0.704
 -0.694  -0.689  -0.671  -0.666  -0.657  -0.650  -0.647  -0.638
 -0.635  -0.627  -0.626  -0.623  -0.607  -0.603  -0.599  -0.595
 -0.591  -0.589  -0.583  -0.582  -0.577  -0.571  -0.566  -0.559
 -0.552  -0.541  -0.541  -0.536  -0.520  -0.520  -0.515  -0.513
 -0.508  -0.503  -0.500  -0.497  -0.479  -0.479  -0.475  -0.473
 -0.470  -0.467  -0.466  -0.463  -0.462  -0.461  -0.460  -0.452
 -0.445  -0.442  -0.438  -0.437  -0.434  -0.431  -0.429  -0.426
 -0.426  -0.425  -0.425  -0.419  -0.417  -0.415  -0.412  -0.411
 -0.409  -0.407  -0.406  -0.404  -0.401  -0.399  -0.395  -0.393
 -0.392  -0.392  -0.391  -0.389  -0.387  -0.384  -0.383  -0.381
 -0.379  -0.377  -0.369  -0.366  -0.364  -0.363  -0.360  -0.357
 -0.355  -0.351  -0.348  -0.344  -0.342  -0.340  -0.337  -0.337
 -0.335  -0.334  -0.332  -0.331  -0.327  -0.323  -0.319  -0.317
 -0.313  -0.310  -0.304  -0.303  -0.301  -0.300  -0.298  -0.296
 -0.290  -0.290  -0.289  -0.287  -0.285  -0.282  -0.280  -0.277
 -0.275  -0.266  -0.264  -0.261  -0.253  -0.252  -0.250  -0.244
 -0.243  -0.239  -0.230  -0.226  -0.193  -0.190

          Ground-State Mulliken Net Atomic Charges

     Atom                 Charge (a.u.)
  ----------------------------------------
      1 C                     0.275888
      2 C                    -0.120320
      3 N                    -0.490731
      4 C                    -0.098812
      5 C                     0.094427
      6 C                     0.071801
      7 C                     0.028185
      8 C                     0.024151
      9 C                     0.260202
     10 N                    -0.456419
     11 N                    -0.568850
     12 C                     0.172396
     13 C                     0.238811
     14 S                     0.611397
     15 N                    -0.528525
     16 C                    -0.205956
     17 S                     0.342861
     18 C                    -0.101886
     19 C                    -0.206042
     20 S                     0.261165
     21 C                     0.116720
     22 C                     0.065811
     23 C                    -0.300443
     24 C                    -0.070694
     25 N                    -0.425159
     26 S                     0.279381
     27 C                     0.119705
     28 C                    -0.309071
     29 C                    -0.241458
     30 H                     0.094289
     31 H                     0.097852
     32 H                     0.125161
     33 H                     0.099496
     34 H                     0.124921
     35 H                     0.105990
     36 H                     0.117759
     37 H                     0.131299
     38 H                     0.102328
     39 C                    -0.159307
     40 H                     0.114440
     41 H                     0.103015
     42 H                     0.108944
     43 C                    -0.193135
     44 H                     0.080404
     45 C                    -0.170291
     46 H                     0.083670
     47 H                     0.088814
     48 H                     0.086734
     49 C                    -0.179931
     50 H                     0.094609
     51 C                    -0.313670
     52 H                     0.101810
     53 H                     0.107346
     54 H                     0.108555
     55 H                     0.097794
     56 C                     0.265494
     57 C                    -0.119019
     58 N                    -0.487110
     59 C                    -0.093430
     60 C                     0.101949
     61 C                     0.019724
     62 C                     0.083335
     63 C                     0.022810
     64 C                     0.221581
     65 N                    -0.506942
     66 N                    -0.549477
     67 C                     0.229956
     68 C                     0.257905
     69 S                     0.610322
     70 N                    -0.548793
     71 C                    -0.211194
     72 S                     0.297410
     73 C                    -0.113826
     74 C                    -0.217168
     75 S                     0.256849
     76 C                     0.153465
     77 C                     0.066455
     78 C                    -0.304401
     79 C                    -0.039240
     80 N                    -0.425804
     81 S                     0.270616
     82 C                     0.111549
     83 C                    -0.299475
     84 C                    -0.213474
     85 H                     0.097070
     86 H                     0.103954
     87 H                     0.117759
     88 H                     0.111233
     89 H                     0.127912
     90 H                     0.124713
     91 H                     0.120636
     92 H                     0.117356
     93 H                     0.117295
     94 C                    -0.203151
     95 H                     0.127776
     96 H                     0.091029
     97 H                     0.096270
     98 C                    -0.184323
     99 H                     0.093040
    100 C                    -0.164681
    101 H                     0.089947
    102 H                     0.090724
    103 H                     0.094126
    104 C                    -0.156786
    105 H                     0.091193
    106 C                    -0.319327
    107 H                     0.087536
    108 H                     0.095889
    109 H                     0.096066
    110 H                     0.099246
  ----------------------------------------
  Sum of atomic charges =     0.000000

                    Cartesian Multipole Moments
 -----------------------------------------------------------------
    Charge (ESU x 10^10)
                 0.0000
    Dipole Moment (Debye)
         X       0.6850      Y      -1.8469      Z      -0.6475
       Tot       2.0735
    Quadrupole Moments (Debye-Ang)
        XX    -405.4939     XY       1.0417     YY    -406.1147
        XZ      -2.4806     YZ      -4.9565     ZZ    -422.4137

 Total job time:  87.09s(wall), 1047.17s(cpu)
        *  Thank you very much for using Q-Chem.  Have a nice day.  *
