 Q-Chem 4.4, Q-Chem, Inc., Pleasanton, CA (2016)
 Q-Chem 4.4.2 for Intel X86 Linux

User input:
--------------------------------------------------------------
$comment
SP
$end

$rem
MEM_STATIC 5000
MEM_TOTAL 20000
JOBTYPE SP
EXCHANGE B3LYP
BASIS 6-31g(d,p)
$end

$molecule
0 1
C          27.509000    -15.483000     -1.622000
C          26.515000    -16.018000     -2.400000
N          27.689000    -14.131000     -1.519000
C          25.673000    -15.098000     -3.110000
C          26.778000    -13.293000     -2.086000
C          25.671000    -13.688000     -2.877000
C          24.724000    -12.696000     -3.470000
C          24.404000    -11.467000     -2.728000
C          24.296000    -12.706000     -4.805000
N          23.676000    -10.487000     -3.261000
N          24.613000    -13.743000     -5.656000
C          23.477000    -11.751000     -5.362000
C          23.174000    -10.573000     -4.503000
S          23.957000    -13.311000     -7.077000
N          23.250000    -11.822000     -6.666000
C          22.375000     -9.447000     -4.972000
S          22.011000     -9.134000     -6.700000
C          21.976000     -8.353000     -4.235000
C          21.298000     -7.568000     -6.336000
S          22.189000     -7.908000     -2.505000
C          21.517000     -7.297000     -5.010000
C          20.710000     -6.672000     -7.273000
C          21.564000     -6.280000     -2.904000
C          21.207000     -6.131000     -4.251000
N          19.666000     -6.022000     -6.868000
S          21.129000     -6.497000     -8.989000
C          19.192000     -5.212000     -7.859000
C          19.870000     -5.309000     -9.040000
C          28.514000    -16.312000     -0.908000
H          26.347000    -17.089000     -2.466000
H          24.853000    -15.466000     -3.721000
H          26.923000    -12.220000     -1.969000
H          24.678000    -11.402000     -1.676000
H          21.248000     -5.588000     -2.135000
H          20.731000     -5.264000     -4.695000
H          18.328000     -4.579000     -7.702000
H          19.715000     -4.809000     -9.987000
H          28.322000    -17.349000     -1.209000
C          28.724000    -16.121000      0.603000
H          29.473000    -16.118000     -1.404000
H          28.825000    -15.040000      0.753000
H          29.697000    -16.553000      0.867000
C          27.586000    -16.660000      1.469000
H          27.526000    -17.748000      1.341000
C          26.220000    -15.936000      1.177000
H          27.857000    -16.322000      2.477000
H          25.706000    -16.383000      0.317000
H          26.264000    -14.857000      0.984000
C          25.269000    -16.128000      2.423000
H          24.277000    -15.775000      2.118000
C          25.728000    -15.444000      3.737000
H          25.178000    -17.175000      2.738000
H          26.636000    -15.951000      4.086000
H          24.878000    -15.578000      4.417000
H          25.869000    -14.370000      3.567000
C           8.705000    -18.167000     -1.318000
C           9.864000    -17.672000     -0.700000
N           8.598000    -18.106000     -2.653000
C          11.026000    -17.355000     -1.469000
C           9.613000    -17.669000     -3.328000
C          10.881000    -17.326000     -2.878000
C          12.025000    -16.914000     -3.762000
C          13.351000    -17.306000     -3.439000
C          11.894000    -16.076000     -4.856000
N          14.411000    -17.027000     -4.187000
N          10.729000    -15.491000     -5.197000
C          12.944000    -15.854000     -5.720000
C          14.234000    -16.308000     -5.283000
S          10.965000    -14.642000     -6.522000
N          12.542000    -15.016000     -6.749000
C          15.436000    -15.906000     -6.066000
S          15.537000    -14.446000     -7.002000
C          16.706000    -16.455000     -5.942000
C          17.230000    -14.631000     -7.254000
S          17.212000    -17.991000     -5.183000
C          17.716000    -15.704000     -6.488000
C          18.168000    -13.764000     -7.866000
C          18.902000    -17.632000     -5.788000
C          18.932000    -16.400000     -6.473000
N          17.731000    -12.880000     -8.824000
S          19.681000    -13.203000     -7.137000
C          18.622000    -11.940000     -9.077000
C          19.787000    -12.043000     -8.427000
C           7.524000    -18.570000     -0.462000
H           9.993000    -17.767000      0.374000
H          11.972000    -17.113000     -0.994000
H           9.448000    -17.528000     -4.395000
H          13.491000    -17.967000     -2.585000
H          19.700000    -18.345000     -5.625000
H          19.767000    -16.000000     -7.038000
H          18.323000    -11.163000     -9.768000
H          20.564000    -11.309000     -8.596000
H           7.249000    -17.766000      0.231000
C           7.767000    -19.848000      0.315000
H           6.651000    -18.794000     -1.089000
H           8.522000    -19.687000      1.094000
H           8.159000    -20.695000     -0.263000
C           6.504000    -20.482000      1.003000
H           5.752000    -20.867000      0.303000
C           5.783000    -19.551000      1.916000
H           6.918000    -21.325000      1.570000
H           4.871000    -20.091000      2.198000
H           5.576000    -18.599000      1.413000
C           6.524000    -19.282000      3.217000
H           6.939000    -20.179000      3.693000
C           5.588000    -18.454000      4.150000
H           7.367000    -18.623000      2.975000
H           4.738000    -19.148000      4.156000
H           5.302000    -17.509000      3.673000
H           6.041000    -18.202000      5.117000
$end

--------------------------------------------------------------

             Standard Nuclear Orientation (Angstroms)
    I     Atom           X                Y                Z
 ----------------------------------------------------------------
    1      C      -7.0983571996     6.2020205535    -1.1479387539
    2      C      -6.1005498993     5.6073491998    -1.8761499682
    3      N      -7.7914343240     5.5162897448    -0.1886002539
    4      C      -5.8173270331     4.2289856322    -1.5944361354
    5      C      -7.3915811259     4.2600709913     0.1515259924
    6      C      -6.3502208523     3.5271154274    -0.4693604077
    7      C      -5.9839082769     2.1448758768    -0.0360580630
    8      C      -6.0810726638     1.7819791115     1.3860073433
    9      C      -5.7917285245     1.0637716224    -0.9077171327
   10      N      -5.8987050746     0.5332400794     1.8124647178
   11      N      -5.7855621426     1.2328898094    -2.2757156760
   12      C      -5.5206816965    -0.2214663075    -0.4981660609
   13      C      -5.5952281513    -0.4658387818     0.9688373202
   14      S      -5.5787886747    -0.2660088127    -2.8645693537
   15      N      -5.4807197104    -1.1661009879    -1.4271732516
   16      C      -5.3982116202    -1.7871216497     1.5533320332
   17      S      -5.4525753325    -3.3122145852     0.6112146707
   18      C      -5.3702951616    -2.1015135092     2.8948179370
   19      C      -5.3871580403    -4.2941450114     2.0688683387
   20      S      -5.4853686743    -1.0968427090     4.3826649285
   21      C      -5.4973827265    -3.4596802686     3.1510869449
   22      C      -5.3572463526    -5.7162549020     2.1257695693
   23      C      -5.6377199373    -2.6093473544     5.3257072341
   24      C      -5.5756135579    -3.7684593046     4.5404293951
   25      N      -4.6170945731    -6.2380078497     3.0511939070
   26      S      -6.0609522899    -6.8457119489     0.9510497163
   27      C      -4.6633900081    -7.6007096651     2.9898954969
   28      C      -5.4116428278    -8.0943383700     1.9601856254
   29      C      -7.5648739557     7.5905912548    -1.3955180826
   30      H      -5.5262671775     6.1514883878    -2.6202822813
   31      H      -5.0192259789     3.7148432253    -2.1234326313
   32      H      -7.9383356383     3.7410161552     0.9374551114
   33      H      -6.1984592026     2.5745043808     2.1236584112
   34      H      -5.5176689499    -2.6237847816     6.4006306366
   35      H      -5.5618957554    -4.7891662299     4.9056282376
   36      H      -4.1156914308    -8.2136203303     3.6943107046
   37      H      -5.6142132340    -9.1137190098     1.6590837461
   38      H      -7.0175475099     7.9424300961    -2.2783981376
   39      C      -7.6072035797     8.5981900035    -0.2350634457
   40      H      -8.5825758055     7.5006878962    -1.7949343203
   41      H      -8.1125677104     8.0799994317     0.5879478706
   42      H      -8.2719428063     9.4210377525    -0.5250502431
   43      C      -6.2336761407     9.0851524650     0.2251657749
   44      H      -5.7592312056     9.6386750161    -0.5947383591
   45      C      -5.3362160716     7.9123972519     0.7679425562
   46      H      -6.4651133595     9.6792549920     1.1180420268
   47      H      -4.8194285688     7.3930651220    -0.0486539267
   48      H      -5.8402474485     7.1365874681     1.3574317848
   49      C      -4.2151790710     8.5219251193     1.6982827209
   50      H      -3.5074790287     7.7117146833     1.9090377909
   51      C      -4.7105936772     9.1885065149     3.0080027716
   52      H      -3.6635239974     9.3442067232     1.2257950029
   53      H      -5.2737520037    10.0907283262     2.7393719794
   54      H      -3.7881940209     9.4109319450     3.5580589523
   55      H      -5.2967565036     8.4691663090     3.5921430023
   56      C      11.0055162569     0.7761973823     0.7747928406
   57      C       9.8511499692     1.3487161733     1.3314711208
   58      N      10.8792509842    -0.2240949007    -0.1088741949
   59      C       8.5599939346     1.0737137145     0.7843114165
   60      C       9.6863040916    -0.5644462503    -0.4801660883
   61      C       8.4699648735     0.0271939214    -0.1663925809
   62      C       7.1396253329    -0.3922366756    -0.7269375666
   63      C       6.1488306499     0.5834861624    -1.0142698470
   64      C       6.7570921370    -1.7104316347    -0.9065800001
   65      N       4.9682146588     0.3067403129    -1.5532527933
   66      N       7.5219485547    -2.7542620627    -0.5308890391
   67      C       5.5912932394    -2.0362814326    -1.5646186308
   68      C       4.6749573694    -0.9578899134    -1.8066626447
   69      S       6.7693695711    -4.0966337473    -0.9355927998
   70      N       5.4630531479    -3.4144713396    -1.6472990959
   71      C       3.3112937866    -1.2790397669    -2.3133986751
   72      S       2.4916501014    -2.7786201683    -2.0014053273
   73      C       2.4048933598    -0.3663881522    -2.8379768833
   74      C       1.0005941648    -2.1843657608    -2.6239741133
   75      S       2.6809796257     1.2923483414    -3.4411208283
   76      C       1.1088353368    -0.8115718036    -2.9032617780
   77      C      -0.2871026768    -2.7738845486    -2.6435046744
   78      C       0.9205728247     1.3092019290    -3.9428078337
   79      C       0.2943498761     0.0947996025    -3.5949273825
   80      N      -0.3917772855    -4.1447245000    -2.6380225274
   81      S      -1.7712035483    -2.0281002841    -2.0298423617
   82      C      -1.6132132448    -4.5492256477    -2.3448280202
   83      C      -2.5267980588    -3.5867321253    -2.1736468097
   84      C      12.3614656192     1.1564792210     1.3285915858
   85      H       9.9325278992     2.1981286010     2.0030499772
   86      H       7.6788273222     1.6197525759     1.1075635826
   87      H       9.6198912721    -1.4510771397    -1.1087120319
   88      H       6.4161376774     1.6312817939    -0.8857853427
   89      H       0.5122708924     2.1663850156    -4.4626815569
   90      H      -0.7048320457    -0.2166496562    -3.8796813928
   91      H      -1.7596177314    -5.6169353518    -2.2490537336
   92      H      -3.5496754399    -3.8514293320    -1.9397595463
   93      H      12.3879987626     1.0369752585     2.4182267519
   94      C      12.7734750992     2.5681532235     0.9632332696
   95      H      13.1468949909     0.5227540939     0.8962408425
   96      H      12.1425751358     3.2996601838     1.4825114255
   97      H      12.6757592447     2.8386065553    -0.0962305604
   98      C      14.2717709019     2.9419400134     1.2562556638
   99      H      15.0021344934     2.4030634329     0.6398872228
  100      C      14.6823142605     2.7240885654     2.6719413271
  101      H      14.3225963764     4.0088951267     1.0061405756
  102      H      15.7655112097     2.8959599986     2.6754881081
  103      H      14.4101160522     1.7147834885     3.0026578175
  104      C      14.0979566399     3.7445117773     3.6369831086
  105      H      14.1561699922     4.7820439824     3.2854889706
  106      C      14.7471449134     3.5202349073     5.0371343401
  107      H      13.0349409178     3.5008077050     3.7557261065
  108      H      15.7955685508     3.6197069114     4.7287754632
  109      H      14.5529497975     2.5025876945     5.3963451518
  110      H      14.3800448293     4.2090332927     5.8082350551
 ----------------------------------------------------------------

    9   -5663.5064085401      8.93E-06 Convergence criterion met
 Total energy in the final basis set = -5663.5064085401

                    Orbital Energies (a.u.)
 --------------------------------------------------------------

 Alpha MOs
 -- Occupied --
-88.995 -88.990 -88.933 -88.928 -88.927 -88.926 -88.914 -88.909
-14.396 -14.392 -14.383 -14.374 -14.353 -14.351 -14.349 -14.331
-14.329 -14.324 -10.272 -10.271 -10.266 -10.262 -10.261 -10.259
-10.254 -10.248 -10.247 -10.245 -10.241 -10.239 -10.235 -10.235
-10.235 -10.235 -10.234 -10.234 -10.232 -10.230 -10.229 -10.227
-10.227 -10.225 -10.222 -10.219 -10.216 -10.215 -10.215 -10.214
-10.213 -10.211 -10.207 -10.204 -10.201 -10.201 -10.200 -10.198
-10.186 -10.181 -10.181 -10.178 -10.177 -10.176 -10.176 -10.176
-10.174 -10.174 -10.173 -10.170  -8.050  -8.046  -7.994  -7.987
 -7.987  -7.986  -7.972  -7.968  -6.015  -6.011  -6.009  -6.008
 -6.005  -6.003  -5.958  -5.955  -5.951  -5.951  -5.951  -5.950
 -5.948  -5.947  -5.946  -5.944  -5.943  -5.943  -5.937  -5.933
 -5.933  -5.929  -5.928  -5.924  -1.040  -1.038  -0.987  -0.970
 -0.963  -0.960  -0.950  -0.931  -0.915  -0.915  -0.909  -0.893
 -0.840  -0.840  -0.838  -0.834  -0.818  -0.816  -0.811  -0.808
 -0.804  -0.801  -0.794  -0.793  -0.788  -0.781  -0.766  -0.766
 -0.751  -0.748  -0.739  -0.738  -0.726  -0.724  -0.712  -0.709
 -0.696  -0.693  -0.677  -0.677  -0.658  -0.657  -0.648  -0.645
 -0.640  -0.638  -0.626  -0.624  -0.616  -0.612  -0.600  -0.599
 -0.597  -0.592  -0.591  -0.582  -0.574  -0.574  -0.561  -0.555
 -0.551  -0.546  -0.538  -0.533  -0.530  -0.522  -0.520  -0.516
 -0.509  -0.502  -0.497  -0.497  -0.490  -0.489  -0.480  -0.476
 -0.475  -0.474  -0.471  -0.467  -0.464  -0.463  -0.453  -0.452
 -0.451  -0.445  -0.444  -0.441  -0.437  -0.433  -0.433  -0.431
 -0.430  -0.429  -0.425  -0.424  -0.421  -0.416  -0.416  -0.414
 -0.412  -0.412  -0.408  -0.403  -0.402  -0.401  -0.401  -0.399
 -0.398  -0.395  -0.393  -0.392  -0.391  -0.387  -0.384  -0.382
 -0.381  -0.380  -0.375  -0.375  -0.364  -0.362  -0.360  -0.354
 -0.353  -0.352  -0.351  -0.350  -0.345  -0.344  -0.343  -0.341
 -0.339  -0.337  -0.334  -0.332  -0.329  -0.327  -0.325  -0.322
 -0.317  -0.314  -0.308  -0.307  -0.306  -0.305  -0.302  -0.300
 -0.297  -0.295  -0.295  -0.291  -0.286  -0.284  -0.281  -0.277
 -0.272  -0.270  -0.266  -0.264  -0.256  -0.254  -0.252  -0.250
 -0.247  -0.244  -0.233  -0.232  -0.197  -0.192

          Ground-State Mulliken Net Atomic Charges

     Atom                 Charge (a.u.)
  ----------------------------------------
      1 C                     0.295033
      2 C                    -0.117512
      3 N                    -0.493338
      4 C                    -0.084166
      5 C                     0.068892
      6 C                     0.049351
      7 C                    -0.005819
      8 C                     0.064838
      9 C                     0.219099
     10 N                    -0.511759
     11 N                    -0.528678
     12 C                     0.236152
     13 C                     0.299859
     14 S                     0.597480
     15 N                    -0.575118
     16 C                    -0.235314
     17 S                     0.314792
     18 C                    -0.101342
     19 C                    -0.205332
     20 S                     0.283977
     21 C                     0.146199
     22 C                     0.024037
     23 C                    -0.320154
     24 C                    -0.037960
     25 N                    -0.403675
     26 S                     0.267789
     27 C                     0.121970
     28 C                    -0.301094
     29 C                    -0.224342
     30 H                     0.096534
     31 H                     0.101911
     32 H                     0.098123
     33 H                     0.123322
     34 H                     0.130180
     35 H                     0.116888
     36 H                     0.117942
     37 H                     0.137403
     38 H                     0.082185
     39 C                    -0.184931
     40 H                     0.120193
     41 H                     0.119427
     42 H                     0.085763
     43 C                    -0.168564
     44 H                     0.092088
     45 C                    -0.178550
     46 H                     0.096698
     47 H                     0.092679
     48 H                     0.104091
     49 C                    -0.190570
     50 H                     0.084792
     51 C                    -0.312525
     52 H                     0.088780
     53 H                     0.106956
     54 H                     0.101891
     55 H                     0.101081
     56 C                     0.272968
     57 C                    -0.123409
     58 N                    -0.475251
     59 C                    -0.085496
     60 C                     0.092389
     61 C                     0.053057
     62 C                     0.029255
     63 C                     0.055468
     64 C                     0.203319
     65 N                    -0.499308
     66 N                    -0.543572
     67 C                     0.234817
     68 C                     0.281977
     69 S                     0.629545
     70 N                    -0.568420
     71 C                    -0.237264
     72 S                     0.379204
     73 C                    -0.116985
     74 C                    -0.169454
     75 S                     0.262707
     76 C                     0.110324
     77 C                    -0.001141
     78 C                    -0.308621
     79 C                    -0.068173
     80 N                    -0.418733
     81 S                     0.275670
     82 C                     0.132807
     83 C                    -0.305715
     84 C                    -0.231495
     85 H                     0.085618
     86 H                     0.101625
     87 H                     0.098505
     88 H                     0.109701
     89 H                     0.131557
     90 H                     0.106854
     91 H                     0.109771
     92 H                     0.140827
     93 H                     0.114953
     94 C                    -0.183554
     95 H                     0.118271
     96 H                     0.093229
     97 H                     0.100776
     98 C                    -0.186530
     99 H                     0.090589
    100 C                    -0.161400
    101 H                     0.088415
    102 H                     0.085234
    103 H                     0.095880
    104 C                    -0.182449
    105 H                     0.093036
    106 C                    -0.310212
    107 H                     0.087536
    108 H                     0.103035
    109 H                     0.102634
    110 H                     0.097969
  ----------------------------------------
  Sum of atomic charges =     0.000000

                    Cartesian Multipole Moments
 -----------------------------------------------------------------
    Charge (ESU x 10^10)
                 0.0000
    Dipole Moment (Debye)
         X      -1.2703      Y      -1.0574      Z       0.8342
       Tot       1.8514
    Quadrupole Moments (Debye-Ang)
        XX    -459.5040     XY      36.7566     YY    -399.2104
        XZ      18.4574     YZ     -18.1609     ZZ    -439.5640

 Total job time:  81.45s(wall), 960.48s(cpu)
        *  Thank you very much for using Q-Chem.  Have a nice day.  *
