 Q-Chem 4.4, Q-Chem, Inc., Pleasanton, CA (2016)
 Q-Chem 4.4.2 for Intel X86 Linux

User input:
--------------------------------------------------------------
$comment
SP
$end

$rem
MEM_STATIC 5000
MEM_TOTAL 20000
JOBTYPE SP
EXCHANGE B3LYP
BASIS 6-31g(d,p)
$end

$molecule
0 1
C          10.774000    -15.751000     -9.769000
C          11.352000    -16.840000     -9.134000
N           9.515000    -15.381000     -9.443000
C          10.652000    -17.593000     -8.162000
C           8.820000    -16.134000     -8.554000
C           9.344000    -17.250000     -7.840000
C           8.533000    -18.122000     -6.952000
C           8.775000    -19.519000     -6.878000
C           7.364000    -17.714000     -6.225000
N           7.995000    -20.361000     -6.146000
N           6.971000    -16.447000     -6.142000
C           6.535000    -18.635000     -5.588000
C           6.902000    -19.925000     -5.531000
S           5.542000    -16.449000     -5.278000
N           5.479000    -18.018000     -5.031000
C           6.207000    -20.974000     -4.746000
S           7.084000    -22.059000     -3.687000
C           4.862000    -21.159000     -4.578000
C           5.629000    -22.748000     -2.980000
S           3.506000    -20.412000     -5.370000
C           4.553000    -22.230000     -3.720000
C           5.652000    -23.556000     -1.856000
C           2.430000    -21.619000     -4.537000
C           3.150000    -22.410000     -3.616000
N           4.659000    -24.353000     -1.648000
S           7.157000    -23.907000     -1.015000
C           4.959000    -25.208000     -0.618000
C           6.273000    -25.130000     -0.200000
C          11.525000    -14.978000    -10.837000
H          12.375000    -17.109000     -9.379000
H          11.201000    -18.400000     -7.685000
H           7.834000    -15.710000     -8.370000
H           9.597000    -19.977000     -7.427000
H           1.365000    -21.482000     -4.671000
H           2.690000    -22.962000     -2.804000
H           4.277000    -25.925000     -0.181000
H           6.754000    -25.754000      0.541000
H          11.921000    -15.591000    -11.656000
C          12.709000    -14.167000    -10.284000
H          10.831000    -14.225000    -11.231000
H          13.157000    -14.723000     -9.451000
H          12.234000    -13.298000     -9.813000
C          13.762000    -13.649000    -11.321000
H          14.044000    -14.574000    -11.838000
C          14.941000    -12.957000    -10.625000
H          13.262000    -12.934000    -11.986000
H          15.232000    -13.615000     -9.797000
H          14.668000    -11.979000    -10.208000
C          16.089000    -12.853000    -11.576000
H          17.066000    -12.975000    -11.093000
C          16.067000    -11.467000    -12.297000
H          16.120000    -13.642000    -12.338000
H          15.097000    -11.214000    -12.742000
H          16.859000    -11.354000    -13.047000
H          16.348000    -10.714000    -11.550000
C           8.705000    -18.167000     -1.318000
C           9.864000    -17.672000     -0.700000
N           8.598000    -18.106000     -2.653000
C          11.026000    -17.355000     -1.469000
C           9.613000    -17.669000     -3.328000
C          10.881000    -17.326000     -2.878000
C          12.025000    -16.914000     -3.762000
C          13.351000    -17.306000     -3.439000
C          11.894000    -16.076000     -4.856000
N          14.411000    -17.027000     -4.187000
N          10.729000    -15.491000     -5.197000
C          12.944000    -15.854000     -5.720000
C          14.234000    -16.308000     -5.283000
S          10.965000    -14.642000     -6.522000
N          12.542000    -15.016000     -6.749000
C          15.436000    -15.906000     -6.066000
S          15.537000    -14.446000     -7.002000
C          16.706000    -16.455000     -5.942000
C          17.230000    -14.631000     -7.254000
S          17.212000    -17.991000     -5.183000
C          17.716000    -15.704000     -6.488000
C          18.168000    -13.764000     -7.866000
C          18.902000    -17.632000     -5.788000
C          18.932000    -16.400000     -6.473000
N          17.731000    -12.880000     -8.824000
S          19.681000    -13.203000     -7.137000
C          18.622000    -11.940000     -9.077000
C          19.787000    -12.043000     -8.427000
C           7.524000    -18.570000     -0.462000
H           9.993000    -17.767000      0.374000
H          11.972000    -17.113000     -0.994000
H           9.448000    -17.528000     -4.395000
H          13.491000    -17.967000     -2.585000
H          19.700000    -18.345000     -5.625000
H          19.767000    -16.000000     -7.038000
H          18.323000    -11.163000     -9.768000
H          20.564000    -11.309000     -8.596000
H           7.249000    -17.766000      0.231000
C           7.767000    -19.848000      0.315000
H           6.651000    -18.794000     -1.089000
H           8.522000    -19.687000      1.094000
H           8.159000    -20.695000     -0.263000
C           6.504000    -20.482000      1.003000
H           5.752000    -20.867000      0.303000
C           5.783000    -19.551000      1.916000
H           6.918000    -21.325000      1.570000
H           4.871000    -20.091000      2.198000
H           5.576000    -18.599000      1.413000
C           6.524000    -19.282000      3.217000
H           6.939000    -20.179000      3.693000
C           5.588000    -18.454000      4.150000
H           7.367000    -18.623000      2.975000
H           4.738000    -19.148000      4.156000
H           5.302000    -17.509000      3.673000
H           6.041000    -18.202000      5.117000
$end

--------------------------------------------------------------

             Standard Nuclear Orientation (Angstroms)
    I     Atom           X                Y                Z
 ----------------------------------------------------------------
    1      C      -3.1171851897     3.8897222372     0.3254755711
    2      C      -2.7267065069     2.8735079375     1.1845826048
    3      N      -2.2152933535     4.4221949062    -0.5296974946
    4      C      -1.3984502088     2.3866537306     1.2069698308
    5      C      -0.9278253475     3.9985842375    -0.4719468678
    6      C      -0.4484499487     2.9465601914     0.3606830821
    7      C       0.9839073739     2.5723748561     0.4831038128
    8      C       1.5267491233     2.1500082397     1.7251095602
    9      C       1.9789260447     2.7388472734    -0.5385511088
   10      N       2.8515049807     1.8868823503     1.8953290794
   11      N       1.6830630950     3.1033407008    -1.7820287549
   12      C       3.3368556938     2.5674091577    -0.2779996922
   13      C       3.7259874364     2.1028110665     0.9198162788
   14      S       3.1358027781     3.2467995284    -2.5928974112
   15      N       4.0684002185     2.8368301141    -1.3726818181
   16      C       5.1132887302     1.7149698861     1.2728394210
   17      S       5.4680574997     0.1872605244     2.0526331287
   18      C       6.2830411417     2.3351168488     0.9284979620
   19      C       7.2095738661     0.3616293980     1.8843736819
   20      S       6.5718247331     3.8752320045     0.1744035749
   21      C       7.4258641957     1.6607298904     1.3952352517
   22      C       8.0935406055    -0.6763059011     2.1253345060
   23      C       8.3428461637     3.6459222413     0.5199670640
   24      C       8.6078367274     2.3664717987     1.0539226483
   25      N       9.3209912245    -0.3905271800     2.4014096778
   26      S       7.5198030385    -2.2792288690     2.5691477134
   27      C       9.9795803882    -1.5223828678     2.8101736873
   28      C       9.1474684920    -2.6085851035     2.9976796751
   29      C      -4.5362315507     4.4265694111     0.3414923517
   30      H      -3.4662937577     2.4300307604     1.8443201979
   31      H      -1.1962334179     1.5581649290     1.8799435859
   32      H      -0.3196676267     4.4938054820    -1.2274123572
   33      H       0.8947630478     2.0358372437     2.6051138693
   34      H       9.0097728768     4.3949373350     0.1135988213
   35      H       9.5862991890     1.8993401872     1.0470474204
   36      H      11.0377491470    -1.5875627106     3.0251445364
   37      H       9.4278545062    -3.5787514890     3.3849507267
   38      H      -4.8943944525     4.7510873588     1.3262529507
   39      C      -5.5733029057     3.4251911119    -0.1943345853
   40      H      -4.5665407065     5.2647721349    -0.3658820533
   41      H      -5.2608252529     2.4117445634     0.0867575879
   42      H      -5.4380883219     3.4648278509    -1.2818882369
   43      C      -7.0777821662     3.7208068561     0.1244999904
   44      H      -7.0618913052     3.8213482873     1.2163227329
   45      C      -7.9884722988     2.5894157224    -0.3693811543
   46      H      -7.3550292907     4.6559523643    -0.3775825830
   47      H      -7.5107071761     1.6551731087    -0.0497560204
   48      H      -8.0819154804     2.5717756913    -1.4629346286
   49      C      -9.3208429432     2.6952320994     0.2989842848
   50      H      -9.7737127037     1.7216931119     0.5222169434
   51      C     -10.3112390895     3.5033897804    -0.5995242772
   52      H      -9.2943081115     3.1589216639     1.2931743524
   53      H      -9.9113580373     4.4634186664    -0.9479115361
   54      H     -11.2927489950     3.6578110972    -0.1354926377
   55      H     -10.5594234517     2.8641744953    -1.4561381585
   56      C       3.3933481680    -2.0256361876    -1.7138155077
   57      C       2.5600986177    -3.1145693942    -2.0140648352
   58      N       2.8469627654    -0.8895149257    -1.2576505485
   59      C       1.1932915088    -3.1280629669    -1.5972312347
   60      C       1.5724847314    -0.8731953243    -1.0290495610
   61      C       0.6580255185    -1.9159174177    -1.0958925395
   62      C      -0.7936443668    -1.8121386046    -0.7193019099
   63      C      -1.4448743314    -2.9044371855    -0.0875960106
   64      C      -1.5984765512    -0.7304254563    -1.0329622674
   65      N      -2.7074389676    -2.8813005623     0.3202522898
   66      N      -1.1707546562     0.3131592628    -1.7703332151
   67      C      -2.8772075974    -0.6180789868    -0.5324573400
   68      C      -3.4200459823    -1.7901423149     0.0942635251
   69      S      -2.3579308076     1.3669556143    -1.8810040570
   70      N      -3.4508611580     0.5696914803    -0.9600224341
   71      C      -4.8649452087    -1.8022457972     0.4570537280
   72      S      -6.0796570425    -0.8825899194    -0.3775750682
   73      C      -5.4856707213    -2.7283024385     1.2857852497
   74      C      -7.3636757851    -1.6974113245     0.4294812783
   75      S      -4.7652335792    -3.8725753111     2.4532709744
   76      C      -6.8539846985    -2.7619005170     1.1919501336
   77      C      -8.7650695790    -1.6179929865     0.2401002814
   78      C      -6.4734413310    -4.3176778295     2.9379523385
   79      C      -7.4104553066    -3.5930238633     2.1732102650
   80      N      -9.3036445355    -0.4591018365    -0.2669473679
   81      S      -9.8454449918    -2.9911091587    -0.0474270132
   82      C     -10.5457617497    -0.6268279058    -0.6798672049
   83      C     -11.0736986415    -1.8399676121    -0.4800956069
   84      C       4.8556698298    -2.0841106760    -2.0986558533
   85      H       2.9903405807    -4.0608860296    -2.3279416881
   86      H       0.5801047239    -4.0192158852    -1.6918538691
   87      H       1.1494921416     0.0958365381    -0.7689543504
   88      H      -0.8413771379    -3.7719185923     0.1752806643
   89      H      -6.6436172452    -5.0259742404     3.7386385145
   90      H      -8.4832622404    -3.5654158784     2.3306049343
   91      H     -11.0151940404     0.2218229194    -1.1594879940
   92      H     -12.0914761103    -2.0410346790    -0.7879057082
   93      H       4.9729309759    -2.3482768161    -3.1563685147
   94      C       5.6528426152    -3.0484493513    -1.2438877739
   95      H       5.3376402867    -1.1114634150    -1.9340478819
   96      H       5.3578936683    -4.0835412565    -1.4545459483
   97      H       5.5208978288    -2.9509476242    -0.1584196783
   98      C       7.2154719670    -2.9620262473    -1.3894541028
   99      H       7.6541448087    -2.0273120769    -1.0185032198
  100      C       7.7009045705    -3.1215173557    -2.7891286270
  101      H       7.5763674648    -3.7893401825    -0.7658836638
  102      H       8.7739757813    -2.9009904418    -2.7366495196
  103      H       7.1603069948    -2.4484462507    -3.4650661602
  104      C       7.5960975621    -4.5473262511    -3.3088665271
  105      H       7.9423007584    -5.3112871493    -2.6018183725
  106      C       8.3017400312    -4.6139122945    -4.6980403839
  107      H       6.5335538599    -4.7405953720    -3.5015889384
  108      H       9.2814296592    -4.2340308685    -4.3817014284
  109      H       7.8351415281    -3.9166591700    -5.4040672371
  110      H       8.2710451071    -5.6084393102    -5.1603993750
 ----------------------------------------------------------------

   10   -5663.4949274475      3.49E-06 Convergence criterion met
 Total energy in the final basis set = -5663.4949274475

                    Orbital Energies (a.u.)
 --------------------------------------------------------------

 Alpha MOs
 -- Occupied --
-88.991 -88.989 -88.932 -88.930 -88.922 -88.916 -88.912 -88.905
-14.379 -14.378 -14.372 -14.370 -14.352 -14.344 -14.339 -14.337
-14.331 -14.328 -10.268 -10.266 -10.259 -10.253 -10.251 -10.250
-10.245 -10.245 -10.240 -10.239 -10.238 -10.238 -10.236 -10.232
-10.231 -10.230 -10.228 -10.228 -10.228 -10.228 -10.228 -10.228
-10.224 -10.223 -10.223 -10.223 -10.221 -10.219 -10.216 -10.215
-10.213 -10.212 -10.207 -10.205 -10.204 -10.199 -10.199 -10.198
-10.186 -10.180 -10.179 -10.176 -10.174 -10.173 -10.171 -10.170
-10.168 -10.163 -10.159 -10.158  -8.045  -8.044  -7.992  -7.989
 -7.984  -7.976  -7.970  -7.965  -6.011  -6.010  -6.005  -6.004
 -6.004  -6.002  -5.956  -5.953  -5.953  -5.950  -5.949  -5.948
 -5.946  -5.944  -5.941  -5.940  -5.936  -5.935  -5.933  -5.932
 -5.929  -5.926  -5.926  -5.921  -1.039  -1.036  -0.979  -0.971
 -0.969  -0.959  -0.952  -0.937  -0.918  -0.908  -0.898  -0.891
 -0.843  -0.838  -0.837  -0.830  -0.815  -0.815  -0.812  -0.811
 -0.805  -0.800  -0.798  -0.796  -0.789  -0.781  -0.768  -0.767
 -0.749  -0.745  -0.741  -0.737  -0.727  -0.716  -0.712  -0.704
 -0.697  -0.689  -0.678  -0.676  -0.657  -0.650  -0.647  -0.644
 -0.639  -0.632  -0.628  -0.625  -0.613  -0.608  -0.602  -0.596
 -0.594  -0.593  -0.590  -0.579  -0.576  -0.571  -0.558  -0.550
 -0.547  -0.546  -0.544  -0.536  -0.525  -0.523  -0.521  -0.512
 -0.510  -0.507  -0.503  -0.500  -0.490  -0.485  -0.480  -0.477
 -0.474  -0.472  -0.471  -0.467  -0.463  -0.460  -0.453  -0.452
 -0.445  -0.440  -0.438  -0.437  -0.434  -0.433  -0.433  -0.432
 -0.428  -0.426  -0.425  -0.422  -0.421  -0.419  -0.418  -0.415
 -0.411  -0.410  -0.408  -0.406  -0.404  -0.399  -0.398  -0.396
 -0.395  -0.394  -0.391  -0.388  -0.385  -0.383  -0.382  -0.382
 -0.380  -0.378  -0.375  -0.366  -0.364  -0.359  -0.356  -0.355
 -0.351  -0.350  -0.348  -0.346  -0.343  -0.340  -0.338  -0.337
 -0.335  -0.333  -0.328  -0.326  -0.325  -0.323  -0.321  -0.315
 -0.306  -0.303  -0.303  -0.300  -0.299  -0.298  -0.297  -0.296
 -0.295  -0.294  -0.291  -0.287  -0.286  -0.285  -0.283  -0.281
 -0.273  -0.271  -0.268  -0.264  -0.256  -0.251  -0.250  -0.249
 -0.246  -0.239  -0.233  -0.229  -0.195  -0.189

          Ground-State Mulliken Net Atomic Charges

     Atom                 Charge (a.u.)
  ----------------------------------------
      1 C                     0.263588
      2 C                    -0.089097
      3 N                    -0.478864
      4 C                    -0.118758
      5 C                     0.059875
      6 C                     0.056848
      7 C                     0.043502
      8 C                     0.060472
      9 C                     0.234803
     10 N                    -0.521300
     11 N                    -0.585224
     12 C                     0.285510
     13 C                     0.272847
     14 S                     0.613121
     15 N                    -0.557028
     16 C                    -0.210986
     17 S                     0.307809
     18 C                    -0.093297
     19 C                    -0.217003
     20 S                     0.252182
     21 C                     0.137172
     22 C                     0.068807
     23 C                    -0.307141
     24 C                    -0.060751
     25 N                    -0.431061
     26 S                     0.262897
     27 C                     0.120353
     28 C                    -0.307230
     29 C                    -0.236186
     30 H                     0.094449
     31 H                     0.106280
     32 H                     0.125456
     33 H                     0.113148
     34 H                     0.130905
     35 H                     0.124367
     36 H                     0.113457
     37 H                     0.129986
     38 H                     0.102962
     39 C                    -0.207082
     40 H                     0.117880
     41 H                     0.121663
     42 H                     0.090899
     43 C                    -0.174071
     44 H                     0.088456
     45 C                    -0.161502
     46 H                     0.091948
     47 H                     0.113393
     48 H                     0.087060
     49 C                    -0.171845
     50 H                     0.103743
     51 C                    -0.327926
     52 H                     0.081731
     53 H                     0.101148
     54 H                     0.089582
     55 H                     0.094089
     56 C                     0.277628
     57 C                    -0.124485
     58 N                    -0.493808
     59 C                    -0.084288
     60 C                     0.098131
     61 C                     0.054116
     62 C                     0.024059
     63 C                     0.054161
     64 C                     0.198116
     65 N                    -0.500043
     66 N                    -0.547382
     67 C                     0.234384
     68 C                     0.280137
     69 S                     0.661972
     70 N                    -0.584542
     71 C                    -0.237227
     72 S                     0.382311
     73 C                    -0.118941
     74 C                    -0.177130
     75 S                     0.263034
     76 C                     0.108471
     77 C                     0.008158
     78 C                    -0.307498
     79 C                    -0.069069
     80 N                    -0.422321
     81 S                     0.279806
     82 C                     0.141089
     83 C                    -0.310549
     84 C                    -0.235510
     85 H                     0.086687
     86 H                     0.102042
     87 H                     0.101575
     88 H                     0.108928
     89 H                     0.134081
     90 H                     0.109195
     91 H                     0.115765
     92 H                     0.128852
     93 H                     0.113897
     94 C                    -0.189977
     95 H                     0.124321
     96 H                     0.091209
     97 H                     0.107550
     98 C                    -0.186696
     99 H                     0.096908
    100 C                    -0.162096
    101 H                     0.089351
    102 H                     0.085377
    103 H                     0.095079
    104 C                    -0.182424
    105 H                     0.091957
    106 C                    -0.309610
    107 H                     0.086918
    108 H                     0.102864
    109 H                     0.102244
    110 H                     0.097189
  ----------------------------------------
  Sum of atomic charges =     0.000000

                    Cartesian Multipole Moments
 -----------------------------------------------------------------
    Charge (ESU x 10^10)
                 0.0000
    Dipole Moment (Debye)
         X      -0.2670      Y      -4.2025      Z      -0.8926
       Tot       4.3046
    Quadrupole Moments (Debye-Ang)
        XX    -395.1810     XY       1.1957     YY    -435.1896
        XZ      -5.4123     YZ     -10.7015     ZZ    -441.2654

 Total job time:  102.70s(wall), 1250.93s(cpu)
        *  Thank you very much for using Q-Chem.  Have a nice day.  *
