 Q-Chem 4.4, Q-Chem, Inc., Pleasanton, CA (2016)
 Q-Chem 4.4.2 for Intel X86 Linux

User input:
--------------------------------------------------------------
$comment
SP
$end

$rem
MEM_STATIC 5000
MEM_TOTAL 20000
JOBTYPE SP
EXCHANGE B3LYP
BASIS 6-31g(d,p)
$end

$molecule
0 1
C         -21.413000    -13.489000     -3.929000
C         -20.775000    -12.636000     -3.030000
N         -22.744000    -13.641000     -3.931000
C         -21.570000    -11.980000     -2.041000
C         -23.429000    -12.960000     -3.030000
C         -22.984000    -12.057000     -2.045000
C         -23.873000    -11.417000     -1.050000
C         -25.060000    -12.120000     -0.701000
C         -23.664000    -10.226000     -0.321000
N         -26.021000    -11.603000      0.095000
N         -22.519000     -9.506000     -0.427000
C         -24.604000     -9.647000      0.528000
C         -25.867000    -10.308000      0.661000
S         -22.664000     -8.139000      0.583000
N         -24.176000     -8.498000      1.114000
C         -27.091000     -9.625000      1.137000
S         -27.230000     -7.879000      1.648000
C         -28.260000    -10.261000      1.488000
C         -28.780000     -8.103000      2.431000
S         -28.732000    -11.937000      1.158000
C         -29.136000     -9.415000      2.190000
C         -29.310000     -7.063000      3.266000
C         -30.192000    -11.597000      2.035000
C         -30.252000    -10.272000      2.551000
N         -30.243000     -7.305000      4.246000
S         -28.648000     -5.446000      3.224000
C         -30.588000     -6.065000      4.763000
C         -29.928000     -4.980000      4.203000
C         -20.712000    -14.209000     -5.069000
H         -19.692000    -12.624000     -2.950000
H         -21.038000    -11.433000     -1.269000
H         -24.501000    -13.137000     -3.102000
H         -25.219000    -13.088000     -1.173000
H         -30.879000    -12.421000      2.179000
H         -31.043000     -9.807000      3.128000
H         -31.379000     -6.032000      5.500000
H         -30.054000     -3.924000      4.402000
H         -19.619000    -14.115000     -5.058000
C         -21.247000    -13.733000     -6.464000
H         -20.889000    -15.289000     -4.996000
H         -21.144000    -12.645000     -6.558000
H         -22.334000    -13.798000     -6.592000
C         -20.512000    -14.331000     -7.617000
H         -19.425000    -14.231000     -7.507000
C         -20.992000    -13.647000     -8.908000
H         -20.810000    -15.386000     -7.610000
H         -20.622000    -12.614000     -8.945000
H         -22.080000    -13.540000     -9.001000
C         -20.408000    -14.307000    -10.238000
H         -20.550000    -15.385000    -10.091000
C         -18.913000    -14.041000    -10.467000
H         -20.987000    -13.984000    -11.112000
H         -18.335000    -14.363000     -9.593000
H         -18.713000    -12.993000    -10.721000
H         -18.613000    -14.622000    -11.348000
C         -30.857000     -3.982000      0.123000
C         -30.139000     -5.066000     -0.467000
N         -30.340000     -2.921000      0.666000
C         -28.730000     -4.908000     -0.486000
C         -28.985000     -2.789000      0.539000
C         -28.067000     -3.696000     -0.086000
C         -26.641000     -3.489000     -0.393000
C         -25.692000     -4.559000     -0.413000
C         -26.175000     -2.238000     -0.779000
N         -24.380000     -4.372000     -0.723000
N         -26.887000     -1.175000     -0.706000
C         -24.858000     -2.023000     -1.115000
C         -23.952000     -3.154000     -1.033000
S         -25.878000      0.006000     -1.306000
N         -24.486000     -0.818000     -1.422000
C         -22.529000     -3.006000     -1.393000
S         -21.635000     -1.450000     -1.622000
C         -21.577000     -4.025000     -1.367000
C         -20.075000     -2.302000     -1.642000
S         -21.744000     -5.739000     -1.373000
C         -20.237000     -3.650000     -1.491000
C         -18.767000     -1.671000     -1.684000
C         -20.007000     -5.903000     -1.277000
C         -19.310000     -4.735000     -1.291000
N         -18.698000     -0.307000     -1.629000
S         -17.282000     -2.381000     -2.340000
C         -17.396000      0.151000     -1.716000
C         -16.527000     -0.807000     -2.054000
C         -32.391000     -3.942000      0.022000
H         -30.530000     -5.983000     -0.897000
H         -28.174000     -5.622000     -1.087000
H         -28.602000     -1.839000      0.908000
H         -26.011000     -5.595000     -0.305000
H         -19.596000     -6.846000     -0.939000
H         -18.233000     -4.794000     -1.184000
H         -17.076000      1.162000     -1.498000
H         -15.507000     -0.691000     -2.396000
H         -32.658000     -2.880000      0.090000
C         -33.026000     -4.593000      1.276000
H         -32.619000     -4.420000     -0.939000
H         -34.067000     -4.249000      1.259000
H         -32.546000     -4.128000      2.146000
C         -32.951000     -6.163000      1.210000
H         -33.513000     -6.459000      0.315000
C         -33.551000     -6.714000      2.535000
H         -31.912000     -6.478000      1.055000
H         -34.451000     -6.112000      2.711000
H         -32.911000     -6.462000      3.390000
C         -34.080000     -8.182000      2.541000
H         -34.866000     -8.261000      1.780000
C         -34.618000     -8.562000      3.897000
H         -33.285000     -8.896000      2.294000
H         -33.984000     -8.256000      4.738000
H         -34.821000     -9.638000      3.968000
H         -35.586000     -8.061000      4.024000
$end

--------------------------------------------------------------

             Standard Nuclear Orientation (Angstroms)
    I     Atom           X                Y                Z
 ----------------------------------------------------------------
    1      C      -6.3103010925    -5.1871773245    -0.4485026812
    2      C      -6.1679072112    -4.1111824606    -1.3230385783
    3      N      -5.2519936912    -5.7607322364     0.1394507245
    4      C      -4.8469593589    -3.6775063511    -1.6509163051
    5      C      -4.0606848054    -5.2742910860    -0.1587860035
    6      C      -3.7031153227    -4.2072477581    -1.0056753713
    7      C      -2.3055558064    -3.8186025902    -1.2984693806
    8      C      -1.3196492685    -4.8401996379    -1.2019977749
    9      C      -1.8149453344    -2.5745421436    -1.7514792811
   10      N       0.0053492033    -4.6052634941    -1.3186599280
   11      N      -2.6375707230    -1.5329067875    -2.0324494842
   12      C      -0.4650271354    -2.2704866343    -1.9093181328
   13      C       0.4829436415    -3.2926169070    -1.5831584914
   14      S      -1.6686451948    -0.2168179600    -2.5212311521
   15      N      -0.2382831503    -1.0056465684    -2.3515259720
   16      C       1.9008044527    -3.0091334631    -1.2660640935
   17      S       2.7009795426    -1.3695450269    -1.2453859565
   18      C       2.8891720282    -3.9615486825    -1.1646107271
   19      C       4.3245801494    -2.0250457496    -1.2431786358
   20      S       2.7019925507    -5.7193845684    -1.0395633697
   21      C       4.1758263147    -3.3954978630    -1.1664042815
   22      C       5.4415262298    -1.1545439129    -1.4763802776
   23      C       4.4365352756    -5.8068159944    -1.0327603264
   24      C       5.0720324483    -4.5386079400    -1.1479674190
   25      N       6.6535756781    -1.6134675375    -1.9343958252
   26      S       5.2672107758     0.5821086532    -1.3850074847
   27      C       7.5036845035    -0.5174641172    -1.9367383862
   28      C       6.9363699658     0.6790950603    -1.5210157022
   29      C      -7.6467662366    -5.7225265445     0.0379776693
   30      H      -7.0159540524    -3.7442123991    -1.8936369740
   31      H      -4.7566298165    -2.9336817411    -2.4362713352
   32      H      -3.2576419778    -5.7928261449     0.3626932480
   33      H      -1.6655782421    -5.8391040076    -0.9419743039
   34      H       4.8761865356    -6.7958835082    -1.0212181078
   35      H       6.1321360581    -4.3136513989    -1.1682131855
   36      H       8.5409598091    -0.6885847755    -2.1911330811
   37      H       7.3984427849     1.6492348138    -1.3947993461
   38      H      -8.5185178660    -5.2799369494    -0.4597868803
   39      C      -7.8056995563    -5.5470327583     1.5880641607
   40      H      -7.7256811157    -6.7935363076    -0.1851109436
   41      H      -7.6746608406    -4.4938977718     1.8654169241
   42      H      -6.9918264619    -5.9687763498     2.1896628054
   43      C      -9.1472221207    -5.9572166524     2.0972835458
   44      H      -9.9618277248    -5.5037475689     1.5189648621
   45      C      -9.2476614708    -5.5601652044     3.5795787542
   46      H      -9.1542450603    -7.0484958543     1.9926968270
   47      H      -9.3206559294    -4.4685544378     3.6713161137
   48      H      -8.3732794183    -5.8173997704     4.1904211268
   49      C     -10.5705980609    -6.0904282446     4.2966672333
   50      H     -10.6399208484    -7.1428950007     3.9944006647
   51      C     -11.8547220862    -5.3730182021     3.8555659769
   52      H     -10.4633566812    -6.0358622830     5.3870652534
   53      H     -11.9608971595    -5.4269635974     2.7658592511
   54      H     -11.8952985764    -4.3378573767     4.2155876622
   55      H     -12.6944197853    -5.8880265022     4.3386769631
   56      C       5.8522744103     1.0257931519     2.6274758622
   57      C       4.6954001888     0.1922152179     2.5535173358
   58      N       5.9623176776     2.2332382263     2.1607576693
   59      C       3.5635427570     0.7951118322     1.9485211154
   60      C       4.8132632888     2.7863494113     1.6674828690
   61      C       3.5166836794     2.1818719264     1.5700852980
   62      C       2.2350860238     2.8156799255     1.2146013050
   63      C       1.1835425733     2.1111390848     0.5484334767
   64      C       1.9570331736     4.1187850718     1.6092613997
   65      N      -0.0105555150     2.6890301052     0.2441560967
   66      N       2.8388507772     4.8971146574     2.1180273283
   67      C       0.7522847835     4.7228332482     1.3312018430
   68      C      -0.2263620807     3.9542135222     0.5840773339
   69      S       1.9868916208     6.2941144392     2.4268949460
   70      N       0.5809830346     5.9578756521     1.6917347422
   71      C      -1.5469763198     4.5275479206     0.2620545099
   72      S      -2.0230311827     6.2680705557     0.3915370349
   73      C      -2.5650330272     3.8754257574    -0.4333865191
   74      C      -3.5248911572     5.9666222532    -0.5103773391
   75      S      -2.8465506076     2.2036828296    -0.7362799578
   76      C      -3.6412198305     4.6532069936    -0.8675285616
   77      C      -4.4705579300     6.9815591160    -0.9421255519
   78      C      -4.2677504531     2.6170080042    -1.6650610401
   79      C      -4.5655106204     3.9433072023    -1.7150442380
   80      N      -4.1681532730     8.2949189805    -0.7142675049
   81      S      -6.2022028018     6.7439031811    -1.2329634701
   82      C      -5.1739325231     9.1414190081    -1.1436656924
   83      C      -6.2954144452     8.4937329966    -1.4752529795
   84      C       7.0736241557     0.5606773364     3.4379874769
   85      H       4.5744554911    -0.8304765342     2.8972380948
   86      H       2.6242526963     0.2575428923     2.0427910299
   87      H       4.9175368057     3.8331868145     1.3871108215
   88      H       1.2502000754     1.0383052002     0.3715006262
   89      H      -4.6618563039     1.8843828161    -2.3581374516
   90      H      -5.4120069614     4.2432938044    -2.3219305398
   91      H      -5.0803708957    10.2145500143    -1.2517446702
   92      H      -7.2826539111     8.9079833040    -1.6320168774
   93      H       7.5861303013     1.4814594677     3.7433638305
   94      C       8.0814293702    -0.1681108255     2.5145490845
   95      H       6.6527809385    -0.0334918923     4.2588668311
   96      H       9.0135794814    -0.1810311839     3.0918143914
   97      H       8.2449208825     0.4886223481     1.6511273659
   98      C       7.6047906152    -1.6301316315     2.1825977929
   99      H       7.5370357672    -2.1556907657     3.1436814923
  100      C       8.6444345104    -2.2481191594     1.2046110924
  101      H       6.5931573988    -1.6029252812     1.7599524925
  102      H       9.6220052839    -1.9580853830     1.6091055810
  103      H       8.6167648724    -1.7417725702     0.2314839051
  104      C       8.7269181822    -3.8038092395     1.1155840255
  105      H       8.9650065574    -4.1872808035     2.1152947262
  106      C       9.7728905791    -4.2381682970     0.1206699819
  107      H       7.7722489361    -4.2385806076     0.7955676382
  108      H       9.7560917769    -3.6838166599    -0.8255250628
  109      H       9.7153350938    -5.3139474785    -0.0876867288
  110      H      10.7568364245    -4.0689492040     0.5760483651
 ----------------------------------------------------------------

   10   -5663.4982962886      4.33E-06 Convergence criterion met
 Total energy in the final basis set = -5663.4982962886

                    Orbital Energies (a.u.)
 --------------------------------------------------------------

 Alpha MOs
 -- Occupied --
-88.988 -88.984 -88.931 -88.928 -88.928 -88.925 -88.914 -88.914
-14.395 -14.383 -14.382 -14.375 -14.356 -14.353 -14.351 -14.347
-14.332 -14.325 -10.277 -10.273 -10.272 -10.266 -10.256 -10.254
-10.252 -10.249 -10.248 -10.248 -10.246 -10.245 -10.245 -10.242
-10.234 -10.232 -10.232 -10.232 -10.230 -10.228 -10.228 -10.227
-10.227 -10.227 -10.226 -10.225 -10.224 -10.222 -10.219 -10.216
-10.215 -10.214 -10.213 -10.211 -10.209 -10.204 -10.202 -10.197
-10.186 -10.180 -10.178 -10.178 -10.176 -10.175 -10.174 -10.173
-10.172 -10.171 -10.171 -10.166  -8.042  -8.041  -7.992  -7.991
 -7.985  -7.984  -7.975  -7.974  -6.007  -6.006  -6.001  -6.000
 -5.999  -5.998  -5.956  -5.954  -5.952  -5.951  -5.950  -5.949
 -5.949  -5.948  -5.946  -5.945  -5.942  -5.941  -5.940  -5.938
 -5.936  -5.934  -5.932  -5.930  -1.063  -1.018  -0.962  -0.962
 -0.959  -0.946  -0.946  -0.939  -0.936  -0.919  -0.911  -0.888
 -0.851  -0.845  -0.835  -0.825  -0.818  -0.810  -0.809  -0.804
 -0.801  -0.798  -0.797  -0.792  -0.780  -0.778  -0.768  -0.763
 -0.753  -0.750  -0.743  -0.740  -0.731  -0.723  -0.713  -0.706
 -0.697  -0.690  -0.680  -0.674  -0.657  -0.651  -0.648  -0.642
 -0.635  -0.634  -0.626  -0.618  -0.615  -0.607  -0.599  -0.596
 -0.594  -0.592  -0.585  -0.584  -0.580  -0.570  -0.569  -0.564
 -0.553  -0.548  -0.547  -0.534  -0.532  -0.522  -0.519  -0.517
 -0.506  -0.505  -0.502  -0.494  -0.491  -0.486  -0.483  -0.476
 -0.473  -0.471  -0.467  -0.464  -0.461  -0.458  -0.455  -0.449
 -0.445  -0.442  -0.440  -0.439  -0.437  -0.434  -0.430  -0.427
 -0.427  -0.426  -0.426  -0.423  -0.423  -0.418  -0.416  -0.414
 -0.411  -0.407  -0.405  -0.403  -0.401  -0.399  -0.398  -0.397
 -0.394  -0.390  -0.390  -0.388  -0.387  -0.384  -0.381  -0.380
 -0.379  -0.377  -0.373  -0.369  -0.367  -0.363  -0.361  -0.360
 -0.358  -0.355  -0.353  -0.346  -0.345  -0.344  -0.343  -0.342
 -0.341  -0.338  -0.336  -0.334  -0.328  -0.325  -0.322  -0.317
 -0.316  -0.312  -0.310  -0.308  -0.303  -0.300  -0.299  -0.297
 -0.296  -0.295  -0.294  -0.292  -0.287  -0.285  -0.280  -0.279
 -0.273  -0.272  -0.266  -0.265  -0.260  -0.257  -0.256  -0.254
 -0.250  -0.244  -0.235  -0.226  -0.198  -0.191

          Ground-State Mulliken Net Atomic Charges

     Atom                 Charge (a.u.)
  ----------------------------------------
      1 C                     0.262064
      2 C                    -0.119364
      3 N                    -0.470913
      4 C                    -0.086398
      5 C                     0.054748
      6 C                     0.069481
      7 C                     0.046988
      8 C                     0.073532
      9 C                     0.238785
     10 N                    -0.521800
     11 N                    -0.602418
     12 C                     0.212909
     13 C                     0.275323
     14 S                     0.625329
     15 N                    -0.570906
     16 C                    -0.226506
     17 S                     0.302554
     18 C                    -0.117959
     19 C                    -0.229755
     20 S                     0.316460
     21 C                     0.171504
     22 C                     0.054140
     23 C                    -0.311111
     24 C                    -0.091493
     25 N                    -0.432274
     26 S                     0.309817
     27 C                     0.107855
     28 C                    -0.298612
     29 C                    -0.224569
     30 H                     0.090447
     31 H                     0.111510
     32 H                     0.086982
     33 H                     0.122263
     34 H                     0.133542
     35 H                     0.121941
     36 H                     0.115801
     37 H                     0.142838
     38 H                     0.089404
     39 C                    -0.174547
     40 H                     0.113957
     41 H                     0.087718
     42 H                     0.118472
     43 C                    -0.163588
     44 H                     0.092299
     45 C                    -0.185877
     46 H                     0.094151
     47 H                     0.090003
     48 H                     0.091401
     49 C                    -0.181891
     50 H                     0.091889
     51 C                    -0.314571
     52 H                     0.087903
     53 H                     0.103974
     54 H                     0.102084
     55 H                     0.100937
     56 C                     0.277363
     57 C                    -0.110404
     58 N                    -0.469030
     59 C                    -0.100775
     60 C                     0.061435
     61 C                     0.049210
     62 C                     0.012769
     63 C                     0.052866
     64 C                     0.282102
     65 N                    -0.542226
     66 N                    -0.555190
     67 C                     0.217784
     68 C                     0.329114
     69 S                     0.570525
     70 N                    -0.549591
     71 C                    -0.235490
     72 S                     0.362921
     73 C                    -0.118231
     74 C                    -0.238446
     75 S                     0.293192
     76 C                     0.137470
     77 C                     0.046238
     78 C                    -0.311691
     79 C                    -0.065294
     80 N                    -0.444075
     81 S                     0.264032
     82 C                     0.141298
     83 C                    -0.301126
     84 C                    -0.231668
     85 H                     0.108366
     86 H                     0.096679
     87 H                     0.109773
     88 H                     0.126166
     89 H                     0.130278
     90 H                     0.128275
     91 H                     0.124659
     92 H                     0.131129
     93 H                     0.112708
     94 C                    -0.184095
     95 H                     0.093912
     96 H                     0.094274
     97 H                     0.108274
     98 C                    -0.180274
     99 H                     0.088405
    100 C                    -0.173543
    101 H                     0.099371
    102 H                     0.085588
    103 H                     0.099329
    104 C                    -0.180402
    105 H                     0.090970
    106 C                    -0.315519
    107 H                     0.094976
    108 H                     0.105800
    109 H                     0.095503
    110 H                     0.097863
  ----------------------------------------
  Sum of atomic charges =     0.000000

                    Cartesian Multipole Moments
 -----------------------------------------------------------------
    Charge (ESU x 10^10)
                 0.0000
    Dipole Moment (Debye)
         X      -2.4350      Y       2.6491      Z      -0.9635
       Tot       3.7249
    Quadrupole Moments (Debye-Ang)
        XX    -410.2085     XY     -21.7152     YY    -437.4698
        XZ      17.2762     YZ     -10.7491     ZZ    -444.7234

 Total job time:  94.81s(wall), 1137.80s(cpu)
        *  Thank you very much for using Q-Chem.  Have a nice day.  *
