 Q-Chem 4.4, Q-Chem, Inc., Pleasanton, CA (2016)
 Q-Chem 4.4.2 for Intel X86 Linux

User input:
--------------------------------------------------------------
$comment
SP
$end

$rem
MEM_STATIC 5000
MEM_TOTAL 20000
JOBTYPE SP
EXCHANGE B3LYP
BASIS 6-31g(d,p)
$end

$molecule
0 1
C         -12.095000     -4.437000     -3.492000
C         -11.539000     -5.317000     -2.550000
N         -12.951000     -3.505000     -3.078000
C         -11.915000     -5.250000     -1.193000
C         -13.397000     -3.483000     -1.767000
C         -12.782000     -4.221000     -0.784000
C         -13.180000     -4.100000      0.607000
C         -12.199000     -3.988000      1.580000
C         -14.534000     -3.953000      1.103000
N         -12.511000     -3.803000      2.876000
N         -15.613000     -3.950000      0.244000
C         -14.773000     -3.814000      2.438000
C         -13.720000     -3.782000      3.348000
S         -16.861000     -3.938000      1.267000
N         -16.118000     -3.765000      2.710000
C         -13.892000     -3.776000      4.828000
S         -15.291000     -3.107000      5.734000
C         -13.054000     -4.383000      5.650000
C         -14.621000     -3.732000      7.237000
S         -11.552000     -5.205000      5.211000
C         -13.460000     -4.401000      7.001000
C         -15.124000     -3.426000      8.554000
C         -11.323000     -5.360000      6.977000
C         -12.364000     -4.908000      7.811000
N         -14.808000     -4.248000      9.544000
S         -16.227000     -2.128000      8.961000
C         -15.243000     -3.748000     10.767000
C         -15.920000     -2.582000     10.587000
C         -11.633000     -4.452000     -5.045000
H         -10.975000     -6.163000     -2.930000
H         -11.424000     -5.863000     -0.443000
H         -14.249000     -2.868000     -1.481000
H         -11.184000     -4.143000      1.218000
H         -10.373000     -5.799000      7.249000
H         -12.297000     -4.807000      8.888000
H         -14.967000     -4.184000     11.718000
H         -16.497000     -2.009000     11.301000
H         -11.959000     -5.371000     -5.549000
C         -10.131000     -4.369000     -5.288000
H         -12.154000     -3.659000     -5.595000
H          -9.597000     -5.207000     -4.823000
H          -9.689000     -3.503000     -4.780000
C          -9.762000     -4.347000     -6.775000
H         -10.448000     -3.653000     -7.274000
C          -9.581000     -5.688000     -7.469000
H          -8.793000     -3.838000     -6.849000
H         -10.514000     -6.263000     -7.435000
H          -8.970000     -6.310000     -6.803000
C          -9.036000     -5.695000     -8.906000
H          -9.560000     -5.003000     -9.576000
C          -9.203000     -7.083000     -9.464000
H          -8.028000     -5.301000     -8.730000
H         -10.233000     -7.427000     -9.308000
H          -8.556000     -7.839000     -9.002000
H          -8.993000     -7.196000    -10.535000
C         -30.857000     -3.982000      0.123000
C         -30.139000     -5.066000     -0.467000
N         -30.340000     -2.921000      0.666000
C         -28.730000     -4.908000     -0.486000
C         -28.985000     -2.789000      0.539000
C         -28.067000     -3.696000     -0.086000
C         -26.641000     -3.489000     -0.393000
C         -25.692000     -4.559000     -0.413000
C         -26.175000     -2.238000     -0.779000
N         -24.380000     -4.372000     -0.723000
N         -26.887000     -1.175000     -0.706000
C         -24.858000     -2.023000     -1.115000
C         -23.952000     -3.154000     -1.033000
S         -25.878000      0.006000     -1.306000
N         -24.486000     -0.818000     -1.422000
C         -22.529000     -3.006000     -1.393000
S         -21.635000     -1.450000     -1.622000
C         -21.577000     -4.025000     -1.367000
C         -20.075000     -2.302000     -1.642000
S         -21.744000     -5.739000     -1.373000
C         -20.237000     -3.650000     -1.491000
C         -18.767000     -1.671000     -1.684000
C         -20.007000     -5.903000     -1.277000
C         -19.310000     -4.735000     -1.291000
N         -18.698000     -0.307000     -1.629000
S         -17.282000     -2.381000     -2.340000
C         -17.396000      0.151000     -1.716000
C         -16.527000     -0.807000     -2.054000
C         -32.391000     -3.942000      0.022000
H         -30.530000     -5.983000     -0.897000
H         -28.174000     -5.622000     -1.087000
H         -28.602000     -1.839000      0.908000
H         -26.011000     -5.595000     -0.305000
H         -19.596000     -6.846000     -0.939000
H         -18.233000     -4.794000     -1.184000
H         -17.076000      1.162000     -1.498000
H         -15.507000     -0.691000     -2.396000
H         -32.658000     -2.880000      0.090000
C         -33.026000     -4.593000      1.276000
H         -32.619000     -4.420000     -0.939000
H         -34.067000     -4.249000      1.259000
H         -32.546000     -4.128000      2.146000
C         -32.951000     -6.163000      1.210000
H         -33.513000     -6.459000      0.315000
C         -33.551000     -6.714000      2.535000
H         -31.912000     -6.478000      1.055000
H         -34.451000     -6.112000      2.711000
H         -32.911000     -6.462000      3.390000
C         -34.080000     -8.182000      2.541000
H         -34.866000     -8.261000      1.780000
C         -34.618000     -8.562000      3.897000
H         -33.285000     -8.896000      2.294000
H         -33.984000     -8.256000      4.738000
H         -34.821000     -9.638000      3.968000
H         -35.586000     -8.061000      4.024000
$end

--------------------------------------------------------------

             Standard Nuclear Orientation (Angstroms)
    I     Atom           X                Y                Z
 ----------------------------------------------------------------
    1      C       7.1715391823    -4.0425982229     0.6223567169
    2      C       7.7042863478    -3.0975142490     1.5133655497
    3      N       6.3141228240    -3.6370729615    -0.3120642005
    4      C       7.3037109940    -1.7471872379     1.4544558831
    5      C       5.8441180489    -2.3343836953    -0.3268014692
    6      C       6.4360211290    -1.3460948769     0.4229277854
    7      C       6.0131733229     0.0382477840     0.3101397981
    8      C       6.9767287039     1.0300225533     0.2122733853
    9      C       4.6512225780     0.5103546391     0.1580007635
   10      N       6.6420374094     2.3214768769     0.0353200938
   11      N       3.5883279625    -0.3683379964     0.1411102703
   12      C       4.3884966576     1.8417821170     0.0278356315
   13      C       5.4246815599     2.7712626462     0.0099528437
   14      S       2.3217357590     0.6315466138     0.1287832158
   15      N       3.0390463432     2.0893231831    -0.0279968839
   16      C       5.2253959552     4.2478417456     0.0143586341
   17      S       3.8142758559     5.1331741295    -0.6568526854
   18      C       6.0440857434     5.0803119199     0.6333234470
   19      C       4.4522923902     6.6432677610    -0.0156927006
   20      S       7.5485567875     4.6625713966     1.4618575335
   21      C       5.6130732863     6.4234134040     0.6591626713
   22      C       3.9270379162     7.9531562183    -0.3147478239
   23      C       7.7438585423     6.4312084594     1.6321577535
   24      C       6.6905868359     7.2494343794     1.1797574259
   25      N       4.2193217754     8.9422663056     0.5170402387
   26      S       2.8251828906     8.3500309545    -1.6168491818
   27      C       3.7650557364    10.1609648554     0.0237145750
   28      C       3.0991095694     9.9777640039    -1.1481378690
   29      C       7.6620598482    -5.5868883539     0.6283121679
   30      H       8.2696905979    -3.4737471632     2.3601115732
   31      H       7.7767592634    -0.9931464240     2.0765473440
   32      H       4.9910017395    -2.0592715897    -0.9452114400
   33      H       7.9972154625     0.6855764773     0.3712000231
   34      H       8.6857880631     6.7171855024     2.0795847404
   35      H       6.7383236848     8.3282531362     1.0876146932
   36      H       4.0205829849    11.1134050460     0.4689521619
   37      H       2.5127552447    10.6855261473    -1.7193780586
   38      H       7.3394515954    -6.1040804182     1.5411589699
   39      C       9.1688039218    -5.8014949761     0.5534236227
   40      H       7.1564930515    -6.1400956809    -0.1724086745
   41      H       9.6886462673    -5.3333875923     1.3985652754
   42      H       9.6069706572    -5.2785855710    -0.3056221654
   43      C       9.5653635001    -7.2812194005     0.5222767349
   44      H       8.8932406795    -7.7872631724    -0.1801502115
   45      C       9.7504206676    -7.9823725403     1.8589951493
   46      H      10.5388613919    -7.3333082754     0.0191797226
   47      H       8.8132252684    -7.9701351597     2.4280162652
   48      H      10.3449399877    -7.3101741763     2.4902297631
   49      C      10.3218332554    -9.4090926639     1.8584091702
   50      H       9.8148272140   -10.0831316942     1.1577264606
   51      C      10.1561371103    -9.9810604536     3.2408688025
   52      H      11.3289531912    -9.2114245096     1.4725170406
   53      H       9.1212101456    -9.8468046582     3.5792082166
   54      H      10.7895474352    -9.5132195597     4.0047439613
   55      H      10.3851579633   -11.0488695565     3.3469026111
   56      C     -11.6507156503    -0.7705619793     0.0706359197
   57      C     -10.9290097127    -1.3558003877     1.1547560906
   58      N     -11.1369398687    -0.2097314942    -0.9826269218
   59      C      -9.5188997794    -1.3475719106     1.0060003576
   60      C      -9.7789925776    -0.3106827488    -1.1065865879
   61      C      -8.8555249280    -0.9258245173    -0.1983982238
   62      C      -7.4227753578    -1.2048363037    -0.3982859221
   63      C      -6.4805590069    -1.2158204437     0.6778222029
   64      C      -6.9415794050    -1.5722528689    -1.6491290468
   65      N      -5.1618623839    -1.5000915306     0.4971507733
   66      N      -7.6478665883    -1.5039662308    -2.7162454180
   67      C      -5.6172207133    -1.8822046175    -1.8579686251
   68      C      -4.7202789836    -1.7924854256    -0.7203540155
   69      S      -6.6202752092    -2.0758853662    -3.8951459482
   70      N      -5.2317667060    -2.1727344148    -3.0628236559
   71      C      -3.2899335198    -2.1250094968    -0.8616784520
   72      S      -2.3817348416    -2.3251507469    -2.4134296050
   73      C      -2.3452357878    -2.0895433536     0.1638113568
   74      C      -0.8272155851    -2.3231442942    -1.5512406146
   75      S      -2.5232595204    -2.1122062694     1.8765620517
   76      C      -1.0007579237    -2.1858456025    -0.2032120074
   77      C       0.4854205011    -2.3360237624    -2.1738236408
   78      C      -0.7894361938    -1.9855071661     2.0528714657
   79      C      -0.0847017622    -1.9773984582     0.8894658487
   80      N       0.5622770433    -2.2689513866    -3.5368630270
   81      S       1.9776357268    -2.9701462087    -1.4590905133
   82      C       1.8686190089    -2.3283036551    -3.9868463346
   83      C       2.7374586233    -2.6578106719    -3.0257470419
   84      C     -13.1822934068    -0.8995010190     0.0196329782
   85      H     -11.3179603364    -1.8001896509     2.0657476356
   86      H      -8.9565488367    -1.9438615170     1.7189751977
   87      H      -9.3966978397     0.0728329002    -2.0511057674
   88      H      -6.8082436527    -1.1219340710     1.7124859754
   89      H      -0.3909067078    -1.6474737580     3.0011971818
   90      H       0.9897290836    -1.8510351698     0.9564709011
   91      H       2.1911144920    -2.0964353854    -4.9939604139
   92      H       3.7643402891    -2.9800205637    -3.1376167431
   93      H     -13.4435801595    -0.8280185558    -1.0435586745
   94      C     -13.8445928341     0.3373814164     0.6761566332
   95      H     -13.3955997417    -1.8682991038     0.4885889232
   96      H     -14.8828374642     0.3039226158     0.3251087778
   97      H     -13.3777374694     1.2197399288     0.2211681453
   98      C     -13.7786157937     0.2603327952     2.2460583945
   99      H     -14.3258922472    -0.6471926453     2.5313145219
  100      C     -14.4065828753     1.5696387329     2.8033745580
  101      H     -12.7390024319     0.1220192219     2.5667520388
  102      H     -15.3057413145     1.7337851509     2.1967856901
  103      H     -13.7808686667     2.4382612508     2.5623234212
  104      C     -14.9451561999     1.5542504925     4.2678208616
  105      H     -15.7174528533     0.7782890737     4.3356423602
  106      C     -15.5105941585     2.8970484519     4.6548009066
  107      H     -14.1503948404     1.3162951365     4.9851503744
  108      H     -14.8902681977     3.7519912133     4.3596033844
  109      H     -15.7218777433     2.9557634625     5.7299463825
  110      H     -16.4774917885     3.0101507188     4.1483713950
 ----------------------------------------------------------------

   10   -5663.4958064264      3.30E-06 Convergence criterion met
 Total energy in the final basis set = -5663.4958064264

                    Orbital Energies (a.u.)
 --------------------------------------------------------------

 Alpha MOs
 -- Occupied --
-88.994 -88.980 -88.925 -88.925 -88.923 -88.921 -88.910 -88.907
-14.391 -14.391 -14.390 -14.379 -14.349 -14.348 -14.342 -14.339
-14.335 -14.328 -10.271 -10.266 -10.265 -10.262 -10.261 -10.254
-10.250 -10.244 -10.243 -10.241 -10.241 -10.241 -10.241 -10.235
-10.234 -10.230 -10.230 -10.229 -10.226 -10.225 -10.225 -10.225
-10.224 -10.224 -10.224 -10.223 -10.223 -10.222 -10.219 -10.216
-10.213 -10.212 -10.211 -10.208 -10.207 -10.205 -10.202 -10.202
-10.196 -10.186 -10.184 -10.181 -10.181 -10.180 -10.179 -10.177
-10.177 -10.176 -10.176 -10.169  -8.049  -8.037  -7.987  -7.985
 -7.981  -7.980  -7.970  -7.966  -6.014  -6.009  -6.008  -6.002
 -5.997  -5.994  -5.950  -5.949  -5.947  -5.946  -5.945  -5.945
 -5.944  -5.942  -5.942  -5.941  -5.938  -5.937  -5.935  -5.931
 -5.931  -5.928  -5.927  -5.922  -1.060  -1.044  -0.975  -0.966
 -0.958  -0.954  -0.943  -0.938  -0.932  -0.914  -0.912  -0.904
 -0.846  -0.844  -0.835  -0.832  -0.813  -0.812  -0.808  -0.806
 -0.800  -0.799  -0.796  -0.792  -0.786  -0.778  -0.773  -0.766
 -0.758  -0.748  -0.742  -0.741  -0.726  -0.723  -0.712  -0.711
 -0.697  -0.695  -0.677  -0.675  -0.659  -0.655  -0.650  -0.645
 -0.641  -0.634  -0.634  -0.623  -0.615  -0.612  -0.598  -0.597
 -0.591  -0.589  -0.589  -0.581  -0.580  -0.574  -0.573  -0.569
 -0.552  -0.548  -0.544  -0.543  -0.529  -0.526  -0.515  -0.513
 -0.512  -0.504  -0.502  -0.501  -0.490  -0.488  -0.483  -0.479
 -0.476  -0.474  -0.472  -0.470  -0.467  -0.462  -0.455  -0.452
 -0.449  -0.439  -0.438  -0.438  -0.436  -0.433  -0.429  -0.428
 -0.426  -0.424  -0.424  -0.423  -0.421  -0.420  -0.417  -0.415
 -0.412  -0.410  -0.409  -0.406  -0.403  -0.400  -0.397  -0.395
 -0.395  -0.393  -0.392  -0.389  -0.388  -0.386  -0.385  -0.384
 -0.382  -0.379  -0.374  -0.373  -0.367  -0.366  -0.362  -0.360
 -0.358  -0.357  -0.353  -0.350  -0.348  -0.347  -0.343  -0.342
 -0.342  -0.339  -0.337  -0.334  -0.332  -0.330  -0.327  -0.325
 -0.319  -0.314  -0.313  -0.312  -0.310  -0.305  -0.305  -0.302
 -0.299  -0.294  -0.292  -0.288  -0.287  -0.285  -0.276  -0.276
 -0.272  -0.270  -0.267  -0.263  -0.256  -0.253  -0.251  -0.248
 -0.246  -0.246  -0.238  -0.232  -0.196  -0.194

          Ground-State Mulliken Net Atomic Charges

     Atom                 Charge (a.u.)
  ----------------------------------------
      1 C                     0.271263
      2 C                    -0.111927
      3 N                    -0.499815
      4 C                    -0.084028
      5 C                     0.075096
      6 C                     0.044712
      7 C                     0.017040
      8 C                     0.069240
      9 C                     0.208987
     10 N                    -0.532567
     11 N                    -0.554488
     12 C                     0.201413
     13 C                     0.300472
     14 S                     0.631967
     15 N                    -0.556518
     16 C                    -0.195388
     17 S                     0.299976
     18 C                    -0.092704
     19 C                    -0.231651
     20 S                     0.268942
     21 C                     0.165609
     22 C                     0.056205
     23 C                    -0.300202
     24 C                    -0.055165
     25 N                    -0.438107
     26 S                     0.272954
     27 C                     0.119650
     28 C                    -0.300001
     29 C                    -0.220048
     30 H                     0.089886
     31 H                     0.102455
     32 H                     0.118670
     33 H                     0.114262
     34 H                     0.122232
     35 H                     0.119994
     36 H                     0.121113
     37 H                     0.124100
     38 H                     0.111076
     39 C                    -0.183035
     40 H                     0.118740
     41 H                     0.088624
     42 H                     0.100564
     43 C                    -0.182840
     44 H                     0.092182
     45 C                    -0.173102
     46 H                     0.087371
     47 H                     0.083605
     48 H                     0.089822
     49 C                    -0.166217
     50 H                     0.099415
     51 C                    -0.321126
     52 H                     0.098134
     53 H                     0.106463
     54 H                     0.103201
     55 H                     0.097934
     56 C                     0.274629
     57 C                    -0.111674
     58 N                    -0.466161
     59 C                    -0.103616
     60 C                     0.067836
     61 C                     0.045591
     62 C                     0.015913
     63 C                     0.055916
     64 C                     0.281006
     65 N                    -0.536917
     66 N                    -0.555517
     67 C                     0.218121
     68 C                     0.327667
     69 S                     0.568930
     70 N                    -0.549413
     71 C                    -0.235201
     72 S                     0.360348
     73 C                    -0.112784
     74 C                    -0.237263
     75 S                     0.285963
     76 C                     0.136322
     77 C                     0.033194
     78 C                    -0.305327
     79 C                    -0.075463
     80 N                    -0.444736
     81 S                     0.290484
     82 C                     0.138920
     83 C                    -0.313820
     84 C                    -0.232212
     85 H                     0.102142
     86 H                     0.091146
     87 H                     0.111850
     88 H                     0.113788
     89 H                     0.128373
     90 H                     0.128312
     91 H                     0.123177
     92 H                     0.142543
     93 H                     0.114237
     94 C                    -0.183151
     95 H                     0.092620
     96 H                     0.094979
     97 H                     0.112380
     98 C                    -0.179184
     99 H                     0.089338
    100 C                    -0.171647
    101 H                     0.095341
    102 H                     0.091906
    103 H                     0.093373
    104 C                    -0.177514
    105 H                     0.093601
    106 C                    -0.314530
    107 H                     0.090298
    108 H                     0.103702
    109 H                     0.097255
    110 H                     0.100490
  ----------------------------------------
  Sum of atomic charges =     0.000000

                    Cartesian Multipole Moments
 -----------------------------------------------------------------
    Charge (ESU x 10^10)
                 0.0000
    Dipole Moment (Debye)
         X       2.9776      Y      -0.4685      Z       2.4861
       Tot       3.9072
    Quadrupole Moments (Debye-Ang)
        XX    -417.5502     XY      -2.7825     YY    -417.8057
        XZ      -4.7112     YZ     -14.2955     ZZ    -438.7912

 Total job time:  88.40s(wall), 1039.82s(cpu)
        *  Thank you very much for using Q-Chem.  Have a nice day.  *
