 Q-Chem 4.4, Q-Chem, Inc., Pleasanton, CA (2016)
 Q-Chem 4.4.2 for Intel X86 Linux

User input:
--------------------------------------------------------------
$comment
SP
$end

$rem
MEM_STATIC 5000
MEM_TOTAL 20000
JOBTYPE SP
EXCHANGE B3LYP
BASIS 6-31g(d,p)
$end

$molecule
0 1
C         -23.271000     10.167000     -7.780000
C         -23.575000      8.856000     -8.007000
N         -23.165000     10.677000     -6.566000
C         -23.960000      8.066000     -6.897000
C         -23.380000      9.854000     -5.542000
C         -23.883000      8.538000     -5.572000
C         -24.205000      7.689000     -4.360000
C         -24.708000      8.273000     -3.163000
C         -23.702000      6.401000     -4.215000
N         -24.870000      7.597000     -1.986000
N         -23.051000      5.716000     -5.175000
C         -23.840000      5.725000     -2.986000
C         -24.482000      6.335000     -1.920000
S         -22.606000      4.300000     -4.465000
N         -23.238000      4.502000     -2.932000
C         -24.713000      5.616000     -0.697000
S         -24.726000      3.837000     -0.440000
C         -25.126000      6.204000      0.507000
C         -25.208000      4.014000      1.224000
S         -25.184000      7.902000      0.928000
C         -25.374000      5.331000      1.547000
C         -25.308000      2.876000      2.147000
C         -25.518000      7.484000      2.585000
C         -25.680000      6.121000      2.754000
N         -25.323000      1.677000      1.568000
S         -25.222000      2.941000      3.942000
C         -25.259000      0.733000      2.539000
C         -25.028000      1.173000      3.833000
C         -22.899000     11.077000     -8.940000
H         -23.702000      8.481000     -9.018000
H         -24.165000      7.012000     -7.056000
H         -23.305000     10.358000     -4.579000
H         -25.020000      9.315000     -3.213000
H         -25.639000      8.245000      3.344000
H         -26.065000      5.705000      3.678000
H         -25.257000     -0.322000      2.301000
H         -24.922000      0.486000      4.662000
H         -21.923000     11.557000     -8.798000
C         -23.948000     12.175000     -9.080000
H         -22.840000     10.524000     -9.886000
H         -23.971000     12.771000     -8.159000
H         -24.937000     11.705000     -9.152000
C         -23.750000     13.051000    -10.317000
H         -22.813000     13.611000    -10.205000
C         -24.825000     14.075000    -10.512000
H         -23.642000     12.383000    -11.180000
H         -24.680000     14.770000     -9.675000
H         -25.847000     13.696000    -10.394000
C         -24.681000     14.710000    -11.940000
H         -25.164000     15.693000    -11.880000
C         -25.242000     13.821000    -13.020000
H         -23.667000     15.082000    -12.134000
H         -24.557000     12.990000    -13.228000
H         -25.234000     14.466000    -13.908000
H         -26.256000     13.493000    -12.760000
C         -30.857000     -3.982000      0.123000
C         -30.139000     -5.066000     -0.467000
N         -30.340000     -2.921000      0.666000
C         -28.730000     -4.908000     -0.486000
C         -28.985000     -2.789000      0.539000
C         -28.067000     -3.696000     -0.086000
C         -26.641000     -3.489000     -0.393000
C         -25.692000     -4.559000     -0.413000
C         -26.175000     -2.238000     -0.779000
N         -24.380000     -4.372000     -0.723000
N         -26.887000     -1.175000     -0.706000
C         -24.858000     -2.023000     -1.115000
C         -23.952000     -3.154000     -1.033000
S         -25.878000      0.006000     -1.306000
N         -24.486000     -0.818000     -1.422000
C         -22.529000     -3.006000     -1.393000
S         -21.635000     -1.450000     -1.622000
C         -21.577000     -4.025000     -1.367000
C         -20.075000     -2.302000     -1.642000
S         -21.744000     -5.739000     -1.373000
C         -20.237000     -3.650000     -1.491000
C         -18.767000     -1.671000     -1.684000
C         -20.007000     -5.903000     -1.277000
C         -19.310000     -4.735000     -1.291000
N         -18.698000     -0.307000     -1.629000
S         -17.282000     -2.381000     -2.340000
C         -17.396000      0.151000     -1.716000
C         -16.527000     -0.807000     -2.054000
C         -32.391000     -3.942000      0.022000
H         -30.530000     -5.983000     -0.897000
H         -28.174000     -5.622000     -1.087000
H         -28.602000     -1.839000      0.908000
H         -26.011000     -5.595000     -0.305000
H         -19.596000     -6.846000     -0.939000
H         -18.233000     -4.794000     -1.184000
H         -17.076000      1.162000     -1.498000
H         -15.507000     -0.691000     -2.396000
H         -32.658000     -2.880000      0.090000
C         -33.026000     -4.593000      1.276000
H         -32.619000     -4.420000     -0.939000
H         -34.067000     -4.249000      1.259000
H         -32.546000     -4.128000      2.146000
C         -32.951000     -6.163000      1.210000
H         -33.513000     -6.459000      0.315000
C         -33.551000     -6.714000      2.535000
H         -31.912000     -6.478000      1.055000
H         -34.451000     -6.112000      2.711000
H         -32.911000     -6.462000      3.390000
C         -34.080000     -8.182000      2.541000
H         -34.866000     -8.261000      1.780000
C         -34.618000     -8.562000      3.897000
H         -33.285000     -8.896000      2.294000
H         -33.984000     -8.256000      4.738000
H         -34.821000     -9.638000      3.968000
H         -35.586000     -8.061000      4.024000
$end

--------------------------------------------------------------

             Standard Nuclear Orientation (Angstroms)
    I     Atom           X                Y                Z
 ----------------------------------------------------------------
    1      C     -10.2024117700    -0.4816752371    -1.5746943415
    2      C      -9.1044419297    -0.3244372792    -2.3699329563
    3      N     -10.1188073192    -0.6968518559    -0.2739863349
    4      C      -7.8340009197    -0.5772495110    -1.7985393829
    5      C      -8.8976675642    -0.7685049078     0.2511931954
    6      C      -7.6608916387    -0.8217330529    -0.4220950598
    7      C      -6.3079783433    -1.0095719674     0.2319471080
    8      C      -6.1563020122    -1.8186035889     1.3935563909
    9      C      -5.2469393412    -0.1478972341    -0.0223969305
   10      N      -5.0050596982    -1.9062479880     2.1253409177
   11      N      -5.2384853830     0.8022170128    -0.9772987309
   12      C      -4.0777343512    -0.2195570671     0.7613667837
   13      C      -3.9757359615    -1.1509215103     1.7825311204
   14      S      -3.7988226780     1.5782988121    -0.7977177285
   15      N      -3.1365054136     0.7261779867     0.4772500908
   16      C      -2.7508379721    -1.2956758817     2.5205840232
   17      S      -1.0975270569    -0.7781695641     2.0411998046
   18      C      -2.6200787712    -2.0222342474     3.7126175683
   19      C      -0.3889152519    -1.4979307531     3.4597773106
   20      S      -3.8813372292    -2.6667139054     4.7410542814
   21      C      -1.3410324119    -2.1111383843     4.2238606272
   22      C       1.0319820652    -1.3491134280     3.8001847401
   23      C      -2.6966195771    -3.0583789205     5.9555383697
   24      C      -1.4076642983    -2.8013112901     5.5253238620
   25      N       1.8082963609    -0.9109850798     2.8110201103
   26      S       1.7661305293    -1.5159893790     5.4332262122
   27      C       3.0459440034    -0.6753547033     3.3117991422
   28      C       3.1973727855    -0.7610006943     4.6869831619
   29      C     -11.5959328404    -0.2726842164    -2.1461011839
   30      H      -9.2080746574    -0.1973672134    -3.4432402078
   31      H      -6.9496972157    -0.4167582133    -2.4072030851
   32      H      -8.9150371251    -0.9791639727     1.3199920805
   33      H      -7.0060756406    -2.4349637072     1.6826809056
   34      H      -2.9827777708    -3.5087342505     6.8963553365
   35      H      -0.5437196188    -3.1487851747     6.0802278991
   36      H       3.8480257833    -0.3099142747     2.6850686486
   37      H       4.1396633992    -0.5491319318     5.1744726764
   38      H     -12.1695302611     0.4753316854    -1.5852106334
   39      C     -12.3657137521    -1.5883240722    -2.0999046708
   40      H     -11.5593399538     0.0773046802    -3.1855119463
   41      H     -12.4589242052    -1.9148895910    -1.0565194239
   42      H     -11.7661773853    -2.3605838634    -2.5982779845
   43      C     -13.7247769808    -1.5224466462    -2.7965798498
   44      H     -14.3719721466    -0.8325880304    -2.2403905766
   45      C     -14.4495915303    -2.8321839477    -2.8347645319
   46      H     -13.5627768571    -1.1005442605    -3.7957852025
   47      H     -14.7045912549    -3.0214429582    -1.7841574848
   48      H     -13.8352494741    -3.6882816618    -3.1376333847
   49      C     -15.6745999366    -2.7167367471    -3.8090187844
   50      H     -16.3846649816    -3.4891571253    -3.4890931818
   51      C     -15.2665844439    -2.8265551478    -5.2557064758
   52      H     -16.3153630160    -1.8563293522    -3.5780690263
   53      H     -14.8006899296    -1.8935096674    -5.5954393605
   54      H     -16.2253975423    -2.9104922697    -5.7832147713
   55      H     -14.6339911956    -3.7092225640    -5.4109611527
   56      C       7.3053821537    -4.1429483990    -2.0954982979
   57      C       7.8095624460    -3.0505627652    -2.8643779113
   58      N       6.5168029135    -4.0608939817    -1.0662904207
   59      C       7.3418102967    -1.7732669456    -2.4639664779
   60      C       6.0351203798    -2.8124851941    -0.7851580038
   61      C       6.3250127825    -1.5835588284    -1.4646433844
   62      C       5.6811545799    -0.2693127336    -1.2950031258
   63      C       6.3775097499     0.9637029212    -1.4966534967
   64      C       4.3212172334    -0.1776772535    -1.0242147352
   65      N       5.7756735310     2.1774600683    -1.3662703940
   66      N       3.6004993997    -1.1923470076    -0.7188410390
   67      C       3.6823539834     1.0352225563    -0.9044741858
   68      C       4.4871988254     2.2341759979    -1.0509543046
   69      S       2.0799365012    -0.5409400469    -0.5280546579
   70      N       2.4192790067     1.0430128626    -0.6057453554
   71      C       3.8710010471     3.5709567053    -0.9522089836
   72      S       2.2207574414     3.9487559370    -0.3144184361
   73      C       4.5434372592     4.7848521692    -1.0923101728
   74      C       2.5890645362     5.6873713198    -0.2760721916
   75      S       6.0573111729     5.1703030541    -1.8171097237
   76      C       3.8569607001     5.9419764316    -0.7162591455
   77      C       1.7261229966     6.7231188266     0.2655439102
   78      C       5.8440010782     6.8432178231    -1.3597958501
   79      C       4.6705609262     7.1312015297    -0.7350298183
   80      N       0.5586890836     6.3499389946     0.8706198324
   81      S       1.7021758057     8.4268342640    -0.2207083291
   82      C      -0.1739708956     7.4404178164     1.3025947093
   83      C       0.3006348896     8.6030642410     0.8441499036
   84      C       7.5768628132    -5.5851668028    -2.5551300279
   85      H       8.4960537017    -3.0739584981    -3.7051230544
   86      H       7.5590318412    -0.9487509122    -3.1371091904
   87      H       5.2944765982    -2.7993204688     0.0127288797
   88      H       7.3928870895     0.9775210872    -1.8910377213
   89      H       6.7156479857     7.4849220526    -1.3304470760
   90      H       4.5229071919     8.1489663657    -0.3926672716
   91      H      -1.0209211617     7.3941790966     1.9753370281
   92      H      -0.1874844574     9.5687552980     0.8446842944
   93      H       6.7527691616    -6.1804716269    -2.1425299553
   94      C       8.8496850420    -6.1352018174    -1.8645309716
   95      H       7.6077735969    -5.5268381509    -3.6504068385
   96      H       8.7838874249    -7.2205837875    -2.0056785989
   97      H       8.7311749076    -5.9409581169    -0.7913349351
   98      C      10.1568277556    -5.5601252235    -2.5244899380
   99      H      10.1370889757    -5.8817190012    -3.5736194928
  100      C      11.3674156360    -6.1178429621    -1.7228329616
  101      H      10.1204636221    -4.4640191047    -2.5243280170
  102      H      11.1338651646    -7.1766180684    -1.5560113458
  103      H      11.3891801254    -5.7039396724    -0.7067919320
  104      C      12.7574921787    -6.1520343716    -2.4309425244
  105      H      12.6623897386    -6.7697905846    -3.3323252329
  106      C      13.8203728376    -6.7094247247    -1.5187031374
  107      H      13.0796690419    -5.1476021548    -2.7311890743
  108      H      13.7906209483    -6.3164578725    -0.4951969683
  109      H      14.8269709512    -6.5692110646    -1.9323773659
  110      H      13.6674085227    -7.7940142196    -1.4522084309
 ----------------------------------------------------------------

   10   -5663.5301671667      3.35E-06 Convergence criterion met
 Total energy in the final basis set = -5663.5301671667

                    Orbital Energies (a.u.)
 --------------------------------------------------------------

 Alpha MOs
 -- Occupied --
-88.986 -88.976 -88.936 -88.927 -88.926 -88.921 -88.909 -88.907
-14.392 -14.386 -14.383 -14.374 -14.351 -14.350 -14.346 -14.342
-14.327 -14.324 -10.277 -10.272 -10.259 -10.257 -10.254 -10.252
-10.245 -10.245 -10.244 -10.240 -10.240 -10.239 -10.239 -10.239
-10.233 -10.231 -10.229 -10.228 -10.227 -10.227 -10.225 -10.225
-10.224 -10.224 -10.223 -10.221 -10.219 -10.219 -10.215 -10.215
-10.211 -10.210 -10.209 -10.208 -10.206 -10.204 -10.201 -10.192
-10.181 -10.180 -10.178 -10.177 -10.177 -10.176 -10.174 -10.173
-10.171 -10.170 -10.169 -10.168  -8.041  -8.032  -7.996  -7.987
 -7.985  -7.979  -7.970  -7.968  -6.007  -6.001  -5.999  -5.997
 -5.991  -5.989  -5.960  -5.956  -5.952  -5.951  -5.949  -5.948
 -5.945  -5.944  -5.943  -5.941  -5.939  -5.935  -5.934  -5.932
 -5.930  -5.928  -5.926  -5.924  -1.055  -1.031  -0.972  -0.963
 -0.956  -0.954  -0.948  -0.942  -0.928  -0.915  -0.912  -0.904
 -0.847  -0.844  -0.833  -0.829  -0.809  -0.805  -0.804  -0.803
 -0.800  -0.795  -0.794  -0.792  -0.785  -0.777  -0.767  -0.764
 -0.750  -0.747  -0.740  -0.740  -0.728  -0.724  -0.711  -0.710
 -0.696  -0.694  -0.674  -0.673  -0.653  -0.653  -0.647  -0.642
 -0.636  -0.633  -0.628  -0.621  -0.611  -0.609  -0.601  -0.596
 -0.595  -0.590  -0.578  -0.578  -0.577  -0.573  -0.569  -0.566
 -0.542  -0.541  -0.541  -0.540  -0.525  -0.523  -0.517  -0.513
 -0.504  -0.503  -0.498  -0.498  -0.490  -0.484  -0.477  -0.477
 -0.473  -0.471  -0.469  -0.468  -0.463  -0.461  -0.452  -0.450
 -0.442  -0.441  -0.438  -0.436  -0.435  -0.432  -0.432  -0.431
 -0.429  -0.424  -0.423  -0.422  -0.419  -0.418  -0.417  -0.414
 -0.411  -0.408  -0.402  -0.401  -0.399  -0.395  -0.393  -0.392
 -0.391  -0.391  -0.390  -0.386  -0.385  -0.381  -0.381  -0.381
 -0.379  -0.375  -0.373  -0.372  -0.365  -0.364  -0.356  -0.356
 -0.354  -0.352  -0.349  -0.347  -0.347  -0.346  -0.343  -0.342
 -0.337  -0.336  -0.336  -0.332  -0.329  -0.329  -0.323  -0.318
 -0.317  -0.313  -0.312  -0.310  -0.303  -0.302  -0.301  -0.297
 -0.296  -0.294  -0.293  -0.290  -0.285  -0.282  -0.280  -0.275
 -0.273  -0.268  -0.265  -0.262  -0.255  -0.252  -0.252  -0.251
 -0.249  -0.244  -0.238  -0.230  -0.197  -0.192

          Ground-State Mulliken Net Atomic Charges

     Atom                 Charge (a.u.)
  ----------------------------------------
      1 C                     0.283383
      2 C                    -0.116580
      3 N                    -0.471184
      4 C                    -0.091464
      5 C                     0.054091
      6 C                     0.058922
      7 C                     0.008159
      8 C                     0.055681
      9 C                     0.262655
     10 N                    -0.544230
     11 N                    -0.557817
     12 C                     0.208190
     13 C                     0.336599
     14 S                     0.602734
     15 N                    -0.562702
     16 C                    -0.229116
     17 S                     0.375133
     18 C                    -0.136943
     19 C                    -0.262600
     20 S                     0.295128
     21 C                     0.178233
     22 C                     0.074372
     23 C                    -0.300017
     24 C                    -0.094326
     25 N                    -0.428064
     26 S                     0.278635
     27 C                     0.131767
     28 C                    -0.304297
     29 C                    -0.218038
     30 H                     0.090932
     31 H                     0.109301
     32 H                     0.085437
     33 H                     0.120168
     34 H                     0.135110
     35 H                     0.107771
     36 H                     0.113642
     37 H                     0.133950
     38 H                     0.113033
     39 C                    -0.179254
     40 H                     0.088227
     41 H                     0.112803
     42 H                     0.085530
     43 C                    -0.163619
     44 H                     0.091185
     45 C                    -0.173129
     46 H                     0.083529
     47 H                     0.087347
     48 H                     0.085245
     49 C                    -0.184988
     50 H                     0.085459
     51 C                    -0.305077
     52 H                     0.089118
     53 H                     0.107792
     54 H                     0.101959
     55 H                     0.107063
     56 C                     0.274492
     57 C                    -0.111784
     58 N                    -0.466599
     59 C                    -0.104275
     60 C                     0.066009
     61 C                     0.047041
     62 C                     0.013346
     63 C                     0.052473
     64 C                     0.274516
     65 N                    -0.536579
     66 N                    -0.563184
     67 C                     0.211625
     68 C                     0.323802
     69 S                     0.606596
     70 N                    -0.553625
     71 C                    -0.235073
     72 S                     0.361210
     73 C                    -0.112614
     74 C                    -0.240184
     75 S                     0.281239
     76 C                     0.136970
     77 C                     0.046163
     78 C                    -0.303889
     79 C                    -0.068471
     80 N                    -0.444057
     81 S                     0.260315
     82 C                     0.140470
     83 C                    -0.301848
     84 C                    -0.232014
     85 H                     0.101525
     86 H                     0.091233
     87 H                     0.111875
     88 H                     0.111789
     89 H                     0.126859
     90 H                     0.125320
     91 H                     0.123309
     92 H                     0.128957
     93 H                     0.114357
     94 C                    -0.183137
     95 H                     0.092517
     96 H                     0.094792
     97 H                     0.111775
     98 C                    -0.179027
     99 H                     0.089385
    100 C                    -0.171597
    101 H                     0.095316
    102 H                     0.091835
    103 H                     0.092843
    104 C                    -0.177248
    105 H                     0.093686
    106 C                    -0.314455
    107 H                     0.090159
    108 H                     0.103362
    109 H                     0.097213
    110 H                     0.100448
  ----------------------------------------
  Sum of atomic charges =     0.000000

                    Cartesian Multipole Moments
 -----------------------------------------------------------------
    Charge (ESU x 10^10)
                 0.0000
    Dipole Moment (Debye)
         X       1.8785      Y       2.3712      Z      -0.1853
       Tot       3.0308
    Quadrupole Moments (Debye-Ang)
        XX    -433.4360     XY       2.1692     YY    -415.4835
        XZ       6.6714     YZ      -0.6333     ZZ    -417.1431

 Total job time:  86.71s(wall), 1011.67s(cpu)
        *  Thank you very much for using Q-Chem.  Have a nice day.  *
