 Q-Chem 4.4, Q-Chem, Inc., Pleasanton, CA (2016)
 Q-Chem 4.4.2 for Intel X86 Linux

User input:
--------------------------------------------------------------
$comment
SP
$end

$rem
MEM_STATIC 5000
MEM_TOTAL 20000
JOBTYPE SP
EXCHANGE B3LYP
BASIS 6-31g(d,p)
$end

$molecule
0 1
C         -21.682000     -2.617000      3.009000
C         -22.667000     -2.574000      3.949000
N         -21.190000     -3.785000      2.454000
C         -23.304000     -3.716000      4.449000
C         -21.962000     -4.893000      2.756000
C         -22.970000     -4.886000      3.826000
C         -23.772000     -6.117000      4.197000
C         -25.168000     -6.171000      4.362000
C         -23.105000     -7.321000      4.536000
N         -25.832000     -7.299000      4.562000
N         -21.735000     -7.431000      4.652000
C         -23.774000     -8.498000      4.881000
C         -25.170000     -8.446000      4.778000
S         -21.453000     -8.938000      5.121000
N         -23.009000     -9.516000      5.234000
C         -26.041000     -9.603000      4.920000
S         -27.779000     -9.472000      5.465000
C         -25.879000    -10.901000      4.540000
C         -28.005000    -11.163000      5.475000
S         -24.649000    -11.512000      3.479000
C         -26.934000    -11.693000      4.775000
C         -29.154000    -11.948000      5.871000
C         -25.694000    -12.967000      3.302000
C         -26.743000    -12.959000      4.168000
N         -28.951000    -13.240000      6.193000
S         -30.674000    -11.215000      6.053000
C         -30.125000    -13.691000      6.737000
C         -31.125000    -12.728000      6.813000
C         -20.825000     -1.325000      2.636000
H         -22.895000     -1.584000      4.332000
H         -24.092000     -3.714000      5.196000
H         -21.607000     -5.855000      2.390000
H         -25.742000     -5.246000      4.390000
H         -25.418000    -13.785000      2.650000
H         -27.457000    -13.775000      4.174000
H         -30.184000    -14.698000      7.126000
H         -32.177000    -12.821000      7.047000
H         -20.075000     -1.153000      3.418000
C         -21.700000     -0.062000      2.432000
H         -20.291000     -1.534000      1.701000
H         -22.103000      0.249000      3.403000
H         -22.629000     -0.385000      1.947000
C         -21.048000      1.023000      1.539000
H         -20.177000      1.441000      2.058000
C         -21.969000      2.205000      1.187000
H         -20.693000      0.528000      0.626000
H         -22.320000      2.692000      2.105000
H         -22.767000      1.790000      0.559000
C         -21.296000      3.306000      0.326000
H         -22.005000      4.128000      0.168000
C         -20.737000      2.915000     -1.047000
H         -20.494000      3.770000      0.912000
H         -20.334000      3.705000     -1.694000
H         -21.570000      2.534000     -1.650000
H         -19.903000      2.213000     -0.926000
C         -30.857000     -3.982000      0.123000
C         -30.139000     -5.066000     -0.467000
N         -30.340000     -2.921000      0.666000
C         -28.730000     -4.908000     -0.486000
C         -28.985000     -2.789000      0.539000
C         -28.067000     -3.696000     -0.086000
C         -26.641000     -3.489000     -0.393000
C         -25.692000     -4.559000     -0.413000
C         -26.175000     -2.238000     -0.779000
N         -24.380000     -4.372000     -0.723000
N         -26.887000     -1.175000     -0.706000
C         -24.858000     -2.023000     -1.115000
C         -23.952000     -3.154000     -1.033000
S         -25.878000      0.006000     -1.306000
N         -24.486000     -0.818000     -1.422000
C         -22.529000     -3.006000     -1.393000
S         -21.635000     -1.450000     -1.622000
C         -21.577000     -4.025000     -1.367000
C         -20.075000     -2.302000     -1.642000
S         -21.744000     -5.739000     -1.373000
C         -20.237000     -3.650000     -1.491000
C         -18.767000     -1.671000     -1.684000
C         -20.007000     -5.903000     -1.277000
C         -19.310000     -4.735000     -1.291000
N         -18.698000     -0.307000     -1.629000
S         -17.282000     -2.381000     -2.340000
C         -17.396000      0.151000     -1.716000
C         -16.527000     -0.807000     -2.054000
C         -32.391000     -3.942000      0.022000
H         -30.530000     -5.983000     -0.897000
H         -28.174000     -5.622000     -1.087000
H         -28.602000     -1.839000      0.908000
H         -26.011000     -5.595000     -0.305000
H         -19.596000     -6.846000     -0.939000
H         -18.233000     -4.794000     -1.184000
H         -17.076000      1.162000     -1.498000
H         -15.507000     -0.691000     -2.396000
H         -32.658000     -2.880000      0.090000
C         -33.026000     -4.593000      1.276000
H         -32.619000     -4.420000     -0.939000
H         -34.067000     -4.249000      1.259000
H         -32.546000     -4.128000      2.146000
C         -32.951000     -6.163000      1.210000
H         -33.513000     -6.459000      0.315000
C         -33.551000     -6.714000      2.535000
H         -31.912000     -6.478000      1.055000
H         -34.451000     -6.112000      2.711000
H         -32.911000     -6.462000      3.390000
C         -34.080000     -8.182000      2.541000
H         -34.866000     -8.261000      1.780000
C         -34.618000     -8.562000      3.897000
H         -33.285000     -8.896000      2.294000
H         -33.984000     -8.256000      4.738000
H         -34.821000     -9.638000      3.968000
H         -35.586000     -8.061000      4.024000
$end

--------------------------------------------------------------

             Standard Nuclear Orientation (Angstroms)
    I     Atom           X                Y                Z
 ----------------------------------------------------------------
    1      C      -3.3739078997    -1.4287286275    -2.4085745856
    2      C      -2.4105256940    -0.9616450222    -3.2508344217
    3      N      -3.1256111880    -2.2616940730    -1.3320847762
    4      C      -1.0511306138    -1.2645426852    -3.1085986256
    5      C      -1.7783187388    -2.3764844456    -1.0380129711
    6      C      -0.7263633365    -1.9546999012    -1.9742290946
    7      C       0.7484186013    -2.1367895605    -1.6774672511
    8      C       1.7421748364    -1.1495998703    -1.8073212488
    9      C       1.2516708796    -3.4211301002    -1.3509208952
   10      N       2.9944097308    -1.3243315638    -1.4140572095
   11      N       0.4914759600    -4.5716543220    -1.3801390281
   12      C       2.5953462398    -3.6670887824    -1.0577386091
   13      C       3.4157546892    -2.5327024662    -1.0105510903
   14      S       1.4927861395    -5.7696710040    -1.0159029038
   15      N       2.9175074524    -4.9294208534    -0.8366325360
   16      C       4.7976483939    -2.5451276704    -0.5548435051
   17      S       6.0334045184    -1.3204286351    -1.1096849902
   18      C       5.4110078029    -3.2541828637     0.4333259988
   19      C       7.3063829886    -2.0766279857    -0.2621324216
   20      S       4.6218477976    -4.1802630097     1.6708816739
   21      C       6.7038168581    -2.9563340401     0.6215939592
   22      C       8.7165690075    -1.7563280594    -0.2171285404
   23      C       6.1909269004    -4.1162781384     2.5508110491
   24      C       7.1901853098    -3.5946284681     1.7893747402
   25      N       9.5691245286    -2.7270315475     0.1637137125
   26      S       9.2730395482    -0.2484685516    -0.7625762851
   27      C      10.8300659149    -2.2537881769    -0.0886363073
   28      C      10.8597232997    -0.9838582976    -0.6539181318
   29      C      -4.9252581699    -1.2547778036    -2.7339903961
   30      H      -2.7756571150    -0.3716508934    -4.0859146414
   31      H      -0.2608016908    -0.9069623374    -3.7616480022
   32      H      -1.5066569671    -3.0542853322    -0.2304172555
   33      H       1.5057044773    -0.2115446999    -2.3073405150
   34      H       6.3076870129    -4.5594343631     3.5308027004
   35      H       8.1925484405    -3.4955397996     2.1907942092
   36      H      11.6867281790    -2.8895194825     0.0869383847
   37      H      11.6854695388    -0.3050537170    -0.8196784710
   38      H      -5.2200337623    -1.9963601541    -3.4868323234
   39      C      -5.2826394892     0.1766597827    -3.2090430557
   40      H      -5.4873613921    -1.4682502737    -1.8166401510
   41      H      -4.8584777137     0.3334747997    -4.2077756718
   42      H      -4.6587664656     0.8741593084    -2.6373159686
   43      C      -6.7645974656     0.5675153637    -2.9836312744
   44      H      -7.4014194098    -0.0447245642    -3.6335128651
   45      C      -7.0954559517     2.0391114098    -3.2905624380
   46      H      -7.0133999475     0.3274600462    -1.9419548517
   47      H      -6.8419782461     2.2700507201    -4.3324405919
   48      H      -6.5492438428     2.6332057383    -2.5475165034
   49      C      -8.5892254112     2.4119692558    -3.1006128957
   50      H      -8.7421026516     3.4590895888    -3.3895706050
   51      C      -9.2144611556     2.2252661393    -1.7132725589
   52      H      -9.1867014837     1.8556152638    -3.8323154162
   53      H     -10.2462997120     2.5638494905    -1.5526845525
   54      H      -8.6588321490     2.8565400942    -1.0094056674
   55      H      -9.2356691784     1.1602323622    -1.4520173708
   56      C       2.3049832926     5.8265108335     0.6711236449
   57      C       2.3391803721     4.8777122109     1.7375624541
   58      N       1.4766840741     5.8302871697    -0.3297585379
   59      C       1.3239866888     3.8889616432     1.6889815911
   60      C       0.4719242494     4.9046637508    -0.2726885718
   61      C       0.2468472040     3.9109382189     0.7361959067
   62      C      -0.9223656260     3.0317597382     0.9110116869
   63      C      -0.8267054538     1.7237397904     1.4818303514
   64      C      -2.2009034070     3.4877261253     0.6133729859
   65      N      -1.9107239913     0.9221151963     1.6681494873
   66      N      -2.4234288083     4.5923512671     0.0030224786
   67      C      -3.3167225616     2.7062489368     0.8079263673
   68      C      -3.1137991227     1.3638993650     1.3213859128
   69      S      -4.0855060755     4.6643031255    -0.0688391105
   70      N      -4.4741193663     3.1829023873     0.4645721409
   71      C      -4.2622048760     0.4723284716     1.5717827335
   72      S      -5.9575208850     0.7146110416     0.9886740078
   73      C      -4.1847195714    -0.8253536606     2.0771124390
   74      C      -6.3983182513    -0.9430209180     1.4554265850
   75      S      -2.9403957266    -1.6341234154     2.9507660620
   76      C      -5.3402840479    -1.6073397128     2.0080504747
   77      C      -7.6721142698    -1.5874705416     1.1853943909
   78      C      -3.9075270312    -3.0893077135     2.9701747785
   79      C      -5.1361083146    -2.9798531038     2.3967319142
   80      N      -8.6021233816    -0.9115033925     0.4461830102
   81      S      -8.4033913225    -2.8982259678     2.1271029896
   82      C      -9.7743220468    -1.6311544702     0.3026921891
   83      C      -9.8239292930    -2.7106502259     1.0897099998
   84      C       3.2225646803     7.0595944682     0.7211850738
   85      H       3.0343725505     4.8185175430     2.5693519866
   86      H       1.2117581132     3.2708746267     2.5752694602
   87      H      -0.2634974150     5.0083642426    -1.0687734815
   88      H       0.1079797864     1.3651628871     1.9113732551
   89      H      -3.4141565932    -4.0338151818     3.1622821786
   90      H      -5.7459207663    -3.8745227094     2.3461941017
   91      H     -10.5678933572    -1.3954572628    -0.3949727747
   92      H     -10.6859181757    -3.3163728737     1.3364796094
   93      H       2.7136412130     7.8237284670     0.1204745474
   94      C       4.5436351427     6.7733862727    -0.0353859422
   95      H       3.3176050288     7.2923577059     1.7892569849
   96      H       4.9754325118     7.7666180663    -0.2066974603
   97      H       4.2608340524     6.3703160109    -1.0157343024
   98      C       5.5141176698     5.8776842222     0.8194605360
   99      H       5.7274999921     6.4445978605     1.7346446220
  100      C       6.7735250888     5.5957779314    -0.0486683693
  101      H       4.9982992654     4.9590758822     1.1241917146
  102      H       7.0175139710     6.5579227684    -0.5157087723
  103      H       6.5240639018     4.9581858244    -0.9062081184
  104      C       8.0908522392     5.1956719430     0.6858146984
  105      H       8.3549217462     6.0088532164     1.3729547948
  106      C       9.2087350344     4.9495387520    -0.2951728186
  107      H       7.9613591275     4.2763871612     1.2697470780
  108      H       8.9218407460     4.3507907738    -1.1681364638
  109      H      10.0814840310     4.4923060990     0.1878111252
  110      H       9.5446418640     5.9248500017    -0.6694568927
 ----------------------------------------------------------------

   10   -5663.4912132164      3.26E-06 Convergence criterion met
 Total energy in the final basis set = -5663.4912132164

                    Orbital Energies (a.u.)
 --------------------------------------------------------------

 Alpha MOs
 -- Occupied --
-88.987 -88.980 -88.932 -88.928 -88.922 -88.920 -88.906 -88.904
-14.391 -14.382 -14.381 -14.379 -14.347 -14.346 -14.346 -14.345
-14.335 -14.328 -10.274 -10.269 -10.261 -10.258 -10.253 -10.250
-10.249 -10.244 -10.242 -10.239 -10.239 -10.237 -10.236 -10.234
-10.234 -10.231 -10.230 -10.228 -10.227 -10.226 -10.224 -10.224
-10.224 -10.221 -10.220 -10.220 -10.220 -10.220 -10.215 -10.214
-10.210 -10.209 -10.206 -10.202 -10.201 -10.198 -10.191 -10.191
-10.181 -10.180 -10.180 -10.177 -10.177 -10.176 -10.175 -10.172
-10.171 -10.169 -10.169 -10.160  -8.043  -8.037  -7.994  -7.988
 -7.979  -7.979  -7.967  -7.965  -6.008  -6.002  -6.002  -6.001
 -5.996  -5.994  -5.957  -5.954  -5.952  -5.951  -5.949  -5.945
 -5.944  -5.944  -5.940  -5.940  -5.936  -5.936  -5.931  -5.930
 -5.927  -5.926  -5.923  -5.921  -1.059  -1.038  -0.971  -0.963
 -0.957  -0.955  -0.943  -0.932  -0.923  -0.921  -0.911  -0.904
 -0.846  -0.843  -0.831  -0.831  -0.816  -0.809  -0.805  -0.800
 -0.798  -0.796  -0.794  -0.793  -0.778  -0.775  -0.765  -0.763
 -0.748  -0.744  -0.740  -0.735  -0.725  -0.724  -0.710  -0.703
 -0.695  -0.687  -0.676  -0.673  -0.655  -0.647  -0.645  -0.644
 -0.634  -0.633  -0.628  -0.622  -0.612  -0.607  -0.597  -0.594
 -0.591  -0.591  -0.578  -0.578  -0.574  -0.570  -0.569  -0.552
 -0.552  -0.543  -0.543  -0.542  -0.526  -0.524  -0.515  -0.514
 -0.507  -0.503  -0.500  -0.500  -0.487  -0.480  -0.478  -0.474
 -0.472  -0.469  -0.468  -0.463  -0.462  -0.459  -0.451  -0.444
 -0.440  -0.439  -0.436  -0.435  -0.433  -0.432  -0.430  -0.430
 -0.429  -0.425  -0.423  -0.419  -0.418  -0.412  -0.411  -0.410
 -0.409  -0.407  -0.403  -0.402  -0.396  -0.395  -0.394  -0.394
 -0.393  -0.391  -0.387  -0.387  -0.384  -0.383  -0.382  -0.380
 -0.376  -0.373  -0.371  -0.371  -0.366  -0.358  -0.356  -0.355
 -0.352  -0.348  -0.347  -0.346  -0.344  -0.343  -0.339  -0.338
 -0.336  -0.334  -0.332  -0.330  -0.329  -0.324  -0.317  -0.314
 -0.313  -0.312  -0.311  -0.304  -0.302  -0.300  -0.298  -0.297
 -0.296  -0.294  -0.293  -0.291  -0.290  -0.284  -0.283  -0.278
 -0.274  -0.270  -0.263  -0.259  -0.256  -0.253  -0.252  -0.250
 -0.244  -0.243  -0.233  -0.230  -0.192  -0.191

          Ground-State Mulliken Net Atomic Charges

     Atom                 Charge (a.u.)
  ----------------------------------------
      1 C                     0.244441
      2 C                    -0.103583
      3 N                    -0.469708
      4 C                    -0.069630
      5 C                     0.092823
      6 C                     0.035387
      7 C                     0.004567
      8 C                     0.068161
      9 C                     0.199750
     10 N                    -0.511030
     11 N                    -0.526249
     12 C                     0.266630
     13 C                     0.271567
     14 S                     0.604915
     15 N                    -0.579864
     16 C                    -0.230921
     17 S                     0.294613
     18 C                    -0.087731
     19 C                    -0.191746
     20 S                     0.245476
     21 C                     0.139080
     22 C                     0.042787
     23 C                    -0.299226
     24 C                    -0.049343
     25 N                    -0.422901
     26 S                     0.291160
     27 C                     0.125779
     28 C                    -0.311293
     29 C                    -0.230543
     30 H                     0.084458
     31 H                     0.104359
     32 H                     0.114755
     33 H                     0.108629
     34 H                     0.124037
     35 H                     0.114142
     36 H                     0.117924
     37 H                     0.127859
     38 H                     0.112954
     39 C                    -0.189359
     40 H                     0.127057
     41 H                     0.085655
     42 H                     0.094963
     43 C                    -0.186716
     44 H                     0.082967
     45 C                    -0.171397
     46 H                     0.130006
     47 H                     0.088847
     48 H                     0.092360
     49 C                    -0.182074
     50 H                     0.084222
     51 C                    -0.325181
     52 H                     0.083063
     53 H                     0.090871
     54 H                     0.101206
     55 H                     0.125496
     56 C                     0.274071
     57 C                    -0.111151
     58 N                    -0.466689
     59 C                    -0.101650
     60 C                     0.066997
     61 C                     0.045822
     62 C                     0.013670
     63 C                     0.056165
     64 C                     0.280559
     65 N                    -0.536843
     66 N                    -0.555503
     67 C                     0.217832
     68 C                     0.331414
     69 S                     0.566660
     70 N                    -0.551792
     71 C                    -0.236101
     72 S                     0.360797
     73 C                    -0.099727
     74 C                    -0.245289
     75 S                     0.281476
     76 C                     0.142785
     77 C                     0.055569
     78 C                    -0.306387
     79 C                    -0.056629
     80 N                    -0.452994
     81 S                     0.265783
     82 C                     0.142173
     83 C                    -0.302825
     84 C                    -0.231709
     85 H                     0.102240
     86 H                     0.091573
     87 H                     0.110423
     88 H                     0.115927
     89 H                     0.126810
     90 H                     0.125874
     91 H                     0.123795
     92 H                     0.130083
     93 H                     0.113785
     94 C                    -0.183510
     95 H                     0.092449
     96 H                     0.094408
     97 H                     0.112489
     98 C                    -0.179243
     99 H                     0.088948
    100 C                    -0.171506
    101 H                     0.097431
    102 H                     0.091313
    103 H                     0.094396
    104 C                    -0.177766
    105 H                     0.093802
    106 C                    -0.314955
    107 H                     0.091369
    108 H                     0.103023
    109 H                     0.094719
    110 H                     0.101167
  ----------------------------------------
  Sum of atomic charges =     0.000000

                    Cartesian Multipole Moments
 -----------------------------------------------------------------
    Charge (ESU x 10^10)
                 0.0000
    Dipole Moment (Debye)
         X       0.7751      Y      -1.1685      Z       1.6386
       Tot       2.1567
    Quadrupole Moments (Debye-Ang)
        XX    -388.2057     XY      25.2328     YY    -441.3689
        XZ       7.6107     YZ      -4.8855     ZZ    -435.5221

 Total job time:  93.58s(wall), 1122.28s(cpu)
        *  Thank you very much for using Q-Chem.  Have a nice day.  *
