 Q-Chem 4.4, Q-Chem, Inc., Pleasanton, CA (2016)
 Q-Chem 4.4.2 for Intel X86 Linux

User input:
--------------------------------------------------------------
$comment
SP
$end

$rem
MEM_STATIC 5000
MEM_TOTAL 20000
JOBTYPE SP
EXCHANGE B3LYP
BASIS 6-31g(d,p)
$end

$molecule
0 1
C         -27.509000     -0.549000     -4.751000
C         -26.807000     -1.660000     -4.230000
N         -26.897000      0.612000     -5.137000
C         -25.397000     -1.594000     -4.208000
C         -25.542000      0.662000     -5.067000
C         -24.730000     -0.414000     -4.629000
C         -23.228000     -0.400000     -4.736000
C         -22.595000      0.822000     -4.394000
C         -22.376000     -1.496000     -5.093000
N         -21.273000      0.956000     -4.481000
N         -22.809000     -2.680000     -5.371000
C         -21.048000     -1.287000     -5.289000
C         -20.467000      0.005000     -5.000000
S         -21.506000     -3.477000     -5.919000
N         -20.333000     -2.269000     -5.838000
C         -19.019000      0.241000     -5.186000
S         -17.790000     -1.058000     -5.292000
C         -18.462000      1.505000     -5.077000
C         -16.499000      0.180000     -5.497000
S         -19.179000      3.087000     -4.820000
C         -17.085000      1.442000     -5.426000
C         -15.081000     -0.140000     -5.713000
C         -17.625000      3.795000     -5.303000
C         -16.638000      2.814000     -5.516000
N         -14.296000      0.908000     -5.863000
S         -14.317000     -1.713000     -5.596000
C         -12.955000      0.463000     -5.745000
C         -12.855000     -0.861000     -5.687000
C         -28.907000     -0.563000     -5.106000
H         -27.271000     -2.592000     -3.920000
H         -24.864000     -2.397000     -3.708000
H         -25.041000      1.512000     -5.528000
H         -23.179000      1.670000     -4.040000
H         -17.641000      4.877000     -5.304000
H         -15.612000      3.118000     -5.688000
H         -12.180000      1.219000     -5.741000
H         -11.951000     -1.442000     -5.813000
H         -29.191000      0.497000     -5.111000
C         -29.961000     -1.208000     -4.160000
H         -29.045000     -0.974000     -6.114000
H         -29.728000     -2.254000     -3.924000
H         -30.928000     -1.133000     -4.671000
C         -30.004000     -0.414000     -2.849000
H         -29.105000     -0.561000     -2.237000
C         -31.228000     -0.858000     -2.042000
H         -30.162000      0.652000     -3.054000
H         -31.180000     -1.949000     -1.942000
H         -32.118000     -0.714000     -2.666000
C         -31.291000     -0.187000     -0.637000
H         -31.930000     -0.768000      0.040000
C         -31.797000      1.311000     -0.883000
H         -30.273000     -0.133000     -0.232000
H         -32.860000      1.285000     -1.156000
H         -31.198000      1.823000     -1.646000
H         -31.715000      1.861000      0.062000
C         -30.857000     -3.982000      0.123000
C         -30.139000     -5.066000     -0.467000
N         -30.340000     -2.921000      0.666000
C         -28.730000     -4.908000     -0.486000
C         -28.985000     -2.789000      0.539000
C         -28.067000     -3.696000     -0.086000
C         -26.641000     -3.489000     -0.393000
C         -25.692000     -4.559000     -0.413000
C         -26.175000     -2.238000     -0.779000
N         -24.380000     -4.372000     -0.723000
N         -26.887000     -1.175000     -0.706000
C         -24.858000     -2.023000     -1.115000
C         -23.952000     -3.154000     -1.033000
S         -25.878000      0.006000     -1.306000
N         -24.486000     -0.818000     -1.422000
C         -22.529000     -3.006000     -1.393000
S         -21.635000     -1.450000     -1.622000
C         -21.577000     -4.025000     -1.367000
C         -20.075000     -2.302000     -1.642000
S         -21.744000     -5.739000     -1.373000
C         -20.237000     -3.650000     -1.491000
C         -18.767000     -1.671000     -1.684000
C         -20.007000     -5.903000     -1.277000
C         -19.310000     -4.735000     -1.291000
N         -18.698000     -0.307000     -1.629000
S         -17.282000     -2.381000     -2.340000
C         -17.396000      0.151000     -1.716000
C         -16.527000     -0.807000     -2.054000
C         -32.391000     -3.942000      0.022000
H         -30.530000     -5.983000     -0.897000
H         -28.174000     -5.622000     -1.087000
H         -28.602000     -1.839000      0.908000
H         -26.011000     -5.595000     -0.305000
H         -19.596000     -6.846000     -0.939000
H         -18.233000     -4.794000     -1.184000
H         -17.076000      1.162000     -1.498000
H         -15.507000     -0.691000     -2.396000
H         -32.658000     -2.880000      0.090000
C         -33.026000     -4.593000      1.276000
H         -32.619000     -4.420000     -0.939000
H         -34.067000     -4.249000      1.259000
H         -32.546000     -4.128000      2.146000
C         -32.951000     -6.163000      1.210000
H         -33.513000     -6.459000      0.315000
C         -33.551000     -6.714000      2.535000
H         -31.912000     -6.478000      1.055000
H         -34.451000     -6.112000      2.711000
H         -32.911000     -6.462000      3.390000
C         -34.080000     -8.182000      2.541000
H         -34.866000     -8.261000      1.780000
C         -34.618000     -8.562000      3.897000
H         -33.285000     -8.896000      2.294000
H         -33.984000     -8.256000      4.738000
H         -34.821000     -9.638000      3.968000
H         -35.586000     -8.061000      4.024000
$end

--------------------------------------------------------------

             Standard Nuclear Orientation (Angstroms)
    I     Atom           X                Y                Z
 ----------------------------------------------------------------
    1      C      -2.7658032369    -3.4994950333     1.6300365311
    2      C      -2.5517233572    -2.1036063579     1.6950796779
    3      N      -1.8027048617    -4.3893748244     1.2401436265
    4      C      -1.2471813042    -1.6271056822     1.4419845613
    5      C      -0.5675518941    -3.8981461186     0.9635274567
    6      C      -0.2180306685    -2.5281586990     1.0631938145
    7      C       1.1987852738    -2.0350633011     0.9322796661
    8      C       1.9684898244    -2.6316914470    -0.0985097209
    9      C       1.8285714295    -0.9997785578     1.6978669558
   10      N       3.2426410463    -2.2926882186    -0.2851228898
   11      N       1.2318031670    -0.3307006068     2.6267541053
   12      C       3.1603869952    -0.7692810218     1.5606839213
   13      C       3.9157664435    -1.4660001485     0.5436635933
   14      S       2.4077930164     0.5414247029     3.3265878843
   15      N       3.7517921578     0.0351136243     2.4439388035
   16      C       5.3612290651    -1.2084863451     0.3666877457
   17      S       6.2099923439     0.2451820467     0.9794904082
   18      C       6.1440276219    -1.9742091962    -0.4822651003
   19      C       7.7589891061    -0.3733976080     0.3017601951
   20      S       5.7868185211    -3.3983489881    -1.4451199759
   21      C       7.5030061453    -1.5762711945    -0.3529526111
   22      C       9.0520605487     0.3084393777     0.4529043950
   23      C       7.5363729372    -3.6196650249    -1.6439856513
   24      C       8.2729693132    -2.5613043005    -1.0790101158
   25      N      10.0731128226    -0.3178545202    -0.0968566508
   26      S       9.3377951869     1.9146263370     1.0933988666
   27      C      11.1609328950     0.5901850193    -0.1452476097
   28      C      10.9151257648     1.7233393842     0.5042753230
   29      C      -3.9427468624    -4.1667216361     2.1302738376
   30      H      -3.2998284308    -1.3791297380     2.0040981661
   31      H      -1.1074753582    -0.5519897871     1.3827725619
   32      H       0.2419253658    -4.6121812733     0.8188818085
   33      H       1.5260161314    -3.3692230594    -0.7661474607
   34      H       7.7831419068    -4.5001401673    -2.2226475556
   35      H       9.3427449676    -2.5078298133    -1.2445290832
   36      H      12.0542124165     0.2669253239    -0.6646047755
   37      H      11.6448322788     2.4679681474     0.7936011056
   38      H      -3.9462723039    -5.1300435142     1.6046508450
   39      C      -5.3623349293    -3.5990859609     1.8397287280
   40      H      -3.8538625018    -4.3491082320     3.2086354189
   41      H      -5.4744477505    -2.5596401101     2.1730214501
   42      H      -6.0730704594    -4.2510947181     2.3608569147
   43      C      -5.6197268670    -3.6534849190     0.3291671954
   44      H      -5.0203971141    -2.9219253006    -0.2275898180
   45      C      -7.1035730618    -3.3748139344     0.0701228894
   46      H      -5.4435617375    -4.6671882091    -0.0512490067
   47      H      -7.3540387277    -2.4297452850     0.5668091065
   48      H      -7.6916093197    -4.1061512258     0.6371953059
   49      C      -7.4383921587    -3.2939876749    -1.4496133667
   50      H      -8.3772080200    -2.7488009618    -1.6096359479
   51      C      -7.4648862994    -4.8038139638    -1.9790268514
   52      H      -6.6165504579    -2.7761438199    -1.9592004159
   53      H      -8.3625489800    -5.3001605370    -1.5878545221
   54      H      -6.5526114116    -5.3475503851    -1.7047656017
   55      H      -7.5519929128    -4.7833346640    -3.0718406672
   56      C      -8.1930287675     0.2813610604    -0.1022507541
   57      C      -7.6106789850     1.1504094194     0.8695021366
   58      N      -7.6315509372    -0.1355197382    -1.1971535104
   59      C      -6.2720426005     1.5333622300     0.6011632189
   60      C      -6.3150674608     0.1988673518    -1.3541074227
   61      C      -5.4953061593     0.9825432746    -0.4767013271
   62      C      -4.0392585594     1.1997312294    -0.5343968990
   63      C      -3.4193464951     2.4047429840    -0.0766232607
   64      C      -3.1885796619     0.1833297126    -0.9520407306
   65      N      -2.0719303453     2.5946902165    -0.1049564231
   66      N      -3.6089857301    -0.9042990492    -1.4836086136
   67      C      -1.8216895303     0.3405425934    -0.9745235727
   68      C      -1.2878710252     1.6258930824    -0.5626583956
   69      S      -2.2094541317    -1.7624226008    -1.7624943880
   70      N      -1.0931569509    -0.6370132475    -1.4198132075
   71      C       0.1677357401     1.8652661927    -0.5441527566
   72      S       1.4362267917     0.8324183293    -1.3167902804
   73      C       0.7883443671     3.0513366208    -0.1524604391
   74      C       2.6701329853     2.0865185037    -1.0626008662
   75      S       0.2230819336     4.3717171582     0.7976946103
   76      C       2.1487606983     3.1852616014    -0.4404404820
   77      C       4.0373227034     2.0395435195    -1.5518601282
   78      C       1.7494360855     5.1885863468     0.5605264594
   79      C       2.6761157854     4.4954558889    -0.1543608759
   80      N       4.4127600271     0.9883311726    -2.3407082870
   81      S       5.4352667392     2.8587992664    -0.8347593723
   82      C       5.7467379029     1.0582120741    -2.6986980722
   83      C       6.4195165756     1.9970140425    -2.0255051417
   84      C      -9.5612373241    -0.3628088670     0.1770473846
   85      H      -8.0569323200     1.5493644111     1.7752409928
   86      H      -5.7457944134     2.0387285917     1.4060238814
   87      H      -5.8491442520    -0.2577486910    -2.2257537688
   88      H      -3.9962295299     3.1737874866     0.4357218545
   89      H       1.7938646760     6.2573368434     0.7284921596
   90      H       3.6179802212     4.9892919422    -0.3638276683
   91      H       6.2166702009     0.4596533812    -3.4687215306
   92      H       7.4915072224     2.1219776789    -1.9477867859
   93      H      -9.5714643517    -1.2879094319    -0.4127333820
   94      C     -10.6935160089     0.5057531874    -0.4255195724
   95      H      -9.5858967057    -0.5026262467     1.2650878320
   96      H     -11.5616292397    -0.1636684140    -0.4491868080
   97      H     -10.4120345709     0.7071070336    -1.4665526308
   98      C     -10.9829336182     1.7714046256     0.4628749821
   99      H     -11.2911550992     1.3917995231     1.4454147954
  100      C     -12.0810972476     2.6047312472    -0.2574231402
  101      H     -10.0559292619     2.3375616451     0.6142029456
  102      H     -12.8176788850     1.8676054273    -0.6001665090
  103      H     -11.6993356067     3.0302371152    -1.1940830603
  104      C     -12.9233318991     3.5984664440     0.6016648358
  105      H     -13.4268432868     3.0226140283     1.3878125812
  106      C     -13.9329412596     4.3307553083    -0.2451066555
  107      H     -12.2880765215     4.3547213110     1.0784867958
  108      H     -13.5392852992     4.7039862654    -1.1983152567
  109      H     -14.4013420486     5.1578549008     0.3031022144
  110      H     -14.7410714895     3.6276268622    -0.4832031061
 ----------------------------------------------------------------

   10   -5663.4904313895      4.87E-06 Convergence criterion met
 Total energy in the final basis set = -5663.4904313895

                    Orbital Energies (a.u.)
 --------------------------------------------------------------

 Alpha MOs
 -- Occupied --
-88.981 -88.980 -88.932 -88.927 -88.926 -88.924 -88.911 -88.907
-14.390 -14.389 -14.381 -14.380 -14.350 -14.344 -14.343 -14.341
-14.332 -14.331 -10.273 -10.272 -10.264 -10.257 -10.251 -10.248
-10.246 -10.246 -10.245 -10.244 -10.243 -10.243 -10.240 -10.234
-10.232 -10.230 -10.228 -10.228 -10.228 -10.228 -10.227 -10.226
-10.226 -10.225 -10.224 -10.224 -10.224 -10.220 -10.220 -10.215
-10.214 -10.213 -10.212 -10.208 -10.207 -10.205 -10.200 -10.199
-10.183 -10.182 -10.180 -10.178 -10.178 -10.177 -10.173 -10.170
-10.167 -10.164 -10.163 -10.161  -8.037  -8.036  -7.994  -7.987
 -7.983  -7.981  -7.972  -7.967  -6.002  -6.001  -5.997  -5.996
 -5.995  -5.993  -5.958  -5.955  -5.951  -5.950  -5.947  -5.947
 -5.946  -5.944  -5.943  -5.942  -5.939  -5.938  -5.936  -5.932
 -5.931  -5.928  -5.928  -5.923  -1.060  -1.049  -0.971  -0.960
 -0.955  -0.951  -0.947  -0.933  -0.932  -0.917  -0.916  -0.900
 -0.848  -0.835  -0.834  -0.826  -0.820  -0.807  -0.805  -0.802
 -0.800  -0.798  -0.793  -0.789  -0.780  -0.777  -0.768  -0.761
 -0.749  -0.744  -0.743  -0.731  -0.728  -0.721  -0.713  -0.702
 -0.697  -0.685  -0.678  -0.672  -0.657  -0.652  -0.647  -0.639
 -0.636  -0.632  -0.626  -0.621  -0.614  -0.607  -0.600  -0.598
 -0.592  -0.590  -0.583  -0.580  -0.575  -0.573  -0.570  -0.556
 -0.551  -0.546  -0.544  -0.535  -0.529  -0.525  -0.514  -0.511
 -0.507  -0.502  -0.500  -0.494  -0.489  -0.486  -0.481  -0.478
 -0.476  -0.472  -0.469  -0.464  -0.464  -0.457  -0.453  -0.447
 -0.444  -0.441  -0.439  -0.439  -0.436  -0.433  -0.432  -0.428
 -0.426  -0.426  -0.422  -0.422  -0.418  -0.417  -0.413  -0.411
 -0.410  -0.406  -0.405  -0.402  -0.398  -0.398  -0.397  -0.394
 -0.393  -0.390  -0.389  -0.388  -0.385  -0.383  -0.380  -0.377
 -0.375  -0.374  -0.372  -0.369  -0.362  -0.360  -0.358  -0.355
 -0.353  -0.351  -0.351  -0.349  -0.348  -0.345  -0.345  -0.341
 -0.339  -0.335  -0.332  -0.331  -0.330  -0.327  -0.325  -0.319
 -0.318  -0.315  -0.312  -0.307  -0.305  -0.300  -0.299  -0.296
 -0.294  -0.291  -0.289  -0.288  -0.287  -0.284  -0.279  -0.277
 -0.269  -0.266  -0.264  -0.258  -0.257  -0.256  -0.254  -0.254
 -0.248  -0.239  -0.234  -0.225  -0.196  -0.191

          Ground-State Mulliken Net Atomic Charges

     Atom                 Charge (a.u.)
  ----------------------------------------
      1 C                     0.284112
      2 C                    -0.119310
      3 N                    -0.486264
      4 C                    -0.091207
      5 C                     0.069777
      6 C                     0.036544
      7 C                     0.030507
      8 C                     0.071006
      9 C                     0.275261
     10 N                    -0.527680
     11 N                    -0.549334
     12 C                     0.202162
     13 C                     0.322994
     14 S                     0.570640
     15 N                    -0.574400
     16 C                    -0.205484
     17 S                     0.326444
     18 C                    -0.124274
     19 C                    -0.240499
     20 S                     0.288485
     21 C                     0.174340
     22 C                     0.069504
     23 C                    -0.308226
     24 C                    -0.077161
     25 N                    -0.439622
     26 S                     0.267473
     27 C                     0.117418
     28 C                    -0.305396
     29 C                    -0.248643
     30 H                     0.098459
     31 H                     0.112737
     32 H                     0.106429
     33 H                     0.117964
     34 H                     0.136294
     35 H                     0.116906
     36 H                     0.117813
     37 H                     0.132797
     38 H                     0.124541
     39 C                    -0.185962
     40 H                     0.114238
     41 H                     0.089389
     42 H                     0.094616
     43 C                    -0.184657
     44 H                     0.114744
     45 C                    -0.174140
     46 H                     0.092201
     47 H                     0.081072
     48 H                     0.078719
     49 C                    -0.173134
     50 H                     0.102869
     51 C                    -0.327573
     52 H                     0.101214
     53 H                     0.100511
     54 H                     0.104395
     55 H                     0.093688
     56 C                     0.278771
     57 C                    -0.111328
     58 N                    -0.465792
     59 C                    -0.105488
     60 C                     0.068136
     61 C                     0.046352
     62 C                     0.011926
     63 C                     0.054208
     64 C                     0.294638
     65 N                    -0.537345
     66 N                    -0.569990
     67 C                     0.203050
     68 C                     0.325130
     69 S                     0.586631
     70 N                    -0.549101
     71 C                    -0.243335
     72 S                     0.363733
     73 C                    -0.114479
     74 C                    -0.248252
     75 S                     0.281763
     76 C                     0.135929
     77 C                     0.048060
     78 C                    -0.305342
     79 C                    -0.066248
     80 N                    -0.440624
     81 S                     0.257763
     82 C                     0.149384
     83 C                    -0.301751
     84 C                    -0.234967
     85 H                     0.103284
     86 H                     0.090552
     87 H                     0.113649
     88 H                     0.113794
     89 H                     0.128327
     90 H                     0.128516
     91 H                     0.128788
     92 H                     0.137798
     93 H                     0.119363
     94 C                    -0.185683
     95 H                     0.093252
     96 H                     0.095937
     97 H                     0.112042
     98 C                    -0.178981
     99 H                     0.089693
    100 C                    -0.171768
    101 H                     0.094864
    102 H                     0.092300
    103 H                     0.093598
    104 C                    -0.177894
    105 H                     0.093911
    106 C                    -0.314682
    107 H                     0.090324
    108 H                     0.103855
    109 H                     0.097619
    110 H                     0.100814
  ----------------------------------------
  Sum of atomic charges =     0.000000

                    Cartesian Multipole Moments
 -----------------------------------------------------------------
    Charge (ESU x 10^10)
                 0.0000
    Dipole Moment (Debye)
         X       2.8211      Y       4.2925      Z       1.7630
       Tot       5.4307
    Quadrupole Moments (Debye-Ang)
        XX    -390.2337     XY      11.8556     YY    -440.5808
        XZ     -21.5908     YZ      10.2686     ZZ    -446.6556

 Total job time:  111.91s(wall), 1342.62s(cpu)
        *  Thank you very much for using Q-Chem.  Have a nice day.  *
