 Q-Chem 4.4, Q-Chem, Inc., Pleasanton, CA (2016)
 Q-Chem 4.4.2 for Intel X86 Linux

User input:
--------------------------------------------------------------
$comment
SP
$end

$rem
MEM_STATIC 5000
MEM_TOTAL 20000
JOBTYPE SP
EXCHANGE B3LYP
BASIS 6-31g(d,p)
$end

$molecule
0 1
C         -26.752000     20.876000     -4.940000
C         -25.656000     20.017000     -5.258000
N         -27.642000     21.336000     -5.811000
C         -25.499000     19.667000     -6.639000
C         -27.416000     21.106000     -7.129000
C         -26.376000     20.232000     -7.576000
C         -26.168000     20.041000     -9.068000
C         -25.804000     18.835000     -9.706000
C         -26.397000     21.077000    -10.065000
N         -25.664000     18.545000    -11.007000
N         -26.506000     22.344000     -9.739000
C         -26.162000     20.854000    -11.401000
C         -25.964000     19.515000    -11.836000
S         -26.473000     23.110000    -11.131000
N         -26.106000     21.923000    -12.208000
C         -25.805000     19.048000    -13.220000
S         -24.726000     17.724000    -13.675000
C         -26.429000     19.635000    -14.264000
C         -25.039000     18.071000    -15.379000
S         -27.801000     20.688000    -14.405000
C         -25.971000     19.081000    -15.507000
C         -24.726000     17.151000    -16.411000
C         -27.681000     20.408000    -16.186000
C         -26.685000     19.544000    -16.580000
N         -24.793000     17.579000    -17.671000
S         -23.988000     15.603000    -16.303000
C         -24.344000     16.658000    -18.585000
C         -24.038000     15.431000    -18.024000
C         -26.890000     21.232000     -3.524000
H         -25.048000     19.586000     -4.468000
H         -24.656000     19.087000     -7.004000
H         -28.075000     21.704000     -7.756000
H         -25.545000     18.033000     -9.016000
H         -28.353000     21.007000    -16.786000
H         -26.508000     19.199000    -17.593000
H         -24.297000     16.901000    -19.638000
H         -23.773000     14.457000    -18.413000
H         -27.938000     21.323000     -3.210000
C         -25.996000     22.443000     -3.130000
H         -26.591000     20.365000     -2.922000
H         -26.370000     22.910000     -2.211000
H         -26.244000     23.253000     -3.827000
C         -24.477000     22.209000     -3.035000
H         -24.429000     21.466000     -2.230000
C         -23.756000     23.384000     -2.399000
H         -23.995000     21.899000     -3.971000
H         -24.302000     23.770000     -1.530000
H         -23.861000     24.238000     -3.079000
C         -22.366000     22.919000     -1.974000
H         -22.574000     22.143000     -1.227000
C         -21.708000     24.130000     -1.299000
H         -21.851000     22.560000     -2.875000
H         -20.726000     23.831000     -0.913000
H         -22.255000     24.483000     -0.416000
H         -21.379000     24.928000     -1.975000
C         -23.744000     23.276000     -6.765000
C         -22.686000     22.907000     -5.945000
N         -23.956000     22.614000     -7.935000
C         -21.912000     21.797000     -6.283000
C         -23.146000     21.688000     -8.262000
C         -22.130000     21.083000     -7.488000
C         -21.217000     20.021000     -8.062000
C         -19.798000     20.211000     -8.012000
C         -21.604000     18.768000     -8.609000
N         -18.885000     19.304000     -8.480000
N         -22.831000     18.328000     -8.526000
C         -20.640000     17.872000     -9.112000
C         -19.240000     18.196000     -9.058000
S         -22.810000     16.821000     -9.220000
N         -21.198000     16.675000     -9.541000
C         -18.082000     17.523000     -9.732000
S         -16.341000     17.479000     -9.120000
C         -18.099000     16.848000    -10.912000
C         -15.806000     16.688000    -10.609000
S         -19.368000     16.857000    -12.152000
C         -16.861000     16.417000    -11.399000
C         -14.401000     16.761000    -11.105000
C         -18.153000     16.067000    -13.260000
C         -16.919000     15.871000    -12.746000
N         -13.574000     17.567000    -10.461000
S         -13.798000     15.767000    -12.358000
C         -12.335000     17.302000    -10.938000
C         -12.291000     16.581000    -12.162000
C         -24.704000     24.409000     -6.305000
H         -22.549000     23.394000     -4.985000
H         -21.170000     21.581000     -5.519000
H         -23.411000     21.408000     -9.281000
H         -19.373000     21.163000     -7.696000
H         -18.484000     15.851000    -14.267000
H         -16.131000     15.430000    -13.345000
H         -11.523000     17.879000    -10.515000
H         -11.476000     16.356000    -12.837000
H         -25.473000     24.024000     -5.624000
C         -25.308000     25.144000     -7.516000
H         -24.161000     25.104000     -5.651000
H         -25.602000     24.533000     -8.378000
H         -24.453000     25.790000     -7.753000
C         -26.510000     26.042000     -7.100000
H         -26.326000     26.539000     -6.139000
C         -27.886000     25.259000     -7.038000
H         -26.503000     26.868000     -7.822000
H         -27.781000     24.512000     -6.241000
H         -28.156000     24.797000     -7.995000
C         -29.073000     26.053000     -6.501000
H         -29.977000     25.431000     -6.464000
C         -29.391000     27.174000     -7.489000
H         -28.937000     26.541000     -5.528000
H         -30.477000     27.326000     -7.456000
H         -29.178000     26.864000     -8.520000
H         -28.904000     28.153000     -7.401000
$end

--------------------------------------------------------------

             Standard Nuclear Orientation (Angstroms)
    I     Atom           X                Y                Z
 ----------------------------------------------------------------
    1      C       5.6639275840     1.4865400687    -2.5215642868
    2      C       4.3014191923     1.8695357119    -2.7141940349
    3      N       6.0724602455     0.2942792230    -2.1044837906
    4      C       3.3099364121     0.8871612005    -2.3882918779
    5      C       5.1307215937    -0.5848442379    -1.6786079259
    6      C       3.7328277665    -0.3373658093    -1.8516173912
    7      C       2.7363610643    -1.3569094947    -1.3287466758
    8      C       1.5199633237    -1.7192856751    -1.9476457309
    9      C       2.9446747153    -2.1678670960    -0.1376550792
   10      N       0.6126146747    -2.6461881962    -1.6101977413
   11      N       3.8641601582    -1.8736374813     0.7519636336
   12      C       1.9915347699    -3.0542705341     0.3046832410
   13      C       0.9182039496    -3.3809131323    -0.5685953876
   14      S       3.5509437112    -2.8417489454     1.9726866367
   15      N       2.1210844937    -3.5345921282     1.5495342503
   16      C      -0.1390568595    -4.3750071872    -0.3388072423
   17      S      -1.8092963743    -4.1498080515    -0.8715617000
   18      C       0.0708068118    -5.5165076334     0.3517106582
   19      C      -2.2717167894    -5.6159489935    -0.0005897728
   20      S       1.4922448788    -6.4083038783     0.7936238615
   21      C      -1.1639373839    -6.2192666948     0.5597141984
   22      C      -3.4988226499    -6.2847504766    -0.2378844908
   23      C       0.3614245371    -7.7124724953     1.3276187805
   24      C      -0.9746222064    -7.4519905172     1.1254400517
   25      N      -3.8596173142    -7.2475732543     0.6095071005
   26      S      -4.7749973939    -5.8705179906    -1.3113841277
   27      C      -5.1195134275    -7.7393279625     0.3727010813
   28      C      -5.7026612848    -7.2282802894    -0.7730104235
   29      C       6.6634789261     2.5083036391    -2.8497903076
   30      H       4.0579976375     2.8217304365    -3.1763586735
   31      H       2.2445533933     1.0974966546    -2.4197882284
   32      H       5.5806776943    -1.4304208278    -1.1613519563
   33      H       1.2622133243    -1.1012899644    -2.8067331766
   34      H       0.8343287067    -8.5457543584     1.8300010880
   35      H      -1.7911166765    -8.1409706137     1.3129666015
   36      H      -5.5522468367    -8.4883493432     1.0221437408
   37      H      -6.6017402604    -7.4434465460    -1.3347777042
   38      H       7.5785902503     2.0827146997    -3.2817929916
   39      C       6.9099313582     3.4931846996    -1.6706959537
   40      H       6.2993367303     3.0790485113    -3.7130079813
   41      H       7.8775864263     3.9953038314    -1.7892119720
   42      H       7.1610212563     2.8776572217    -0.7980604130
   43      C       5.8063991903     4.5194003751    -1.3540887182
   44      H       5.7809115560     5.0948485078    -2.2871416788
   45      C       6.2724948863     5.5740920497    -0.3664945334
   46      H       4.8416576175     4.0880743216    -1.0578598652
   47      H       7.2874890637     5.9202919512    -0.5949796490
   48      H       6.4592699851     5.0673555588     0.5880075312
   49      C       5.2984726159     6.7474825187    -0.4246789288
   50      H       5.3988144737     7.1113841380    -1.4547061727
   51      C       5.8461567333     7.7947043908     0.5543402018
   52      H       4.3027719822     6.3594954319    -0.1717890941
   53      H       5.2171974953     8.6916443646     0.5030570636
   54      H       6.8511501275     8.1478942606     0.2921338069
   55      H       5.7117900972     7.5645525616     1.6178235080
   56      C       4.0019123046     2.2488263880     1.3249034147
   57      C       3.5031234146     3.5184806324     1.0658421423
   58      N       3.1983557693     1.1615269810     1.1694527979
   59      C       2.2129736582     3.6564992626     0.5540956584
   60      C       1.9883916032     1.3478929627     0.8205123481
   61      C       1.3678356177     2.5339432484     0.3671339314
   62      C      -0.1095176115     2.5859861539     0.0421601290
   63      C      -0.9402556422     3.5525910705     0.6961557403
   64      C      -0.7981451991     1.8063490658    -0.9257990936
   65      N      -2.2807430550     3.6995155019     0.4579358677
   66      N      -0.1643281543     1.0413502575    -1.7737795043
   67      C      -2.1848259897     1.9603890779    -1.1220363466
   68      C      -2.9286610174     2.9301166286    -0.3642567422
   69      S      -1.3392498055     0.3885310894    -2.7466681143
   70      N      -2.6682987971     1.1658968962    -2.1531765979
   71      C      -4.4127637237     3.0990043101    -0.2335467256
   72      S      -5.3029956084     4.6786772877     0.1124033795
   73      C      -5.3600291816     2.1281119370    -0.3250352596
   74      C      -6.8413774151     3.8164073508     0.2498769135
   75      S      -5.1244043516     0.3703160880    -0.2732984947
   76      C      -6.6736058574     2.5128718628    -0.0385913448
   77      C      -8.0012521374     4.3477278324     1.0230257830
   78      C      -6.9290358450     0.2347545008    -0.0432610431
   79      C      -7.6081402776     1.4003652873     0.0311477191
   80      N      -7.8011089379     5.4427606985     1.7365709615
   81      S      -9.5755488894     3.6901460663     0.9189587004
   82      C      -9.0210508277     5.8509840732     2.1584364161
   83      C     -10.0564559325     4.8815554036     2.0684512871
   84      C       5.4916202283     2.0863419787     1.7387368580
   85      H       4.1571920318     4.3817514134     1.1328928884
   86      H       1.9815531016     4.6946458951     0.3313579305
   87      H       1.5022703417     0.3764937988     0.9045110592
   88      H      -0.5557720796     4.1532281494     1.5196801720
   89      H      -7.3301193102    -0.7640256031     0.0655339850
   90      H      -8.6797903904     1.4100179867     0.1914563622
   91      H      -9.0454999003     6.7471940514     2.7645815454
   92      H     -11.0685630206     4.8704906803     2.4505400388
   93      H       6.1476889864     2.0756175390     0.8596431366
   94      C       5.6832426122     0.8441363266     2.6285503102
   95      H       5.8288908148     2.9964591820     2.2520839411
   96      H       5.1179884957    -0.0567155378     2.3606796282
   97      H       5.3336251986     1.2719358473     3.5768462736
   98      C       7.1877766810     0.4712418954     2.7754890025
   99      H       7.8159916252     1.3663687591     2.8675752752
  100      C       7.7271629689    -0.4368414911     1.5944911212
  101      H       7.2626641828     0.0018877318     3.7642799466
  102      H       7.6569972141     0.1687508105     0.6820341463
  103      H       7.1778573823    -1.3809374798     1.4988922887
  104      C       9.2267393252    -0.7175374217     1.6104456253
  105      H       9.5213675455    -1.3268259339     0.7459048682
  106      C       9.5453983733    -1.5710034654     2.8368065523
  107      H       9.8885846266     0.1550775218     1.6726787151
  108      H      10.3770913688    -2.2292792863     2.5565411335
  109      H       8.7143275075    -2.2473612894     3.0740644496
  110      H       9.7874182361    -1.1016189508     3.7982942347
 ----------------------------------------------------------------

    9   -5663.4584299710      7.63E-06 Convergence criterion met
 Total energy in the final basis set = -5663.4584299710

                    Orbital Energies (a.u.)
 --------------------------------------------------------------

 Alpha MOs
 -- Occupied --
-88.990 -88.980 -88.929 -88.919 -88.919 -88.917 -88.909 -88.906
-14.397 -14.386 -14.386 -14.379 -14.349 -14.346 -14.342 -14.333
-14.327 -14.325 -10.269 -10.267 -10.265 -10.260 -10.260 -10.251
-10.250 -10.249 -10.245 -10.241 -10.236 -10.233 -10.233 -10.231
-10.231 -10.231 -10.230 -10.229 -10.229 -10.228 -10.228 -10.226
-10.226 -10.225 -10.225 -10.224 -10.224 -10.222 -10.222 -10.218
-10.216 -10.208 -10.208 -10.205 -10.201 -10.199 -10.197 -10.189
-10.189 -10.187 -10.183 -10.179 -10.178 -10.178 -10.177 -10.175
-10.173 -10.171 -10.171 -10.160  -8.045  -8.037  -7.992  -7.981
 -7.979  -7.975  -7.969  -7.966  -6.010  -6.005  -6.003  -6.002
 -5.996  -5.995  -5.955  -5.952  -5.949  -5.945  -5.943  -5.941
 -5.939  -5.939  -5.938  -5.936  -5.935  -5.934  -5.931  -5.931
 -5.931  -5.927  -5.925  -5.922  -1.055  -1.038  -0.977  -0.969
 -0.965  -0.965  -0.957  -0.935  -0.918  -0.911  -0.908  -0.906
 -0.841  -0.835  -0.830  -0.827  -0.819  -0.817  -0.808  -0.806
 -0.802  -0.800  -0.796  -0.794  -0.790  -0.784  -0.767  -0.762
 -0.748  -0.746  -0.744  -0.737  -0.721  -0.718  -0.711  -0.706
 -0.692  -0.690  -0.672  -0.670  -0.657  -0.656  -0.643  -0.639
 -0.638  -0.637  -0.628  -0.626  -0.615  -0.607  -0.603  -0.596
 -0.594  -0.591  -0.584  -0.580  -0.578  -0.578  -0.573  -0.554
 -0.551  -0.549  -0.543  -0.540  -0.529  -0.517  -0.516  -0.511
 -0.509  -0.505  -0.502  -0.497  -0.491  -0.486  -0.483  -0.476
 -0.474  -0.471  -0.468  -0.467  -0.466  -0.454  -0.451  -0.450
 -0.445  -0.439  -0.438  -0.436  -0.435  -0.434  -0.433  -0.430
 -0.429  -0.428  -0.425  -0.422  -0.418  -0.416  -0.415  -0.410
 -0.410  -0.409  -0.408  -0.405  -0.401  -0.399  -0.395  -0.395
 -0.394  -0.393  -0.392  -0.385  -0.384  -0.381  -0.378  -0.378
 -0.377  -0.376  -0.373  -0.371  -0.367  -0.363  -0.360  -0.358
 -0.356  -0.350  -0.348  -0.347  -0.346  -0.345  -0.343  -0.340
 -0.337  -0.335  -0.333  -0.331  -0.329  -0.328  -0.322  -0.320
 -0.318  -0.317  -0.315  -0.305  -0.302  -0.301  -0.299  -0.299
 -0.296  -0.293  -0.293  -0.289  -0.287  -0.284  -0.281  -0.277
 -0.277  -0.270  -0.266  -0.263  -0.253  -0.253  -0.247  -0.245
 -0.242  -0.240  -0.237  -0.226  -0.198  -0.189

          Ground-State Mulliken Net Atomic Charges

     Atom                 Charge (a.u.)
  ----------------------------------------
      1 C                     0.294318
      2 C                    -0.121961
      3 N                    -0.486982
      4 C                    -0.092917
      5 C                     0.085900
      6 C                     0.042883
      7 C                     0.047318
      8 C                     0.067442
      9 C                     0.195723
     10 N                    -0.504676
     11 N                    -0.486792
     12 C                     0.187674
     13 C                     0.277804
     14 S                     0.590710
     15 N                    -0.530845
     16 C                    -0.240251
     17 S                     0.303188
     18 C                    -0.085367
     19 C                    -0.199569
     20 S                     0.255862
     21 C                     0.132286
     22 C                     0.045968
     23 C                    -0.313398
     24 C                    -0.033602
     25 N                    -0.447050
     26 S                     0.260448
     27 C                     0.124692
     28 C                    -0.318277
     29 C                    -0.238029
     30 H                     0.098301
     31 H                     0.130648
     32 H                     0.117872
     33 H                     0.082376
     34 H                     0.127162
     35 H                     0.133645
     36 H                     0.114789
     37 H                     0.138584
     38 H                     0.109054
     39 C                    -0.193549
     40 H                     0.092442
     41 H                     0.090676
     42 H                     0.103178
     43 C                    -0.176615
     44 H                     0.088187
     45 C                    -0.178750
     46 H                     0.105994
     47 H                     0.088543
     48 H                     0.088088
     49 C                    -0.172063
     50 H                     0.104175
     51 C                    -0.323341
     52 H                     0.091710
     53 H                     0.093318
     54 H                     0.108705
     55 H                     0.106423
     56 C                     0.279434
     57 C                    -0.127980
     58 N                    -0.452642
     59 C                    -0.089869
     60 C                     0.092951
     61 C                     0.030210
     62 C                     0.023165
     63 C                     0.050452
     64 C                     0.270646
     65 N                    -0.481208
     66 N                    -0.572692
     67 C                     0.163920
     68 C                     0.284005
     69 S                     0.618697
     70 N                    -0.531126
     71 C                    -0.213930
     72 S                     0.318778
     73 C                    -0.086593
     74 C                    -0.239159
     75 S                     0.246103
     76 C                     0.120361
     77 C                     0.055971
     78 C                    -0.301230
     79 C                    -0.045204
     80 N                    -0.395690
     81 S                     0.286253
     82 C                     0.096256
     83 C                    -0.309459
     84 C                    -0.252297
     85 H                     0.098056
     86 H                     0.100333
     87 H                     0.091083
     88 H                     0.119997
     89 H                     0.128117
     90 H                     0.123743
     91 H                     0.108977
     92 H                     0.135681
     93 H                     0.138253
     94 C                    -0.181707
     95 H                     0.101897
     96 H                     0.139464
     97 H                     0.088377
     98 C                    -0.188722
     99 H                     0.081655
    100 C                    -0.175911
    101 H                     0.087736
    102 H                     0.107477
    103 H                     0.093962
    104 C                    -0.176394
    105 H                     0.097263
    106 C                    -0.317094
    107 H                     0.092901
    108 H                     0.090023
    109 H                     0.093237
    110 H                     0.101423
  ----------------------------------------
  Sum of atomic charges =     0.000000

                    Cartesian Multipole Moments
 -----------------------------------------------------------------
    Charge (ESU x 10^10)
                 0.0000
    Dipole Moment (Debye)
         X      -2.2679      Y       0.7062      Z       0.0376
       Tot       2.3756
    Quadrupole Moments (Debye-Ang)
        XX    -394.0317     XY      25.3749     YY    -423.9291
        XZ      -1.4756     YZ      -3.2999     ZZ    -448.9806

 Total job time:  94.54s(wall), 1155.11s(cpu)
        *  Thank you very much for using Q-Chem.  Have a nice day.  *
