 Q-Chem 4.4, Q-Chem, Inc., Pleasanton, CA (2016)
 Q-Chem 4.4.2 for Intel X86 Linux

User input:
--------------------------------------------------------------
$comment
SP
$end

$rem
MEM_STATIC 5000
MEM_TOTAL 20000
JOBTYPE SP
EXCHANGE B3LYP
BASIS 6-31g(d,p)
$end

$molecule
0 1
C         -23.271000     10.167000     -7.780000
C         -23.575000      8.856000     -8.007000
N         -23.165000     10.677000     -6.566000
C         -23.960000      8.066000     -6.897000
C         -23.380000      9.854000     -5.542000
C         -23.883000      8.538000     -5.572000
C         -24.205000      7.689000     -4.360000
C         -24.708000      8.273000     -3.163000
C         -23.702000      6.401000     -4.215000
N         -24.870000      7.597000     -1.986000
N         -23.051000      5.716000     -5.175000
C         -23.840000      5.725000     -2.986000
C         -24.482000      6.335000     -1.920000
S         -22.606000      4.300000     -4.465000
N         -23.238000      4.502000     -2.932000
C         -24.713000      5.616000     -0.697000
S         -24.726000      3.837000     -0.440000
C         -25.126000      6.204000      0.507000
C         -25.208000      4.014000      1.224000
S         -25.184000      7.902000      0.928000
C         -25.374000      5.331000      1.547000
C         -25.308000      2.876000      2.147000
C         -25.518000      7.484000      2.585000
C         -25.680000      6.121000      2.754000
N         -25.323000      1.677000      1.568000
S         -25.222000      2.941000      3.942000
C         -25.259000      0.733000      2.539000
C         -25.028000      1.173000      3.833000
C         -22.899000     11.077000     -8.940000
H         -23.702000      8.481000     -9.018000
H         -24.165000      7.012000     -7.056000
H         -23.305000     10.358000     -4.579000
H         -25.020000      9.315000     -3.213000
H         -25.639000      8.245000      3.344000
H         -26.065000      5.705000      3.678000
H         -25.257000     -0.322000      2.301000
H         -24.922000      0.486000      4.662000
H         -21.923000     11.557000     -8.798000
C         -23.948000     12.175000     -9.080000
H         -22.840000     10.524000     -9.886000
H         -23.971000     12.771000     -8.159000
H         -24.937000     11.705000     -9.152000
C         -23.750000     13.051000    -10.317000
H         -22.813000     13.611000    -10.205000
C         -24.825000     14.075000    -10.512000
H         -23.642000     12.383000    -11.180000
H         -24.680000     14.770000     -9.675000
H         -25.847000     13.696000    -10.394000
C         -24.681000     14.710000    -11.940000
H         -25.164000     15.693000    -11.880000
C         -25.242000     13.821000    -13.020000
H         -23.667000     15.082000    -12.134000
H         -24.557000     12.990000    -13.228000
H         -25.234000     14.466000    -13.908000
H         -26.256000     13.493000    -12.760000
C         -14.388000     -3.633000    -10.427000
C         -14.822000     -2.951000     -9.238000
N         -15.320000     -3.662000    -11.421000
C         -16.111000     -2.391000     -9.155000
C         -16.508000     -3.089000    -11.401000
C         -17.003000     -2.467000    -10.195000
C         -18.456000     -2.227000     -9.892000
C         -18.835000     -1.136000     -9.103000
C         -19.489000     -3.113000    -10.251000
N         -20.090000     -0.817000     -8.747000
N         -19.403000     -4.157000    -11.069000
C         -20.808000     -2.850000     -9.838000
C         -21.069000     -1.623000     -9.134000
S         -20.851000     -4.937000    -10.977000
N         -21.676000     -3.728000    -10.313000
C         -22.488000     -1.216000     -8.838000
S         -23.954000     -2.146000     -8.946000
C         -22.827000      0.045000     -8.380000
C         -25.018000     -0.790000     -8.588000
S         -21.764000      1.432000     -7.988000
C         -24.184000      0.258000     -8.350000
C         -26.485000     -0.754000     -8.506000
C         -23.329000      2.189000     -7.567000
C         -24.519000      1.534000     -7.902000
N         -26.978000     -1.976000     -8.586000
S         -27.616000      0.575000     -8.715000
C         -28.321000     -1.910000     -8.795000
C         -28.874000     -0.596000     -8.816000
C         -13.046000     -4.318000    -10.526000
H         -14.245000     -2.901000     -8.319000
H         -16.265000     -1.877000     -8.211000
H         -17.148000     -3.183000    -12.277000
H         -18.084000     -0.382000     -8.869000
H         -23.308000      3.110000     -6.999000
H         -25.507000      1.932000     -7.698000
H         -28.832000     -2.851000     -8.952000
H         -29.899000     -0.389000     -9.096000
H         -12.273000     -3.599000    -10.227000
C         -12.750000     -4.957000    -11.927000
H         -13.071000     -5.193000     -9.865000
H         -12.854000     -4.181000    -12.695000
H         -13.424000     -5.749000    -12.277000
C         -11.384000     -5.651000    -11.863000
H         -10.625000     -4.875000    -12.020000
C         -11.298000     -6.818000    -12.861000
H         -11.282000     -5.976000    -10.820000
H         -12.081000     -7.535000    -12.586000
H         -10.376000     -7.399000    -12.737000
C         -11.484000     -6.450000    -14.353000
H         -11.449000     -7.269000    -15.082000
C         -10.312000     -5.496000    -14.829000
H         -12.482000     -6.002000    -14.430000
H         -10.454000     -4.622000    -14.182000
H         -10.481000     -5.325000    -15.900000
H          -9.343000     -5.996000    -14.706000
$end

--------------------------------------------------------------

             Standard Nuclear Orientation (Angstroms)
    I     Atom           X                Y                Z
 ----------------------------------------------------------------
    1      C       5.1925079762     5.8652017213    -1.2309177505
    2      C       4.3415805638     5.1574948272    -0.4323318185
    3      N       6.1106055027     5.2889421544    -1.9860030725
    4      C       4.5770151557     3.7693671003    -0.2836813337
    5      C       6.1907406713     3.9611027309    -1.9354974276
    6      C       5.5416095589     3.0817895630    -1.0460019798
    7      C       5.7567249612     1.5845763701    -0.9717926909
    8      C       7.0333779394     1.0092685166    -1.2287986192
    9      C       4.6933171326     0.6900387422    -1.0158860274
   10      N       7.2648775318    -0.3337096522    -1.3354127681
   11      N       3.3931657926     1.0354216729    -0.9455786712
   12      C       4.9391495217    -0.6898630908    -1.1638669983
   13      C       6.2382639999    -1.1630237732    -1.2589487577
   14      S       2.5643062769    -0.3745465743    -1.1249175828
   15      N       3.8215000848    -1.4638222390    -1.2774274363
   16      C       6.5001470834    -2.5753869772    -1.3108951796
   17      S       5.4289872201    -3.9233148055    -0.7944011170
   18      C       7.7362895572    -3.1445494080    -1.6484376389
   19      C       6.6586746834    -5.1130091168    -1.1185078715
   20      S       9.1390359066    -2.3682426009    -2.3509043076
   21      C       7.8078322859    -4.5201095575    -1.5592809619
   22      C       6.4125153896    -6.5573236347    -1.0168507244
   23      C       9.8832203894    -3.9235743619    -2.5939301682
   24      C       9.1272795125    -4.9501622269    -2.0579779819
   25      N       5.3057982584    -6.8981741601    -0.3595341258
   26      S       7.3379375985    -7.8627327986    -1.8373058725
   27      C       5.1310461899    -8.2369553626    -0.4828208105
   28      C       5.9777211733    -8.9067164187    -1.3522796078
   29      C       5.0196996344     7.3675638993    -1.3894395568
   30      H       3.6309903578     5.6658008125     0.2123088447
   31      H       3.8845108623     3.1865133777     0.3154358014
   32      H       6.9914115099     3.5675194251    -2.5608200561
   33      H       7.8789921287     1.6914375158    -1.3008409631
   34      H      10.8555441841    -4.0158138999    -3.0586035007
   35      H       9.5212495780    -5.9554904138    -1.9622710120
   36      H       4.2893697028    -8.7404427376    -0.0270202464
   37      H       5.8827306016    -9.9676074515    -1.5418396451
   38      H       4.9115724193     7.6671449512    -2.4390583918
   39      C       6.2405856342     8.0815934564    -0.8191728059
   40      H       4.1247124403     7.7297256452    -0.8678623409
   41      H       7.1331980863     7.7697110051    -1.3759118353
   42      H       6.3983931443     7.7343346765     0.2097650588
   43      C       6.0954853178     9.6030014553    -0.7873514431
   44      H       6.0466163458     9.9732406955    -1.8191691249
   45      C       7.2511794722    10.3080841893    -0.1474644533
   46      H       5.1395599045     9.8327760814    -0.3014839453
   47      H       8.0803830539    10.1402977501    -0.8466698101
   48      H       7.5860946896     9.8730082720     0.8015296159
   49      C       6.8716715992    11.8123413521     0.0898732014
   50      H       7.8228858032    12.3563924916     0.1386368745
   51      C       6.0016306099    11.9971426974     1.3065568660
   52      H       6.4969523740    12.2995078808    -0.8192309047
   53      H       4.9723598970    11.6832099269     1.0941939335
   54      H       5.9782727211    13.0865936296     1.4376449097
   55      H       6.4403353876    11.4886238644     2.1739245589
   56      C     -10.1864314514    -0.2027240055    -2.9695371614
   57      C      -8.8831354544    -0.7017212890    -3.3154016654
   58      N     -10.2338338070     0.4378065872    -1.7674662082
   59      C      -7.7883750444    -0.5282660695    -2.4474022808
   60      C      -9.2152949036     0.6771974503    -0.9641334522
   61      C      -7.9123064317     0.1204947856    -1.2445762900
   62      C      -6.8364400677    -0.0956621929    -0.2167602912
   63      C      -5.4898120711    -0.0221235229    -0.5877429088
   64      C      -7.0868434896    -0.4999418336     1.1079366925
   65      N      -4.4359059817    -0.2076856865     0.2236575092
   66      N      -8.2639498718    -0.5499104472     1.7230624540
   67      C      -6.0083276356    -0.7711292989     1.9697718921
   68      C      -4.6744241217    -0.5336812797     1.4864646877
   69      S      -7.9935780727    -1.2669818039     3.1812379440
   70      N      -6.3990056702    -1.0663879563     3.1986437318
   71      C      -3.5062318172    -0.6330206047     2.4310727748
   72      S      -3.4317276288    -1.2979537515     4.0366982094
   73      C      -2.2354956146    -0.1953772153     2.1016736747
   74      C      -1.7705867998    -0.7944509360     4.3301126958
   75      S      -1.6427837633     0.5114894751     0.5666055513
   76      C      -1.3687948956    -0.2133665106     3.1676118759
   77      C      -0.9402465487    -0.9771964575     5.5289655399
   78      C      -0.0959663018     0.5301241886     1.4646720792
   79      C      -0.0950925597     0.2419416092     2.8337228590
   80      N      -1.5564138595    -1.7568594320     6.3979859604
   81      S       0.4449063235    -0.0694480576     6.1175463441
   82      C      -0.9203130469    -1.6881620488     7.5989615746
   83      C       0.2507758919    -0.8753640639     7.6264594517
   84      C     -11.4020857718    -0.4398658114    -3.8332143796
   85      H      -8.6753623183    -1.3068677824    -4.1932501976
   86      H      -6.8715110317    -0.9235159652    -2.8742346860
   87      H      -9.3980354259     1.2151667727    -0.0351518002
   88      H      -5.2469326446     0.3633630291    -1.5775321301
   89      H       0.8127916569     0.6997739059     0.9019252926
   90      H       0.7951903794     0.2486129265     3.4530093692
   91      H      -1.3756291150    -2.2293832027     8.4181184220
   92      H       0.7806802918    -0.6304451306     8.5381008521
   93      H     -11.1609418564    -0.1239942295    -4.8559390521
   94      C     -12.7136573359     0.2335787055    -3.2993693506
   95      H     -11.6434790714    -1.5085114040    -3.7793917798
   96      H     -12.5276816999     1.3062438402    -3.1666343832
   97      H     -13.0823092836    -0.0813330206    -2.3150084684
   98      C     -13.8638431933    -0.1301682689    -4.2461790633
   99      H     -13.8118562386     0.5657235439    -5.0923102242
  100      C     -15.2174969432    -0.1238468486    -3.5161992245
  101      H     -13.6000406840    -1.1185923602    -4.6427948116
  102      H     -15.1559759173    -0.8730127228    -2.7175950320
  103      H     -16.0287488592    -0.5033329205    -4.1493513785
  104      C     -15.6399379668     1.2233627253    -2.8816490330
  105      H     -16.5914903217     1.2469160860    -2.3362864427
  106      C     -15.8463482134     2.3161220117    -4.0101648513
  107      H     -14.8553828142     1.4737149423    -2.1574708919
  108      H     -14.8439802433     2.3796317426    -4.4504760669
  109      H     -16.1945099459     3.2193478175    -3.4926616611
  110      H     -16.6274630330     1.9944839476    -4.7105208996
 ----------------------------------------------------------------

   10   -5663.5092985234      3.50E-06 Convergence criterion met
 Total energy in the final basis set = -5663.5092985234

                    Orbital Energies (a.u.)
 --------------------------------------------------------------

 Alpha MOs
 -- Occupied --
-88.989 -88.986 -88.938 -88.936 -88.927 -88.918 -88.914 -88.910
-14.394 -14.386 -14.381 -14.373 -14.353 -14.352 -14.349 -14.342
-14.325 -14.323 -10.277 -10.271 -10.267 -10.259 -10.256 -10.254
-10.252 -10.250 -10.246 -10.244 -10.239 -10.238 -10.236 -10.235
-10.234 -10.234 -10.234 -10.232 -10.230 -10.229 -10.228 -10.227
-10.226 -10.224 -10.224 -10.224 -10.223 -10.220 -10.216 -10.212
-10.211 -10.209 -10.207 -10.204 -10.200 -10.197 -10.196 -10.195
-10.192 -10.179 -10.176 -10.176 -10.175 -10.175 -10.175 -10.173
-10.171 -10.171 -10.170 -10.169  -8.044  -8.042  -7.999  -7.996
 -7.985  -7.977  -7.972  -7.970  -6.009  -6.007  -6.003  -6.002
 -6.001  -5.999  -5.963  -5.959  -5.959  -5.957  -5.955  -5.952
 -5.949  -5.945  -5.941  -5.941  -5.937  -5.937  -5.935  -5.934
 -5.933  -5.931  -5.929  -5.927  -1.044  -1.033  -0.973  -0.971
 -0.965  -0.965  -0.949  -0.933  -0.916  -0.915  -0.906  -0.904
 -0.848  -0.840  -0.834  -0.833  -0.815  -0.809  -0.808  -0.806
 -0.805  -0.804  -0.796  -0.794  -0.786  -0.780  -0.767  -0.765
 -0.751  -0.745  -0.741  -0.740  -0.728  -0.715  -0.712  -0.707
 -0.697  -0.693  -0.676  -0.675  -0.655  -0.653  -0.648  -0.643
 -0.637  -0.635  -0.629  -0.621  -0.611  -0.610  -0.604  -0.601
 -0.595  -0.591  -0.583  -0.579  -0.577  -0.574  -0.566  -0.550
 -0.544  -0.543  -0.542  -0.542  -0.524  -0.524  -0.521  -0.517
 -0.506  -0.505  -0.499  -0.498  -0.491  -0.483  -0.482  -0.478
 -0.476  -0.473  -0.469  -0.469  -0.465  -0.464  -0.453  -0.450
 -0.445  -0.442  -0.441  -0.437  -0.436  -0.436  -0.433  -0.432
 -0.432  -0.424  -0.423  -0.421  -0.418  -0.417  -0.416  -0.414
 -0.413  -0.406  -0.403  -0.402  -0.400  -0.396  -0.395  -0.394
 -0.393  -0.392  -0.392  -0.390  -0.389  -0.385  -0.383  -0.382
 -0.379  -0.379  -0.374  -0.373  -0.371  -0.366  -0.365  -0.356
 -0.354  -0.353  -0.350  -0.350  -0.348  -0.347  -0.342  -0.339
 -0.338  -0.337  -0.335  -0.330  -0.327  -0.322  -0.319  -0.318
 -0.317  -0.312  -0.309  -0.305  -0.303  -0.301  -0.297  -0.296
 -0.295  -0.295  -0.294  -0.294  -0.292  -0.289  -0.287  -0.283
 -0.279  -0.276  -0.267  -0.260  -0.252  -0.252  -0.251  -0.249
 -0.240  -0.239  -0.232  -0.229  -0.197  -0.194

          Ground-State Mulliken Net Atomic Charges

     Atom                 Charge (a.u.)
  ----------------------------------------
      1 C                     0.283230
      2 C                    -0.116476
      3 N                    -0.470843
      4 C                    -0.091211
      5 C                     0.054827
      6 C                     0.058180
      7 C                     0.007723
      8 C                     0.055957
      9 C                     0.261636
     10 N                    -0.544365
     11 N                    -0.565894
     12 C                     0.206951
     13 C                     0.336510
     14 S                     0.604991
     15 N                    -0.560445
     16 C                    -0.228574
     17 S                     0.373262
     18 C                    -0.135371
     19 C                    -0.256413
     20 S                     0.294847
     21 C                     0.176422
     22 C                     0.065367
     23 C                    -0.300226
     24 C                    -0.094303
     25 N                    -0.417496
     26 S                     0.273968
     27 C                     0.126821
     28 C                    -0.304982
     29 C                    -0.218388
     30 H                     0.091757
     31 H                     0.107462
     32 H                     0.085489
     33 H                     0.120548
     34 H                     0.134878
     35 H                     0.107339
     36 H                     0.115072
     37 H                     0.131809
     38 H                     0.113491
     39 C                    -0.179270
     40 H                     0.088778
     41 H                     0.112745
     42 H                     0.085233
     43 C                    -0.163300
     44 H                     0.091349
     45 C                    -0.173322
     46 H                     0.083706
     47 H                     0.087355
     48 H                     0.084999
     49 C                    -0.184851
     50 H                     0.085418
     51 C                    -0.305272
     52 H                     0.089274
     53 H                     0.108050
     54 H                     0.102144
     55 H                     0.106889
     56 C                     0.285688
     57 C                    -0.136551
     58 N                    -0.494290
     59 C                    -0.056651
     60 C                     0.110654
     61 C                    -0.008168
     62 C                     0.036702
     63 C                     0.045838
     64 C                     0.247214
     65 N                    -0.529433
     66 N                    -0.566487
     67 C                     0.215628
     68 C                     0.324852
     69 S                     0.596587
     70 N                    -0.548964
     71 C                    -0.240606
     72 S                     0.344511
     73 C                    -0.103595
     74 C                    -0.216267
     75 S                     0.285545
     76 C                     0.147780
     77 C                     0.044121
     78 C                    -0.311257
     79 C                    -0.084268
     80 N                    -0.404055
     81 S                     0.299130
     82 C                     0.109753
     83 C                    -0.321811
     84 C                    -0.247153
     85 H                     0.079974
     86 H                     0.097870
     87 H                     0.117045
     88 H                     0.112793
     89 H                     0.108016
     90 H                     0.112465
     91 H                     0.115436
     92 H                     0.139672
     93 H                     0.120325
     94 C                    -0.169542
     95 H                     0.125369
     96 H                     0.108104
     97 H                     0.110836
     98 C                    -0.179159
     99 H                     0.093995
    100 C                    -0.186215
    101 H                     0.087334
    102 H                     0.088595
    103 H                     0.084427
    104 C                    -0.185833
    105 H                     0.090219
    106 C                    -0.314086
    107 H                     0.100959
    108 H                     0.109712
    109 H                     0.099435
    110 H                     0.104331
  ----------------------------------------
  Sum of atomic charges =     0.000000

                    Cartesian Multipole Moments
 -----------------------------------------------------------------
    Charge (ESU x 10^10)
                 0.0000
    Dipole Moment (Debye)
         X       1.5711      Y      -2.6883      Z       0.5294
       Tot       3.1584
    Quadrupole Moments (Debye-Ang)
        XX    -440.4901     XY     -12.0575     YY    -411.0230
        XZ      11.5549     YZ      16.8575     ZZ    -420.3400

 Total job time:  85.75s(wall), 998.61s(cpu)
        *  Thank you very much for using Q-Chem.  Have a nice day.  *
