 Q-Chem 4.4, Q-Chem, Inc., Pleasanton, CA (2016)
 Q-Chem 4.4.2 for Intel X86 Linux

User input:
--------------------------------------------------------------
$comment
SP
$end

$rem
MEM_STATIC 5000
MEM_TOTAL 20000
JOBTYPE SP
EXCHANGE B3LYP
BASIS 6-31g(d,p)
$end

$molecule
0 1
C         -17.442000     23.034000     -4.842000
C         -18.255000     23.036000     -3.719000
N         -17.165000     21.864000     -5.411000
C         -18.742000     21.836000     -3.130000
C         -17.732000     20.727000     -5.030000
C         -18.453000     20.627000     -3.805000
C         -19.068000     19.350000     -3.377000
C         -20.045000     18.701000     -4.232000
C         -18.728000     18.648000     -2.254000
N         -20.568000     17.477000     -4.024000
N         -17.912000     19.079000     -1.302000
C         -19.247000     17.380000     -2.010000
C         -20.171000     16.771000     -2.888000
S         -17.842000     17.856000     -0.219000
N         -18.956000     16.862000     -0.836000
C         -20.995000     15.633000     -2.551000
S         -21.460000     15.170000     -0.944000
C         -21.857000     15.033000     -3.452000
C         -22.585000     13.977000     -1.542000
S         -21.807000     15.087000     -5.168000
C         -22.647000     14.050000     -2.929000
C         -23.248000     13.024000     -0.725000
C         -22.973000     13.745000     -5.235000
C         -23.298000     13.271000     -3.953000
N         -24.088000     12.190000     -1.280000
S         -22.740000     12.606000      0.891000
C         -24.471000     11.241000     -0.358000
C         -23.790000     11.222000      0.867000
C         -16.842000     24.304000     -5.350000
H         -18.518000     24.030000     -3.369000
H         -19.224000     21.838000     -2.156000
H         -17.500000     19.802000     -5.555000
H         -20.322000     19.126000     -5.195000
H         -23.238000     13.426000     -6.235000
H         -23.845000     12.344000     -3.816000
H         -25.247000     10.561000     -0.682000
H         -23.872000     10.472000      1.643000
H         -16.697000     24.995000     -4.510000
C         -17.679000     25.047000     -6.467000
H         -15.868000     24.126000     -5.824000
H         -17.202000     25.941000     -6.886000
H         -18.581000     25.341000     -5.916000
C         -18.053000     24.114000     -7.699000
H         -17.204000     23.454000     -7.912000
C         -18.356000     24.977000     -8.910000
H         -18.824000     23.373000     -7.453000
H         -18.443000     24.273000     -9.746000
H         -17.539000     25.602000     -9.290000
C         -19.578000     26.023000     -8.848000
H         -19.256000     26.932000     -8.325000
C         -20.759000     25.385000     -8.066000
H         -19.735000     26.327000     -9.891000
H         -20.415000     25.065000     -7.075000
H         -21.169000     24.492000     -8.555000
H         -21.620000     26.056000     -7.963000
C         -23.744000     23.276000     -6.765000
C         -22.686000     22.907000     -5.945000
N         -23.956000     22.614000     -7.935000
C         -21.912000     21.797000     -6.283000
C         -23.146000     21.688000     -8.262000
C         -22.130000     21.083000     -7.488000
C         -21.217000     20.021000     -8.062000
C         -19.798000     20.211000     -8.012000
C         -21.604000     18.768000     -8.609000
N         -18.885000     19.304000     -8.480000
N         -22.831000     18.328000     -8.526000
C         -20.640000     17.872000     -9.112000
C         -19.240000     18.196000     -9.058000
S         -22.810000     16.821000     -9.220000
N         -21.198000     16.675000     -9.541000
C         -18.082000     17.523000     -9.732000
S         -16.341000     17.479000     -9.120000
C         -18.099000     16.848000    -10.912000
C         -15.806000     16.688000    -10.609000
S         -19.368000     16.857000    -12.152000
C         -16.861000     16.417000    -11.399000
C         -14.401000     16.761000    -11.105000
C         -18.153000     16.067000    -13.260000
C         -16.919000     15.871000    -12.746000
N         -13.574000     17.567000    -10.461000
S         -13.798000     15.767000    -12.358000
C         -12.335000     17.302000    -10.938000
C         -12.291000     16.581000    -12.162000
C         -24.704000     24.409000     -6.305000
H         -22.549000     23.394000     -4.985000
H         -21.170000     21.581000     -5.519000
H         -23.411000     21.408000     -9.281000
H         -19.373000     21.163000     -7.696000
H         -18.484000     15.851000    -14.267000
H         -16.131000     15.430000    -13.345000
H         -11.523000     17.879000    -10.515000
H         -11.476000     16.356000    -12.837000
H         -25.473000     24.024000     -5.624000
C         -25.308000     25.144000     -7.516000
H         -24.161000     25.104000     -5.651000
H         -25.602000     24.533000     -8.378000
H         -24.453000     25.790000     -7.753000
C         -26.510000     26.042000     -7.100000
H         -26.326000     26.539000     -6.139000
C         -27.886000     25.259000     -7.038000
H         -26.503000     26.868000     -7.822000
H         -27.781000     24.512000     -6.241000
H         -28.156000     24.797000     -7.995000
C         -29.073000     26.053000     -6.501000
H         -29.977000     25.431000     -6.464000
C         -29.391000     27.174000     -7.489000
H         -28.937000     26.541000     -5.528000
H         -30.477000     27.326000     -7.456000
H         -29.178000     26.864000     -8.520000
H         -28.904000     28.153000     -7.401000
$end

--------------------------------------------------------------

             Standard Nuclear Orientation (Angstroms)
    I     Atom           X                Y                Z
 ----------------------------------------------------------------
    1      C       2.5004513617    -0.9796670030    -4.5989713448
    2      C       1.5552971467    -1.9822211584    -4.7528241164
    3      N       2.1442739969     0.1192291741    -3.9394602557
    4      C       0.2177417438    -1.8448870522    -4.2878780041
    5      C       0.9778542403     0.2394151578    -3.3194285785
    6      C      -0.0894078720    -0.6750057519    -3.5544859829
    7      C      -1.3949994541    -0.5243905392    -2.8726621945
    8      C      -1.4524953771    -0.5260185980    -1.4223358284
    9      C      -2.5878341019    -0.2848971470    -3.4966184576
   10      N      -2.5499716747    -0.2587119869    -0.6881274439
   11      N      -2.7813921931    -0.3066743154    -4.8080993078
   12      C      -3.7398183786    -0.0022190561    -2.7687817155
   13      C      -3.7427927861     0.0192249782    -1.3563114304
   14      S      -4.3620732830     0.0603830537    -5.0086839031
   15      N      -4.8510877137     0.0748649881    -3.4690813049
   16      C      -4.9325468833    -0.0281577545    -0.5378805752
   17      S      -6.4623062138    -0.6872666756    -1.0261989353
   18      C      -4.9005437168     0.0410597788     0.8437958451
   19      C      -7.1041714972    -0.5706626041     0.5927175074
   20      S      -3.6634519082     0.6833895431     1.8473337522
   21      C      -6.1051705191    -0.1422852715     1.4595692286
   22      C      -8.4656122084    -0.7898176376     0.9299374076
   23      C      -4.7847464734     0.6607381442     3.2283458492
   24      C      -6.0678738580     0.2294905004     2.8522679521
   25      N      -8.8304670900    -0.6958070870     2.1818255543
   26      S      -9.7693392654    -0.7801545001    -0.2295652379
   27      C     -10.2040289264    -0.7553316455     2.2664347070
   28      C     -10.9254533838    -0.7108006207     1.0654722846
   29      C       3.8535608183    -1.1071802801    -5.2184866091
   30      H       1.9446469675    -2.8860629318    -5.2123692890
   31      H      -0.5556864026    -2.5543742571    -4.5697304626
   32      H       0.7510409307     1.1454865347    -2.7602645752
   33      H      -0.5488032916    -0.6168058446    -0.8224847715
   34      H      -4.3666455258     1.0300771815     4.1561207535
   35      H      -6.9160248764     0.3312245178     3.5212948870
   36      H     -10.6094358392    -0.7918916804     3.2683631469
   37      H     -11.9981659371    -0.6169996981     0.9564348371
   38      H       3.7784117607    -1.7220458745    -6.1242453628
   39      C       4.9677755981    -1.7298652988    -4.2851614825
   40      H       4.2606195310    -0.1268489813    -5.4982896632
   41      H       5.9741377075    -1.7575622201    -4.7196660110
   42      H       4.6023277512    -2.7553905317    -4.1495632972
   43      C       5.1001942543    -0.9912412246    -2.8833452405
   44      H       4.9676769064     0.0858689851    -3.0384024839
   45      C       6.4728459292    -1.2661690457    -2.2973921087
   46      H       4.2585992296    -1.2003110362    -2.2110018548
   47      H       6.5482394174    -0.6034993195    -1.4271819871
   48      H       7.3367406311    -0.9059844285    -2.8687650041
   49      C       6.8994275983    -2.7820395951    -1.9636129045
   50      H       7.2311367875    -3.2801913799    -2.8830191330
   51      C       5.6726366594    -3.5454297111    -1.3930443084
   52      H       7.7998380533    -2.6857228392    -1.3432113449
   53      H       4.8358911691    -3.4787304596    -2.0988949968
   54      H       5.3102108564    -3.1325193222    -0.4428745614
   55      H       5.8865157971    -4.5967173671    -1.1667237863
   56      C       2.6973586912    -4.9315843825     0.6750473818
   57      C       2.0929527092    -4.2598188582    -0.3791582382
   58      N       3.0074209402    -4.2591550629     1.8168828392
   59      C       1.7208545404    -2.9253001555    -0.2178424456
   60      C       2.7621910574    -3.0111407511     1.8700578514
   61      C       2.0180316509    -2.2135663570     0.9714707028
   62      C       1.8714057071    -0.7197186461     1.1659156806
   63      C       2.2613632130     0.1687106337     0.1119766129
   64      C       1.3053653431    -0.0569093413     2.2880872948
   65      N       2.1482869612     1.5319376997     0.1757553544
   66      N       0.6902985978    -0.7098572776     3.2374923144
   67      C       1.2346909770     1.3494796368     2.3349506751
   68      C       1.7104717276     2.1439375947     1.2347864917
   69      S       0.1351374570     0.4500065465     4.2861285800
   70      N       0.5901647760     1.8126794451     3.4743566229
   71      C       1.9524216159     3.6220048933     1.1644564682
   72      S       1.8578326359     4.6702884384    -0.3520248320
   73      C       2.3007617171     4.4458086038     2.1883317636
   74      C       2.4544075727     6.0735904210     0.5445625260
   75      S       2.9040908993     3.9905668409     3.7935703238
   76      C       2.5967297568     5.7693803489     1.8475462665
   77      C       3.1391502382     7.2238721735    -0.1137302448
   78      C       3.3778732925     5.7398090394     4.0025463394
   79      C       3.1414222436     6.5499561456     2.9475010476
   80      N       3.4202919717     7.1039020503    -1.4001467773
   81      S       3.4460319438     8.7076651928     0.6773676598
   82      C       3.8241553877     8.3268026815    -1.8176193960
   83      C       4.1838461121     9.2378326145    -0.7877650160
   84      C       2.9623106950    -6.4585536395     0.5523513184
   85      H       1.7921113306    -4.8050297254    -1.2678525474
   86      H       1.1955664407    -2.5496107889    -1.0918252327
   87      H       3.2203909362    -2.6576819232     2.7931535822
   88      H       2.7875463468    -0.2038030926    -0.7661747598
   89      H       3.8582985314     6.0037622362     4.9351696823
   90      H       3.4150676874     7.5979741788     2.9791613231
   91      H       4.0972636091     8.4129931063    -2.8612597124
   92      H       4.6648993920    10.2064129156    -0.8180130298
   93      H       2.0654156416    -7.0374305651     0.8049928989
   94      C       4.1843391013    -6.8742821352     1.3922193985
   95      H       3.1011510472    -6.7208402270    -0.5047764424
   96      H       4.2991658563    -6.4052835704     2.3769306062
   97      H       4.9714694539    -6.5523536272     0.6984630697
   98      C       4.2674854179    -8.4203710372     1.5564137868
   99      H       3.9825744684    -8.9380924162     0.6316563458
  100      C       3.3993287971    -8.9706760184     2.7621407499
  101      H       5.3397352721    -8.6328202537     1.6499797030
  102      H       2.3527995378    -8.7521878355     2.5145878801
  103      H       3.6878507495    -8.5367817722     3.7268603289
  104      C       3.3298939430   -10.4898058580     2.8854182069
  105      H       2.6878353368   -10.7866538064     3.7251271099
  106      C       4.7230133560   -11.0102403259     3.2350970105
  107      H       3.0205251549   -11.0411579501     1.9889413117
  108      H       4.5805270836   -11.8916741883     3.8725615258
  109      H       5.2676585326   -10.2914721491     3.8605280136
  110      H       5.4387010457   -11.2693290911     2.4451488207
 ----------------------------------------------------------------

    9   -5663.4818905848      7.97E-06 Convergence criterion met
 Total energy in the final basis set = -5663.4818905848

                    Orbital Energies (a.u.)
 --------------------------------------------------------------

 Alpha MOs
 -- Occupied --
-88.985 -88.984 -88.927 -88.926 -88.925 -88.914 -88.905 -88.902
-14.390 -14.384 -14.379 -14.376 -14.349 -14.345 -14.341 -14.339
-14.325 -14.323 -10.265 -10.265 -10.265 -10.260 -10.259 -10.254
-10.249 -10.247 -10.240 -10.239 -10.238 -10.238 -10.236 -10.234
-10.232 -10.232 -10.231 -10.230 -10.229 -10.229 -10.227 -10.227
-10.227 -10.225 -10.224 -10.221 -10.221 -10.220 -10.219 -10.217
-10.215 -10.213 -10.206 -10.206 -10.204 -10.199 -10.199 -10.194
-10.188 -10.187 -10.185 -10.181 -10.177 -10.176 -10.175 -10.175
-10.175 -10.173 -10.167 -10.163  -8.042  -8.040  -7.989  -7.987
 -7.986  -7.972  -7.965  -7.963  -6.007  -6.005  -6.001  -5.999
 -5.999  -5.998  -5.953  -5.951  -5.950  -5.950  -5.947  -5.947
 -5.946  -5.944  -5.943  -5.937  -5.933  -5.929  -5.928  -5.927
 -5.926  -5.924  -5.920  -5.919  -1.051  -1.031  -0.974  -0.974
 -0.961  -0.953  -0.948  -0.944  -0.920  -0.914  -0.907  -0.901
 -0.846  -0.833  -0.832  -0.826  -0.816  -0.810  -0.808  -0.804
 -0.801  -0.801  -0.795  -0.794  -0.784  -0.781  -0.765  -0.762
 -0.745  -0.744  -0.735  -0.733  -0.726  -0.716  -0.707  -0.704
 -0.693  -0.689  -0.673  -0.668  -0.655  -0.653  -0.645  -0.639
 -0.636  -0.634  -0.631  -0.622  -0.617  -0.613  -0.601  -0.600
 -0.593  -0.590  -0.586  -0.581  -0.580  -0.576  -0.557  -0.550
 -0.550  -0.544  -0.540  -0.536  -0.525  -0.522  -0.514  -0.510
 -0.506  -0.503  -0.502  -0.499  -0.495  -0.482  -0.480  -0.474
 -0.471  -0.467  -0.465  -0.463  -0.455  -0.452  -0.452  -0.448
 -0.447  -0.446  -0.441  -0.437  -0.436  -0.434  -0.432  -0.431
 -0.427  -0.427  -0.424  -0.421  -0.417  -0.415  -0.414  -0.412
 -0.408  -0.406  -0.405  -0.400  -0.398  -0.397  -0.396  -0.394
 -0.393  -0.391  -0.391  -0.390  -0.384  -0.383  -0.382  -0.378
 -0.377  -0.375  -0.374  -0.371  -0.366  -0.364  -0.359  -0.354
 -0.354  -0.349  -0.348  -0.347  -0.344  -0.343  -0.341  -0.337
 -0.336  -0.334  -0.332  -0.331  -0.325  -0.325  -0.324  -0.321
 -0.316  -0.312  -0.303  -0.303  -0.299  -0.297  -0.297  -0.295
 -0.294  -0.292  -0.291  -0.291  -0.288  -0.285  -0.284  -0.282
 -0.274  -0.273  -0.262  -0.257  -0.250  -0.248  -0.247  -0.245
 -0.242  -0.239  -0.234  -0.233  -0.196  -0.191

          Ground-State Mulliken Net Atomic Charges

     Atom                 Charge (a.u.)
  ----------------------------------------
      1 C                     0.309525
      2 C                    -0.125239
      3 N                    -0.478285
      4 C                    -0.064418
      5 C                     0.077213
      6 C                     0.009477
      7 C                    -0.030202
      8 C                     0.068011
      9 C                     0.278903
     10 N                    -0.502056
     11 N                    -0.554521
     12 C                     0.189243
     13 C                     0.266204
     14 S                     0.590601
     15 N                    -0.546478
     16 C                    -0.199830
     17 S                     0.328704
     18 C                    -0.124235
     19 C                    -0.249214
     20 S                     0.281403
     21 C                     0.177750
     22 C                     0.071043
     23 C                    -0.317292
     24 C                    -0.050043
     25 N                    -0.429454
     26 S                     0.269786
     27 C                     0.110825
     28 C                    -0.309938
     29 C                    -0.247408
     30 H                     0.081846
     31 H                     0.112121
     32 H                     0.121459
     33 H                     0.116839
     34 H                     0.133964
     35 H                     0.125150
     36 H                     0.109740
     37 H                     0.142436
     38 H                     0.098507
     39 C                    -0.179717
     40 H                     0.121822
     41 H                     0.102658
     42 H                     0.092085
     43 C                    -0.187178
     44 H                     0.116258
     45 C                    -0.191384
     46 H                     0.102643
     47 H                     0.090234
     48 H                     0.088073
     49 C                    -0.181395
     50 H                     0.093526
     51 C                    -0.321015
     52 H                     0.095720
     53 H                     0.107508
     54 H                     0.110867
     55 H                     0.093836
     56 C                     0.275290
     57 C                    -0.116222
     58 N                    -0.459056
     59 C                    -0.093476
     60 C                     0.092026
     61 C                     0.041829
     62 C                     0.016427
     63 C                     0.038519
     64 C                     0.252430
     65 N                    -0.483418
     66 N                    -0.541683
     67 C                     0.173921
     68 C                     0.283334
     69 S                     0.597534
     70 N                    -0.535124
     71 C                    -0.212120
     72 S                     0.320186
     73 C                    -0.085786
     74 C                    -0.239874
     75 S                     0.240067
     76 C                     0.119947
     77 C                     0.055657
     78 C                    -0.301356
     79 C                    -0.045337
     80 N                    -0.394599
     81 S                     0.284790
     82 C                     0.096436
     83 C                    -0.309788
     84 C                    -0.241357
     85 H                     0.087812
     86 H                     0.105081
     87 H                     0.095480
     88 H                     0.132543
     89 H                     0.126043
     90 H                     0.123571
     91 H                     0.108945
     92 H                     0.134869
     93 H                     0.117966
     94 C                    -0.174451
     95 H                     0.102539
     96 H                     0.126496
     97 H                     0.095586
     98 C                    -0.187229
     99 H                     0.082744
    100 C                    -0.168458
    101 H                     0.091090
    102 H                     0.089530
    103 H                     0.098454
    104 C                    -0.176425
    105 H                     0.094952
    106 C                    -0.317829
    107 H                     0.094363
    108 H                     0.090810
    109 H                     0.096862
    110 H                     0.102780
  ----------------------------------------
  Sum of atomic charges =     0.000000

                    Cartesian Multipole Moments
 -----------------------------------------------------------------
    Charge (ESU x 10^10)
                 0.0000
    Dipole Moment (Debye)
         X      -1.6094      Y       0.5553      Z      -0.1757
       Tot       1.7115
    Quadrupole Moments (Debye-Ang)
        XX    -404.2295     XY      15.0401     YY    -409.5149
        XZ      -0.6214     YZ      24.3920     ZZ    -426.2108

 Total job time:  88.89s(wall), 1071.17s(cpu)
        *  Thank you very much for using Q-Chem.  Have a nice day.  *
