 Q-Chem 4.4, Q-Chem, Inc., Pleasanton, CA (2016)
 Q-Chem 4.4.2 for Intel X86 Linux

User input:
--------------------------------------------------------------
$comment
SP
$end

$rem
MEM_STATIC 5000
MEM_TOTAL 20000
JOBTYPE SP
EXCHANGE B3LYP
BASIS 6-31g(d,p)
$end

$molecule
0 1
C         -13.622000     12.838000     -7.251000
C         -13.471000     13.439000     -5.968000
N         -13.266000     13.466000     -8.400000
C         -13.248000     14.818000     -5.918000
C         -13.017000     14.823000     -8.324000
C         -12.951000     15.553000     -7.092000
C         -12.416000     16.900000     -7.045000
C         -11.332000     17.317000     -7.793000
C         -13.064000     18.000000     -6.324000
N         -10.894000     18.579000     -7.909000
N         -14.132000     17.792000     -5.524000
C         -12.610000     19.318000     -6.514000
C         -11.485000     19.604000     -7.275000
S         -14.542000     19.292000     -5.079000
N         -13.325000     20.195000     -5.754000
C         -10.913000     20.980000     -7.247000
S         -11.628000     22.381000     -6.495000
C          -9.868000     21.412000     -8.078000
C         -10.380000     23.465000     -7.145000
S          -8.893000     20.509000     -9.268000
C          -9.624000     22.748000     -8.027000
C         -10.212000     24.852000     -6.823000
C          -8.000000     22.028000     -9.592000
C          -8.503000     23.010000     -8.865000
N         -10.750000     25.310000     -5.665000
S          -9.081000     26.012000     -7.647000
C         -10.367000     26.595000     -5.448000
C          -9.479000     27.116000     -6.423000
C         -13.770000     11.375000     -7.435000
H         -13.452000     12.744000     -5.133000
H         -12.925000     15.143000     -4.934000
H         -12.634000     15.327000     -9.211000
H         -10.755000     16.571000     -8.338000
H          -7.093000     22.033000    -10.180000
H          -8.080000     24.008000     -8.852000
H         -10.567000     27.193000     -4.569000
H          -9.028000     28.095000     -6.513000
H         -14.826000     11.083000     -7.368000
C         -12.951000     10.484000     -6.535000
H         -13.502000     11.181000     -8.481000
H         -13.236000     10.665000     -5.491000
H         -11.927000     10.878000     -6.560000
C         -12.939000      8.891000     -6.787000
H         -13.949000      8.502000     -6.611000
C         -11.868000      8.153000     -5.976000
H         -12.788000      8.678000     -7.853000
H         -11.915000      8.613000     -4.981000
H         -10.934000      8.482000     -6.448000
C         -11.804000      6.617000     -6.056000
H         -12.491000      6.175000     -5.324000
C         -10.368000      6.051000     -5.794000
H         -12.171000      6.242000     -7.020000
H         -10.444000      4.958000     -5.845000
H         -10.009000      6.294000     -4.787000
H          -9.717000      6.286000     -6.645000
C         -23.744000     23.276000     -6.765000
C         -22.686000     22.907000     -5.945000
N         -23.956000     22.614000     -7.935000
C         -21.912000     21.797000     -6.283000
C         -23.146000     21.688000     -8.262000
C         -22.130000     21.083000     -7.488000
C         -21.217000     20.021000     -8.062000
C         -19.798000     20.211000     -8.012000
C         -21.604000     18.768000     -8.609000
N         -18.885000     19.304000     -8.480000
N         -22.831000     18.328000     -8.526000
C         -20.640000     17.872000     -9.112000
C         -19.240000     18.196000     -9.058000
S         -22.810000     16.821000     -9.220000
N         -21.198000     16.675000     -9.541000
C         -18.082000     17.523000     -9.732000
S         -16.341000     17.479000     -9.120000
C         -18.099000     16.848000    -10.912000
C         -15.806000     16.688000    -10.609000
S         -19.368000     16.857000    -12.152000
C         -16.861000     16.417000    -11.399000
C         -14.401000     16.761000    -11.105000
C         -18.153000     16.067000    -13.260000
C         -16.919000     15.871000    -12.746000
N         -13.574000     17.567000    -10.461000
S         -13.798000     15.767000    -12.358000
C         -12.335000     17.302000    -10.938000
C         -12.291000     16.581000    -12.162000
C         -24.704000     24.409000     -6.305000
H         -22.549000     23.394000     -4.985000
H         -21.170000     21.581000     -5.519000
H         -23.411000     21.408000     -9.281000
H         -19.373000     21.163000     -7.696000
H         -18.484000     15.851000    -14.267000
H         -16.131000     15.430000    -13.345000
H         -11.523000     17.879000    -10.515000
H         -11.476000     16.356000    -12.837000
H         -25.473000     24.024000     -5.624000
C         -25.308000     25.144000     -7.516000
H         -24.161000     25.104000     -5.651000
H         -25.602000     24.533000     -8.378000
H         -24.453000     25.790000     -7.753000
C         -26.510000     26.042000     -7.100000
H         -26.326000     26.539000     -6.139000
C         -27.886000     25.259000     -7.038000
H         -26.503000     26.868000     -7.822000
H         -27.781000     24.512000     -6.241000
H         -28.156000     24.797000     -7.995000
C         -29.073000     26.053000     -6.501000
H         -29.977000     25.431000     -6.464000
C         -29.391000     27.174000     -7.489000
H         -28.937000     26.541000     -5.528000
H         -30.477000     27.326000     -7.456000
H         -29.178000     26.864000     -8.520000
H         -28.904000     28.153000     -7.401000
$end

--------------------------------------------------------------

             Standard Nuclear Orientation (Angstroms)
    I     Atom           X                Y                Z
 ----------------------------------------------------------------
    1      C      -5.0674346120    -3.8701026699    -1.3446421990
    2      C      -4.8819798707    -3.1377175145    -2.5526610412
    3      N      -5.0593112723    -3.2804534909    -0.1225256509
    4      C      -4.3681607553    -1.8414499973    -2.4549346863
    5      C      -4.5789249014    -1.9868517180    -0.0514666057
    6      C      -4.2547754219    -1.1932490046    -1.2004669748
    7      C      -4.0254558540     0.2341063690    -1.0868352306
    8      C      -4.7483668802     1.0585494859    -0.2465125572
    9      C      -2.9016759555     0.9235608205    -1.7283305923
   10      N      -4.4801579445     2.3458863978     0.0157309211
   11      N      -2.0853230397     0.2914570243    -2.5989055217
   12      C      -2.6190367679     2.2586275234    -1.3862019784
   13      C      -3.4442476744     2.9906518071    -0.5437594535
   14      S      -0.9632293611     1.4128313148    -2.9144217287
   15      N      -1.5514704700     2.7279490156    -2.0918885495
   16      C      -3.2320120559     4.4594794061    -0.4064804433
   17      S      -1.8965493896     5.3752529318    -1.0525673698
   18      C      -3.9142490518     5.2676680582     0.5157959709
   19      C      -2.4187228033     6.8634394842    -0.2354408734
   20      S      -5.2211889398     4.8606795324     1.6596501876
   21      C      -3.4404580873     6.5380217842     0.6093723189
   22      C      -1.8518741948     8.1687606816    -0.4100725618
   23      C      -5.2138497029     6.5758138464     2.1773821843
   24      C      -4.2749778853     7.2389708275     1.5257653271
   25      N      -1.1482175758     8.4146346125    -1.5434680676
   26      S      -2.2357121010     9.6429777704     0.5814361053
   27      C      -0.8189334548     9.7306051129    -1.6127256291
   28      C      -1.3216286673    10.5189028745    -0.5466608270
   29      C      -5.6894831351    -5.2148040977    -1.3136147127
   30      H      -5.2485534987    -3.6286434079    -3.4500052018
   31      H      -4.4734868416    -1.2903821443    -3.3841497512
   32      H      -4.6557982824    -1.4602282283     0.8994446327
   33      H      -5.6290326651     0.6547282433     0.2513088759
   34      H      -5.9943452257     6.9762459078     2.8089666229
   35      H      -4.1280800854     8.3076244943     1.6330144616
   36      H      -0.3358668892    10.2369809394    -2.4376348456
   37      H      -1.2091423534    11.5741433613    -0.3374806558
   38      H      -4.9309076396    -5.9939169744    -1.4633990345
   39      C      -6.8433626037    -5.4588128165    -2.2536487105
   40      H      -6.0254296403    -5.3602329572    -0.2794162828
   41      H      -6.4994669224    -5.3333534776    -3.2880169789
   42      H      -7.5220229296    -4.6042388771    -2.1371989605
   43      C      -7.6698011714    -6.8406425215    -2.1596116954
   44      H      -6.9996855480    -7.6670556995    -2.4249102264
   45      C      -8.9625493005    -6.8357058619    -2.9831309145
   46      H      -7.9150421283    -7.0640401649    -1.1134394505
   47      H      -8.6808154487    -6.3564152659    -3.9290381833
   48      H      -9.5998569933    -6.1320545011    -2.4334995224
   49      C      -9.8034686759    -8.1233164226    -3.0517286406
   50      H      -9.4346027594    -8.7688931322    -3.8581563482
   51      C     -11.3253083058    -7.8468071642    -3.2938913357
   52      H      -9.6857752952    -8.7372346767    -2.1495852787
   53      H     -11.8192132740    -8.8242358856    -3.3548583517
   54      H     -11.5033599241    -7.3448726072    -4.2521910392
   55      H     -11.7698187953    -7.4094786701    -2.3914606110
   56      C       8.9713590549    -0.0550524245    -1.3203933939
   57      C       7.8785248013     0.2592860630    -2.1171553467
   58      N       8.8078282622    -0.8579998620    -0.2338295015
   59      C       6.6437106240    -0.3320649761    -1.8507761129
   60      C       7.6362328784    -1.2727318084     0.0416095469
   61      C       6.4585304768    -1.1863445909    -0.7348640855
   62      C       5.1273582055    -1.6922063841    -0.2220549295
   63      C       4.0054005977    -0.8024904576    -0.1798921938
   64      C       4.8158432278    -3.0195416829     0.1781030684
   65      N       2.7541395447    -1.1642564164     0.2428526090
   66      N       5.6457872008    -4.0102272208    -0.0109820094
   67      C       3.5261645612    -3.3498560278     0.6393431040
   68      C       2.4890797171    -2.3549664828     0.6897595632
   69      S       4.8528694789    -5.3631457745     0.5312530626
   70      N       3.3909606397    -4.7032809172     0.9189409729
   71      C       1.1456643365    -2.4151920132     1.3529164079
   72      S      -0.3692004248    -1.4990023466     0.8300949759
   73      C       0.8078507383    -3.1311359407     2.4581857260
   74      C      -1.2425949142    -2.0674450166     2.2594591691
   75      S       1.8953382390    -3.9068034055     3.6259840475
   76      C      -0.4794158672    -2.9232955547     2.9634787701
   77      C      -2.4157101113    -1.3453713684     2.8319802437
   78      C       0.4404406699    -4.0861096272     4.7118529817
   79      C      -0.7170602916    -3.5685179710     4.2453142358
   80      N      -2.7102850772    -0.1650056234     2.3140388402
   81      S      -3.4498912022    -2.0263097108     4.0103038177
   82      C      -3.9134659449     0.1861688244     2.8258076425
   83      C      -4.3274928384    -0.5428962619     3.9734133376
   84      C      10.3785247613     0.4748493310    -1.7153336480
   85      H       8.0157286983     0.8513553339    -3.0161364750
   86      H       5.9003230833    -0.0541036305    -2.5930890217
   87      H       7.7145116674    -1.7597606753     1.0130318619
   88      H       4.1289229050     0.2615601144    -0.3781940336
   89      H       0.6082367753    -4.5507483432     5.6742569149
   90      H      -1.6234211545    -3.6106040230     4.8377370160
   91      H      -4.3136093861     1.1388616558     2.5041500678
   92      H      -5.1470731839    -0.3952855361     4.6640464753
   93      H      10.8466904039    -0.1694501090    -2.4696851329
   94      C      11.2659589669     0.6605300324    -0.4705263506
   95      H      10.2713079990     1.4170709031    -2.2687892243
   96      H      11.2008696916    -0.1063935786     0.3107498881
   97      H      10.8600835661     1.6207095898    -0.1272620550
   98      C      12.7606506893     0.8618002262    -0.8573738192
   99      H      12.8625846389     1.4864302688    -1.7539410392
  100      C      13.5431170406    -0.4998459626    -1.0670761450
  101      H      13.1725631409     1.4903387565    -0.0580763476
  102      H      13.0758151584    -0.9956293902    -1.9273497898
  103      H      13.5330091618    -1.1379072982    -0.1754660493
  104      C      14.9724832608    -0.3662915277    -1.5836508458
  105      H      15.4315081278    -1.3531234715    -1.7283155832
  106      C      15.8128951318     0.3191951214    -0.5076745724
  107      H      15.1111378802     0.2275663819    -2.4955042769
  108      H      16.8240797980    -0.0999128254    -0.5814519383
  109      H      15.4649891457     0.0484195887     0.4973488282
  110      H      15.8955404567     1.4125195125    -0.4735347726
 ----------------------------------------------------------------

    9   -5663.4818795290      7.26E-06 Convergence criterion met
 Total energy in the final basis set = -5663.4818795290

                    Orbital Energies (a.u.)
 --------------------------------------------------------------

 Alpha MOs
 -- Occupied --
-88.985 -88.981 -88.931 -88.926 -88.922 -88.914 -88.905 -88.904
-14.391 -14.383 -14.380 -14.380 -14.349 -14.345 -14.344 -14.338
-14.330 -14.324 -10.273 -10.265 -10.263 -10.261 -10.258 -10.255
-10.252 -10.246 -10.241 -10.239 -10.238 -10.238 -10.233 -10.232
-10.231 -10.230 -10.230 -10.229 -10.228 -10.227 -10.225 -10.225
-10.225 -10.225 -10.224 -10.222 -10.221 -10.220 -10.216 -10.214
-10.212 -10.207 -10.205 -10.203 -10.200 -10.197 -10.195 -10.195
-10.189 -10.184 -10.183 -10.182 -10.178 -10.177 -10.177 -10.176
-10.175 -10.175 -10.175 -10.163  -8.041  -8.036  -7.992  -7.988
 -7.980  -7.971  -7.964  -7.964  -6.006  -6.001  -6.000  -5.998
 -5.996  -5.994  -5.955  -5.952  -5.952  -5.949  -5.948  -5.945
 -5.945  -5.941  -5.937  -5.936  -5.932  -5.929  -5.929  -5.928
 -5.925  -5.925  -5.920  -5.920  -1.032  -1.031  -0.974  -0.961
 -0.961  -0.955  -0.954  -0.925  -0.916  -0.907  -0.902  -0.900
 -0.846  -0.832  -0.829  -0.826  -0.815  -0.812  -0.805  -0.802
 -0.801  -0.800  -0.794  -0.789  -0.784  -0.782  -0.767  -0.766
 -0.745  -0.742  -0.735  -0.734  -0.727  -0.715  -0.712  -0.704
 -0.691  -0.689  -0.670  -0.669  -0.656  -0.651  -0.640  -0.639
 -0.634  -0.632  -0.622  -0.622  -0.613  -0.608  -0.599  -0.598
 -0.595  -0.590  -0.581  -0.581  -0.575  -0.571  -0.570  -0.557
 -0.545  -0.545  -0.540  -0.537  -0.525  -0.519  -0.514  -0.513
 -0.507  -0.502  -0.499  -0.494  -0.485  -0.482  -0.474  -0.471
 -0.469  -0.468  -0.466  -0.463  -0.459  -0.456  -0.452  -0.452
 -0.447  -0.443  -0.442  -0.438  -0.437  -0.433  -0.432  -0.431
 -0.427  -0.426  -0.424  -0.421  -0.413  -0.413  -0.410  -0.409
 -0.408  -0.406  -0.406  -0.398  -0.396  -0.394  -0.394  -0.393
 -0.392  -0.391  -0.389  -0.385  -0.385  -0.381  -0.379  -0.378
 -0.376  -0.375  -0.371  -0.366  -0.365  -0.363  -0.354  -0.352
 -0.349  -0.348  -0.345  -0.344  -0.342  -0.341  -0.338  -0.337
 -0.337  -0.333  -0.330  -0.325  -0.325  -0.323  -0.322  -0.319
 -0.315  -0.313  -0.309  -0.307  -0.304  -0.302  -0.298  -0.296
 -0.294  -0.294  -0.292  -0.289  -0.289  -0.288  -0.284  -0.279
 -0.274  -0.266  -0.262  -0.260  -0.251  -0.250  -0.247  -0.246
 -0.244  -0.239  -0.234  -0.232  -0.195  -0.192

          Ground-State Mulliken Net Atomic Charges

     Atom                 Charge (a.u.)
  ----------------------------------------
      1 C                     0.267136
      2 C                    -0.106113
      3 N                    -0.476709
      4 C                    -0.065681
      5 C                     0.073398
      6 C                     0.031351
      7 C                     0.048186
      8 C                     0.047605
      9 C                     0.210507
     10 N                    -0.550181
     11 N                    -0.531866
     12 C                     0.224282
     13 C                     0.343287
     14 S                     0.603556
     15 N                    -0.575493
     16 C                    -0.229795
     17 S                     0.380912
     18 C                    -0.145678
     19 C                    -0.226912
     20 S                     0.259697
     21 C                     0.178081
     22 C                     0.030668
     23 C                    -0.311711
     24 C                    -0.058544
     25 N                    -0.425876
     26 S                     0.289093
     27 C                     0.128553
     28 C                    -0.315269
     29 C                    -0.234918
     30 H                     0.096423
     31 H                     0.101289
     32 H                     0.105877
     33 H                     0.111915
     34 H                     0.132257
     35 H                     0.093653
     36 H                     0.118816
     37 H                     0.136462
     38 H                     0.106933
     39 C                    -0.195744
     40 H                     0.124621
     41 H                     0.089463
     42 H                     0.099748
     43 C                    -0.187353
     44 H                     0.089810
     45 C                    -0.163731
     46 H                     0.092561
     47 H                     0.090830
     48 H                     0.096039
     49 C                    -0.185852
     50 H                     0.094707
     51 C                    -0.321604
     52 H                     0.095286
     53 H                     0.099288
     54 H                     0.110279
     55 H                     0.107583
     56 C                     0.272511
     57 C                    -0.118254
     58 N                    -0.457039
     59 C                    -0.087661
     60 C                     0.091823
     61 C                     0.039462
     62 C                     0.019902
     63 C                     0.050083
     64 C                     0.250426
     65 N                    -0.483356
     66 N                    -0.545524
     67 C                     0.169338
     68 C                     0.284706
     69 S                     0.596574
     70 N                    -0.531466
     71 C                    -0.215641
     72 S                     0.317676
     73 C                    -0.086518
     74 C                    -0.233346
     75 S                     0.239166
     76 C                     0.119919
     77 C                     0.055204
     78 C                    -0.302062
     79 C                    -0.043604
     80 N                    -0.397881
     81 S                     0.291012
     82 C                     0.068911
     83 C                    -0.305397
     84 C                    -0.241791
     85 H                     0.088685
     86 H                     0.099827
     87 H                     0.095619
     88 H                     0.118772
     89 H                     0.126094
     90 H                     0.124659
     91 H                     0.130631
     92 H                     0.135945
     93 H                     0.118037
     94 C                    -0.170682
     95 H                     0.102822
     96 H                     0.126412
     97 H                     0.092794
     98 C                    -0.187113
     99 H                     0.083058
    100 C                    -0.168335
    101 H                     0.091271
    102 H                     0.089087
    103 H                     0.098359
    104 C                    -0.176454
    105 H                     0.094796
    106 C                    -0.317687
    107 H                     0.094502
    108 H                     0.090869
    109 H                     0.096787
    110 H                     0.102951
  ----------------------------------------
  Sum of atomic charges =     0.000000

                    Cartesian Multipole Moments
 -----------------------------------------------------------------
    Charge (ESU x 10^10)
                 0.0000
    Dipole Moment (Debye)
         X      -1.0907      Y       1.5625      Z      -0.0544
       Tot       1.9062
    Quadrupole Moments (Debye-Ang)
        XX    -430.6863     XY       5.5178     YY    -394.1720
        XZ     -19.9911     YZ       1.6512     ZZ    -418.2013

 Total job time:  81.92s(wall), 965.83s(cpu)
        *  Thank you very much for using Q-Chem.  Have a nice day.  *
