 Q-Chem 4.4, Q-Chem, Inc., Pleasanton, CA (2016)
 Q-Chem 4.4.2 for Intel X86 Linux

User input:
--------------------------------------------------------------
$comment
SP
$end

$rem
MEM_STATIC 5000
MEM_TOTAL 20000
JOBTYPE SP
EXCHANGE B3LYP
BASIS 6-31g(d,p)
$end

$molecule
0 1
C         -23.271000     10.167000     -7.780000
C         -23.575000      8.856000     -8.007000
N         -23.165000     10.677000     -6.566000
C         -23.960000      8.066000     -6.897000
C         -23.380000      9.854000     -5.542000
C         -23.883000      8.538000     -5.572000
C         -24.205000      7.689000     -4.360000
C         -24.708000      8.273000     -3.163000
C         -23.702000      6.401000     -4.215000
N         -24.870000      7.597000     -1.986000
N         -23.051000      5.716000     -5.175000
C         -23.840000      5.725000     -2.986000
C         -24.482000      6.335000     -1.920000
S         -22.606000      4.300000     -4.465000
N         -23.238000      4.502000     -2.932000
C         -24.713000      5.616000     -0.697000
S         -24.726000      3.837000     -0.440000
C         -25.126000      6.204000      0.507000
C         -25.208000      4.014000      1.224000
S         -25.184000      7.902000      0.928000
C         -25.374000      5.331000      1.547000
C         -25.308000      2.876000      2.147000
C         -25.518000      7.484000      2.585000
C         -25.680000      6.121000      2.754000
N         -25.323000      1.677000      1.568000
S         -25.222000      2.941000      3.942000
C         -25.259000      0.733000      2.539000
C         -25.028000      1.173000      3.833000
C         -22.899000     11.077000     -8.940000
H         -23.702000      8.481000     -9.018000
H         -24.165000      7.012000     -7.056000
H         -23.305000     10.358000     -4.579000
H         -25.020000      9.315000     -3.213000
H         -25.639000      8.245000      3.344000
H         -26.065000      5.705000      3.678000
H         -25.257000     -0.322000      2.301000
H         -24.922000      0.486000      4.662000
H         -21.923000     11.557000     -8.798000
C         -23.948000     12.175000     -9.080000
H         -22.840000     10.524000     -9.886000
H         -23.971000     12.771000     -8.159000
H         -24.937000     11.705000     -9.152000
C         -23.750000     13.051000    -10.317000
H         -22.813000     13.611000    -10.205000
C         -24.825000     14.075000    -10.512000
H         -23.642000     12.383000    -11.180000
H         -24.680000     14.770000     -9.675000
H         -25.847000     13.696000    -10.394000
C         -24.681000     14.710000    -11.940000
H         -25.164000     15.693000    -11.880000
C         -25.242000     13.821000    -13.020000
H         -23.667000     15.082000    -12.134000
H         -24.557000     12.990000    -13.228000
H         -25.234000     14.466000    -13.908000
H         -26.256000     13.493000    -12.760000
C         -28.930000      3.227000      1.408000
C         -28.689000      2.554000      0.223000
N         -28.738000      4.568000      1.497000
C         -28.274000      3.280000     -0.924000
C         -28.315000      5.306000      0.398000
C         -28.205000      4.671000     -0.871000
C         -27.870000      5.442000     -2.145000
C         -27.149000      4.740000     -3.143000
C         -28.234000      6.762000     -2.402000
N         -26.911000      5.313000     -4.303000
N         -28.871000      7.584000     -1.571000
C         -27.917000      7.298000     -3.663000
C         -27.341000      6.551000     -4.625000
S         -28.984000      9.050000     -2.289000
N         -28.346000      8.620000     -3.687000
C         -27.111000      7.071000     -6.009000
S         -27.484000      8.722000     -6.578000
C         -26.651000      6.294000     -7.057000
C         -27.310000      8.248000     -8.273000
S         -26.152000      4.659000     -7.098000
C         -26.799000      6.944000     -8.318000
C         -27.613000      9.070000     -9.481000
C         -26.016000      4.737000     -8.857000
C         -26.367000      5.970000     -9.333000
N         -27.098000      8.794000    -10.624000
S         -28.667000     10.363000     -9.462000
C         -27.734000      9.572000    -11.642000
C         -28.642000     10.463000    -11.132000
C         -29.586000      2.357000      2.560000
H         -28.879000      1.486000      0.166000
H         -28.145000      2.762000     -1.870000
H         -28.040000      6.344000      0.579000
H         -26.791000      3.714000     -3.066000
H         -25.709000      3.911000     -9.484000
H         -26.418000      6.289000    -10.368000
H         -27.295000      9.425000    -12.620000
H         -29.305000     11.155000    -11.635000
H         -29.830000      3.047000      3.377000
C         -28.740000      1.123000      3.003000
H         -30.562000      2.007000      2.203000
H         -27.798000      1.476000      3.440000
H         -28.417000      0.593000      2.098000
C         -29.456000      0.254000      4.059000
H         -29.934000      0.965000      4.744000
C         -28.470000     -0.639000      4.862000
H         -30.291000     -0.299000      3.613000
H         -29.084000     -1.176000      5.596000
H         -27.702000      0.029000      5.272000
C         -27.959000     -1.716000      3.870000
H         -28.784000     -2.341000      3.505000
C         -26.885000     -2.663000      4.410000
H         -27.578000     -1.254000      2.951000
H         -26.820000     -3.468000      3.667000
H         -27.216000     -3.183000      5.317000
H         -25.947000     -2.144000      4.645000
$end

--------------------------------------------------------------

             Standard Nuclear Orientation (Angstroms)
    I     Atom           X                Y                Z
 ----------------------------------------------------------------
    1      C      -6.0182023470     2.2478702315    -0.9284027518
    2      C      -5.4251128145     1.3359126492    -1.7525654630
    3      N      -5.3309234193     3.0359497444    -0.1211169555
    4      C      -4.0351034848     1.1144156390    -1.6001248591
    5      C      -4.0063570300     2.9032345036    -0.1274844716
    6      C      -3.2331540307     1.9060649429    -0.7548400239
    7      C      -1.7315073665     1.7495818103    -0.6365212795
    8      C      -1.0492178593     2.0721518311     0.5706670282
    9      C      -0.9166080814     1.6453829075    -1.7581539037
   10      N       0.3111496194     2.1071712404     0.6999843275
   11      N      -1.3603521946     1.4910709254    -3.0206533984
   12      C       0.4840948100     1.7202412711    -1.6207179713
   13      C       1.0564680553     1.8905240188    -0.3701130561
   14      S      -0.0068684361     1.5061594721    -3.9560864807
   15      N       1.1792203386     1.6887190679    -2.7941129816
   16      C       2.4847990791     1.8690438354    -0.2105508805
   17      S       3.7162029790     1.1763745054    -1.3218171108
   18      C       3.1629098252     2.2687521538     0.9497629031
   19      C       5.0107070354     1.5205376028    -0.2090008588
   20      S       2.5362604240     3.1354054702     2.3354149362
   21      C       4.5319855498     2.0936917347     0.9349808195
   22      C       6.4240859300     1.3021429437    -0.5431219046
   23      C       4.1540571475     3.3342311027     2.9478944290
   24      C       5.0875950082     2.6698681358     2.1734895537
   25      N       6.6418100257     0.5341082353    -1.6088544718
   26      S       7.8417050367     2.1068836935     0.2160845192
   27      C       7.9691309047     0.5523695239    -1.8844607302
   28      C       8.7512138889     1.4419850908    -1.1645111840
   29      C      -7.5167125546     2.4920324489    -1.0116852189
   30      H      -6.0227381683     0.6702591235    -2.3678900280
   31      H      -3.5424576091     0.4222813889    -2.2757521388
   32      H      -3.5174815256     3.5648346782     0.5868655477
   33      H      -1.6616511723     2.2595480084     1.4512441741
   34      H       4.3457860421     3.8705278975     3.8673881913
   35      H       6.1114553559     2.5398266916     2.5049351921
   36      H       8.3805528460    -0.0042807748    -2.7154513626
   37      H       9.8118333663     1.5513955152    -1.3477096644
   38      H      -7.7587700544     3.5468372306    -1.1903889942
   39      C      -8.1724815830     2.0739684692     0.3001053476
   40      H      -7.9749128633     1.9236732779    -1.8309692538
   41      H      -7.7623573943     2.6804676636     1.1173830709
   42      H      -7.8780468245     1.0406377232     0.5231316743
   43      C      -9.6995371681     2.1324423503     0.2622761886
   44      H     -10.0086568162     3.1791937318     0.1488319797
   45      C     -10.3554484708     1.6391592800     1.5147450207
   46      H     -10.0282590450     1.5856607572    -0.6297040898
   47      H     -10.0847237969     2.3917388027     2.2663773863
   48      H      -9.9556868779     0.6940784160     1.9008302825
   49      C     -11.8952286517     1.4727383083     1.2607252287
   50      H     -12.3697863847     1.5394837623     2.2473953876
   51      C     -12.2174996863     0.2033891311     0.5148458506
   52      H     -12.3522067817     2.3783589667     0.8421105947
   53      H     -11.9677565955     0.3082985990    -0.5480146257
   54      H     -13.3116836870     0.1442414815     0.5772632222
   55      H     -11.7320107309    -0.6568711107     0.9919546333
   56      C       5.9259375423    -1.7568437925     1.5020319604
   57      C       5.3265812090    -2.3252869955     0.3916809751
   58      N       5.2126585356    -0.9763818826     2.3536059535
   59      C       3.9406333757    -2.1223323932     0.1617504793
   60      C       3.8582495284    -0.7427895009     2.1477301644
   61      C       3.1797011796    -1.4332759163     1.1044245292
   62      C       1.6712188335    -1.3250602088     0.8982392432
   63      C       1.2003773021    -1.4453363663    -0.4331100341
   64      C       0.7350069777    -1.1387079745     1.9129930094
   65      N      -0.0934363259    -1.4576932865    -0.6707370585
   66      N       0.9938666157    -0.9635625173     3.2069519564
   67      C      -0.6265031864    -1.1433780724     1.5606093217
   68      C      -1.0299738680    -1.3862960110     0.2982974410
   69      S      -0.4228096739    -0.6918933524     3.9793981717
   70      N      -1.3685875516    -0.9168570982     2.7139956590
   71      C      -2.4751625973    -1.5166391790    -0.0666630981
   72      S      -3.8547244123    -1.3146366759     1.0489959840
   73      C      -2.9216937199    -1.9002274238    -1.3185029501
   74      C      -4.9780749191    -2.0503109984    -0.1020226649
   75      S      -2.0588271573    -2.2336837096    -2.7566181057
   76      C      -4.3094376716    -2.2299067345    -1.3203131076
   77      C      -6.4082928319    -2.4084540151     0.1281235961
   78      C      -3.5478987927    -2.7821503544    -3.5315445564
   79      C      -4.6136702698    -2.7098424660    -2.6777479016
   80      N      -7.2243664227    -2.5644556201    -0.8504148005
   81      S      -7.0460320472    -2.6820848359     1.6452066087
   82      C      -8.4464974049    -3.1358643763    -0.3750287515
   83      C      -8.4658766876    -3.2753887994     0.9882769291
   84      C       7.4189108933    -2.2157014473     1.7755648213
   85      H       5.9090845496    -2.9713232038    -0.2589341768
   86      H       3.4564470746    -2.6187967282    -0.6742924562
   87      H       3.3868071173     0.0074440447     2.7807559775
   88      H       1.8217450295    -1.5779393390    -1.3180324030
   89      H      -3.6104760729    -3.1450151787    -4.5484355060
   90      H      -5.6355347854    -3.0180247592    -2.8685451393
   91      H      -9.1957926508    -3.2314227934    -1.1497798234
   92      H      -9.2168685098    -3.7036878886     1.6394398682
   93      H       7.7089985220    -1.7870816901     2.7426528583
   94      C       8.4166563511    -1.9020274232     0.6176211232
   95      H       7.4112272666    -3.2979115417     1.9524469110
   96      H       8.4906501941    -0.8144333646     0.4967655285
   97      H       7.9564041763    -2.2310949751    -0.3226641963
   98      C       9.8359129822    -2.4466556829     0.8860306493
   99      H      10.0261458861    -2.2495740183     1.9481983666
  100      C      10.9194092671    -1.7281209833     0.0350325964
  101      H       9.8603491558    -3.5395230839     0.8024022014
  102      H      11.8772411245    -2.1710300403     0.3358825595
  103      H      10.8052969520    -0.6528505555     0.2219012312
  104      C      10.6863651564    -2.1806112158    -1.4299100755
  105      H      10.8172600020    -3.2652229025    -1.5345954544
  106      C      11.5792007135    -1.5183958411    -2.4816707258
  107      H       9.6405156047    -2.0315731195    -1.7251258627
  108      H      11.4304762259    -2.1129544480    -3.3919894006
  109      H      12.6443472683    -1.6573533536    -2.2608458487
  110      H      11.3937198248    -0.4404640952    -2.5716151039
 ----------------------------------------------------------------

   10   -5663.5240850869      3.70E-06 Convergence criterion met
 Total energy in the final basis set = -5663.5240850869

                    Orbital Energies (a.u.)
 --------------------------------------------------------------

 Alpha MOs
 -- Occupied --
-88.993 -88.981 -88.935 -88.925 -88.924 -88.923 -88.908 -88.907
-14.386 -14.378 -14.376 -14.369 -14.348 -14.346 -14.344 -14.340
-14.324 -14.317 -10.275 -10.265 -10.255 -10.253 -10.248 -10.247
-10.246 -10.245 -10.244 -10.240 -10.239 -10.239 -10.236 -10.235
-10.234 -10.231 -10.231 -10.229 -10.226 -10.225 -10.224 -10.224
-10.224 -10.221 -10.220 -10.220 -10.216 -10.212 -10.211 -10.209
-10.207 -10.207 -10.204 -10.204 -10.196 -10.196 -10.190 -10.187
-10.183 -10.182 -10.180 -10.180 -10.179 -10.176 -10.174 -10.173
-10.173 -10.169 -10.166 -10.166  -8.048  -8.036  -7.993  -7.988
 -7.983  -7.981  -7.968  -7.967  -6.013  -6.007  -6.006  -6.002
 -5.996  -5.994  -5.958  -5.954  -5.952  -5.950  -5.948  -5.947
 -5.946  -5.945  -5.943  -5.942  -5.939  -5.938  -5.933  -5.932
 -5.929  -5.928  -5.925  -5.924  -1.034  -1.025  -0.980  -0.970
 -0.964  -0.960  -0.940  -0.917  -0.911  -0.906  -0.899  -0.890
 -0.844  -0.842  -0.827  -0.824  -0.822  -0.812  -0.805  -0.805
 -0.803  -0.801  -0.788  -0.787  -0.780  -0.777  -0.764  -0.763
 -0.748  -0.747  -0.738  -0.737  -0.725  -0.722  -0.708  -0.708
 -0.693  -0.693  -0.678  -0.670  -0.650  -0.648  -0.643  -0.643
 -0.633  -0.630  -0.621  -0.619  -0.606  -0.605  -0.602  -0.598
 -0.595  -0.590  -0.581  -0.575  -0.572  -0.572  -0.566  -0.564
 -0.543  -0.542  -0.538  -0.537  -0.521  -0.519  -0.516  -0.514
 -0.502  -0.498  -0.495  -0.494  -0.485  -0.480  -0.477  -0.473
 -0.473  -0.466  -0.463  -0.462  -0.460  -0.457  -0.453  -0.448
 -0.447  -0.440  -0.440  -0.438  -0.436  -0.433  -0.432  -0.431
 -0.429  -0.426  -0.422  -0.419  -0.417  -0.415  -0.415  -0.414
 -0.411  -0.410  -0.407  -0.403  -0.400  -0.399  -0.397  -0.394
 -0.391  -0.388  -0.387  -0.384  -0.383  -0.380  -0.379  -0.377
 -0.377  -0.376  -0.370  -0.366  -0.362  -0.360  -0.356  -0.352
 -0.350  -0.348  -0.346  -0.344  -0.343  -0.342  -0.341  -0.337
 -0.335  -0.334  -0.334  -0.331  -0.329  -0.326  -0.323  -0.316
 -0.312  -0.311  -0.309  -0.304  -0.302  -0.301  -0.297  -0.294
 -0.293  -0.292  -0.291  -0.287  -0.286  -0.280  -0.279  -0.275
 -0.269  -0.268  -0.261  -0.259  -0.256  -0.248  -0.245  -0.244
 -0.243  -0.239  -0.233  -0.224  -0.197  -0.191

          Ground-State Mulliken Net Atomic Charges

     Atom                 Charge (a.u.)
  ----------------------------------------
      1 C                     0.282174
      2 C                    -0.122438
      3 N                    -0.475349
      4 C                    -0.087403
      5 C                     0.052626
      6 C                     0.054847
      7 C                     0.013840
      8 C                     0.044524
      9 C                     0.281663
     10 N                    -0.553718
     11 N                    -0.555716
     12 C                     0.221665
     13 C                     0.330800
     14 S                     0.598325
     15 N                    -0.572445
     16 C                    -0.222648
     17 S                     0.361132
     18 C                    -0.143885
     19 C                    -0.250911
     20 S                     0.284085
     21 C                     0.177545
     22 C                     0.076961
     23 C                    -0.303340
     24 C                    -0.082761
     25 N                    -0.424738
     26 S                     0.272292
     27 C                     0.126623
     28 C                    -0.309608
     29 C                    -0.216738
     30 H                     0.101432
     31 H                     0.127225
     32 H                     0.081074
     33 H                     0.120691
     34 H                     0.134244
     35 H                     0.114696
     36 H                     0.115148
     37 H                     0.131965
     38 H                     0.110203
     39 C                    -0.182337
     40 H                     0.089552
     41 H                     0.111122
     42 H                     0.089972
     43 C                    -0.163374
     44 H                     0.090314
     45 C                    -0.172884
     46 H                     0.084019
     47 H                     0.087052
     48 H                     0.083859
     49 C                    -0.185068
     50 H                     0.084171
     51 C                    -0.304651
     52 H                     0.089717
     53 H                     0.108918
     54 H                     0.101041
     55 H                     0.103181
     56 C                     0.276249
     57 C                    -0.101471
     58 N                    -0.515362
     59 C                    -0.077329
     60 C                     0.081231
     61 C                     0.038146
     62 C                     0.024079
     63 C                     0.054878
     64 C                     0.277123
     65 N                    -0.546748
     66 N                    -0.587867
     67 C                     0.209419
     68 C                     0.323599
     69 S                     0.628248
     70 N                    -0.576951
     71 C                    -0.207015
     72 S                     0.324912
     73 C                    -0.145658
     74 C                    -0.241680
     75 S                     0.282795
     76 C                     0.160360
     77 C                     0.087269
     78 C                    -0.313367
     79 C                    -0.064798
     80 N                    -0.438806
     81 S                     0.285169
     82 C                     0.093416
     83 C                    -0.308455
     84 C                    -0.238214
     85 H                     0.086726
     86 H                     0.096265
     87 H                     0.139974
     88 H                     0.127365
     89 H                     0.129937
     90 H                     0.116888
     91 H                     0.118508
     92 H                     0.143701
     93 H                     0.109292
     94 C                    -0.185886
     95 H                     0.108999
     96 H                     0.115026
     97 H                     0.100177
     98 C                    -0.183691
     99 H                     0.088250
    100 C                    -0.171118
    101 H                     0.090442
    102 H                     0.093780
    103 H                     0.092953
    104 C                    -0.176095
    105 H                     0.092639
    106 C                    -0.319709
    107 H                     0.096009
    108 H                     0.100483
    109 H                     0.101742
    110 H                     0.095486
  ----------------------------------------
  Sum of atomic charges =     0.000000

                    Cartesian Multipole Moments
 -----------------------------------------------------------------
    Charge (ESU x 10^10)
                 0.0000
    Dipole Moment (Debye)
         X       0.8071      Y      -2.5393      Z      -0.2828
       Tot       2.6795
    Quadrupole Moments (Debye-Ang)
        XX    -384.4747     XY      16.9899     YY    -444.7818
        XZ      -7.7943     YZ       9.2300     ZZ    -431.2861

 Total job time:  120.00s(wall), 1424.28s(cpu)
        *  Thank you very much for using Q-Chem.  Have a nice day.  *
