 Q-Chem 4.4, Q-Chem, Inc., Pleasanton, CA (2016)
 Q-Chem 4.4.2 for Intel X86 Linux

User input:
--------------------------------------------------------------
$comment
SP
$end

$rem
MEM_STATIC 5000
MEM_TOTAL 20000
JOBTYPE SP
EXCHANGE B3LYP
BASIS 6-31g(d,p)
$end

$molecule
0 1
C          12.618000     -0.339000     -9.235000
C          11.723000      0.615000     -8.696000
N          13.685000      0.041000     -9.949000
C          11.879000      1.964000     -9.081000
C          13.856000      1.363000    -10.297000
C          12.990000      2.398000     -9.834000
C          13.153000      3.804000    -10.121000
C          12.109000      4.659000    -10.518000
C          14.421000      4.459000    -10.287000
N          12.192000      6.019000    -10.602000
N          15.594000      3.806000    -10.185000
C          14.494000      5.830000    -10.461000
C          13.361000      6.634000    -10.550000
S          16.711000      4.929000    -10.384000
N          15.776000      6.229000    -10.617000
C          13.496000      8.123000    -10.458000
S          14.891000      9.160000    -10.509000
C          12.404000      8.997000    -10.393000
C          13.993000     10.721000    -10.355000
S          10.715000      8.627000    -10.325000
C          12.675000     10.355000    -10.299000
C          14.483000     11.997000     -9.984000
C          10.285000     10.313000    -10.143000
C          11.427000     11.138000    -10.187000
N          13.723000     13.059000    -10.130000
S          16.148000     12.214000     -9.704000
C          14.458000     14.234000    -10.230000
C          15.787000     13.936000    -10.055000
C          12.465000     -1.827000     -8.808000
H          10.853000      0.327000     -8.113000
H          11.152000      2.705000     -8.760000
H          14.733000      1.583000    -10.903000
H          11.115000      4.222000    -10.605000
H           9.262000     10.648000    -10.036000
H          11.396000     12.221000    -10.158000
H          13.952000     15.165000    -10.449000
H          16.645000     14.584000    -10.177000
H          11.383000     -2.010000     -8.788000
C          13.092000     -2.179000     -7.427000
H          12.764000     -2.491000     -9.629000
H          12.771000     -1.602000     -6.551000
H          14.168000     -1.969000     -7.441000
C          12.987000     -3.705000     -7.192000
H          12.010000     -3.970000     -6.769000
C          14.185000     -4.177000     -6.325000
H          13.036000     -4.314000     -8.103000
H          14.034000     -3.669000     -5.364000
H          15.157000     -3.798000     -6.664000
C          14.324000     -5.696000     -6.272000
H          13.427000     -6.100000     -5.787000
C          15.694000     -6.188000     -5.796000
H          14.159000     -6.113000     -7.273000
H          15.593000     -7.264000     -5.611000
H          16.047000     -5.683000     -4.888000
H          16.499000     -6.005000     -6.518000
C           9.900000     -0.085000     -5.906000
C           9.828000     -1.488000     -5.939000
N           9.103000      0.807000     -6.576000
C           8.903000     -2.059000     -6.866000
C           8.193000      0.213000     -7.375000
C           8.029000     -1.181000     -7.527000
C           7.012000     -1.765000     -8.440000
C           6.996000     -1.492000     -9.814000
C           6.083000     -2.738000     -8.020000
N           6.144000     -1.969000    -10.687000
N           6.025000     -3.295000     -6.776000
C           5.261000     -3.302000     -8.948000
C           5.222000     -2.847000    -10.261000
S           4.802000     -4.384000     -6.791000
N           4.482000     -4.308000     -8.417000
C           4.338000     -3.520000    -11.232000
S           2.923000     -4.631000    -10.910000
C           4.548000     -3.486000    -12.638000
C           2.662000     -4.954000    -12.615000
S           5.760000     -2.705000    -13.586000
C           3.595000     -4.329000    -13.321000
C           1.638000     -5.880000    -13.017000
C           4.877000     -3.383000    -15.004000
C           3.847000     -4.247000    -14.700000
N           1.564000     -6.248000    -14.247000
S           0.380000     -6.313000    -11.914000
C           0.467000     -7.109000    -14.342000
C          -0.272000     -7.303000    -13.189000
C          11.072000      0.440000     -5.167000
H          10.401000     -2.131000     -5.278000
H           8.820000     -3.137000     -6.964000
H           7.484000      0.829000     -7.926000
H           7.822000     -0.846000    -10.107000
H           5.066000     -3.033000    -16.010000
H           3.197000     -4.660000    -15.463000
H           0.281000     -7.561000    -15.307000
H          -1.101000     -7.978000    -13.024000
H          11.806000     -0.362000     -5.019000
C          10.739000      1.231000     -3.841000
H          11.550000      1.177000     -5.824000
H           9.947000      1.982000     -3.951000
H          11.671000      1.774000     -3.645000
C          10.480000      0.186000     -2.713000
H           9.538000     -0.353000     -2.878000
C          10.365000      0.927000     -1.376000
H          11.337000     -0.497000     -2.674000
H           9.592000      1.704000     -1.416000
H          11.300000      1.443000     -1.126000
C           9.864000      0.053000     -0.212000
H           9.664000      0.695000      0.655000
C          10.787000     -1.145000      0.008000
H           8.865000     -0.378000     -0.353000
H          11.809000     -0.788000      0.187000
H          10.887000     -1.765000     -0.891000
H          10.384000     -1.721000      0.850000
$end

--------------------------------------------------------------

             Standard Nuclear Orientation (Angstroms)
    I     Atom           X                Y                Z
 ----------------------------------------------------------------
    1      C       0.4311537068    -2.0216875966    -2.4584260106
    2      C       0.7051171714    -1.6044297879    -1.1346050479
    3      N       1.3262166816    -1.8433767530    -3.4380956050
    4      C       1.8655787011    -0.8335492772    -0.9078137865
    5      C       2.4756670087    -1.1193517171    -3.2087908012
    6      C       2.8279959652    -0.6248604392    -1.9177088199
    7      C       4.0438715445     0.0906269780    -1.6086807765
    8      C       4.1000863756     1.2596712905    -0.8284594693
    9      C       5.3085160976    -0.1384353401    -2.2510277301
   10      N       5.2427439235     1.8398254747    -0.3580342886
   11      N       5.4753439997    -1.0617850751    -3.2166030601
   12      C       6.4493497819     0.5202712641    -1.8269403399
   13      C       6.4286662298     1.4757232810    -0.8146609151
   14      S       7.0275428223    -0.9996131515    -3.5843427330
   15      N       7.5159877597     0.1718752934    -2.5805746491
   16      C       7.7155048840     1.9478725532    -0.2105654401
   17      S       9.3694320634     1.7242428222    -0.6989399160
   18      C       7.7837085049     2.7934921368     0.9033648925
   19      C      10.1112023142     2.6870698011     0.6388127158
   20      S       6.4967834274     3.4218241459     1.8745846057
   21      C       9.0447053266     3.1435084003     1.3657679969
   22      C      11.4494471440     2.6829037510     1.1024940928
   23      C       7.6158158928     4.1837691620     2.9826577684
   24      C       8.9503369468     3.9926337522     2.5712628105
   25      N      11.8530968583     3.6039784076     1.9483359131
   26      S      12.6174071323     1.7365003123     0.3038051690
   27      C      13.2283136711     3.7995565238     1.9112155923
   28      C      13.7773880755     2.8885644869     1.0427221801
   29      C      -0.8375558788    -2.8831840909    -2.7193508612
   30      H      -0.0070059960    -1.7415159533    -0.3260130756
   31      H       2.0544381428    -0.4187688964     0.0785635992
   32      H       3.1357426082    -0.9958743038    -4.0654228875
   33      H       3.1588048796     1.6372929877    -0.4310113606
   34      H       7.2914556486     4.7425797937     3.8502545123
   35      H       9.8084033789     4.4288009776     3.0694306030
   36      H      13.6713778828     4.5979782639     2.4917109232
   37      H      14.7980013066     2.8248006516     0.6888368800
   38      H      -1.6196096966    -2.4404592370    -2.0892718742
   39      C      -0.6794840563    -4.3967622745    -2.3902788610
   40      H      -1.2424052683    -2.6716018426    -3.7171824722
   41      H      -0.3548644885    -4.6753520400    -1.3801521963
   42      H       0.1211763261    -4.8300914246    -3.0012132271
   43      C      -1.9610186884    -5.1499850227    -2.8206862006
   44      H      -2.7259914333    -5.1020639244    -2.0357000429
   45      C      -1.5922121110    -6.5991482916    -3.2373209671
   46      H      -2.4730765248    -4.7236262026    -3.6920173252
   47      H      -1.2189342943    -7.0549968767    -2.3114420663
   48      H      -0.7335863818    -6.6624739096    -3.9170986685
   49      C      -2.7346026104    -7.3299091403    -3.9376234223
   50      H      -3.5615360850    -7.4258938271    -3.2234679991
   51      C      -2.3019672112    -8.5716689519    -4.7227343582
   52      H      -3.2220792846    -6.6504452714    -4.6474194091
   53      H      -3.2203869947    -9.1043159748    -4.9965851392
   54      H      -1.6380239235    -9.2362980149    -4.1556845197
   55      H      -1.7202859273    -8.3387715785    -5.6228475164
   56      C      -0.7807440842    -3.1357882333     1.5195589712
   57      C      -1.9579601272    -3.6490937277     0.9491539771
   58      N      -0.5642836387    -1.8635901442     1.9826247307
   59      C      -3.0120955339    -2.7151237787     0.7093755817
   60      C      -1.6213093012    -1.0447322533     1.8051268339
   61      C      -2.8516714121    -1.4176385078     1.2217007450
   62      C      -3.9695744124    -0.4544237767     1.0444318426
   63      C      -3.8323117885     0.7204846491     0.2938253125
   64      C      -5.2783568031    -0.7175607406     1.4961149085
   65      N      -4.7647601317     1.6154865339     0.0815196046
   66      N      -5.6954358077    -1.8723853004     2.0907360821
   67      C      -6.2664131148     0.1693060392     1.1925098364
   68      C      -5.9923808696     1.3831678057     0.5728640178
   69      S      -7.2939145310    -1.7040660539     2.4044388115
   70      N      -7.5078073120    -0.2664762569     1.6046654349
   71      C      -7.1071892834     2.2889975202     0.2353721976
   72      S      -8.8180645440     2.2840534212     0.8781096234
   73      C      -7.0319785303     3.2793604776    -0.7822802751
   74      C      -9.3238210762     3.5899842095    -0.1793543742
   75      S      -5.7404728901     3.7300651595    -1.8341773571
   76      C      -8.3091297421     3.9284118863    -0.9638403232
   77      C     -10.6945980124     4.0242198808    -0.1712319964
   78      C      -6.8827538464     4.9766788375    -2.4596736037
   79      C      -8.1690383162     4.8969908318    -1.9708647612
   80      N     -11.1013719146     4.8547957758    -1.0648083363
   81      S     -11.7237137985     3.6195286090     1.1568522153
   82      C     -12.4460160267     5.1157939322    -0.7862994962
   83      C     -12.9746665832     4.5148514189     0.3417797053
   84      C       0.3711678506    -4.0658536258     1.4611872283
   85      H      -2.1053209152    -4.7021490013     0.7299317407
   86      H      -3.9367696462    -3.0400948179     0.2425259168
   87      H      -1.5697003291    -0.0202213081     2.1704374377
   88      H      -2.8412929094     0.8030031075    -0.1494728776
   89      H      -6.5431533303     5.7994715354    -3.0744423943
   90      H      -8.9252747232     5.6341943778    -2.2155593228
   91      H     -12.9721573639     5.7636295890    -1.4744922418
   92      H     -13.9977481200     4.5202553112     0.6930146224
   93      H       0.1623541633    -4.8692635635     0.7436962416
   94      C       0.8857660146    -4.5965889341     2.8570220187
   95      H       1.2117867941    -3.4951060794     1.0477757745
   96      H       1.0213742313    -3.8146651995     3.6143665141
   97      H       1.8821135554    -4.9840132672     2.6139521436
   98      C      -0.0497137691    -5.7630030705     3.2995665212
   99      H      -1.0470364646    -5.3928259595     3.5705394857
  100      C       0.5530961962    -6.4300296793     4.5411665569
  101      H      -0.0960492219    -6.4945861796     2.4840310037
  102      H       0.7246220003    -5.7005897375     5.3420125283
  103      H       1.5322999870    -6.8714555454     4.3191662398
  104      C      -0.3844333765    -7.4349153790     5.2347197495
  105      H       0.0632496062    -7.7395962712     6.1889746949
  106      C      -0.7982403304    -8.5487690026     4.2736646469
  107      H      -1.3267066189    -7.0109003333     5.6034681430
  108      H       0.0998121989    -9.0435809383     3.8829770442
  109      H      -1.2885917358    -8.1612497194     3.3725623750
  110      H      -1.4548439167    -9.2326687036     4.8253003323
 ----------------------------------------------------------------

   10   -5663.5098080063      4.05E-06 Convergence criterion met
 Total energy in the final basis set = -5663.5098080063

                    Orbital Energies (a.u.)
 --------------------------------------------------------------

 Alpha MOs
 -- Occupied --
-88.995 -88.985 -88.928 -88.923 -88.923 -88.921 -88.916 -88.900
-14.387 -14.380 -14.379 -14.376 -14.353 -14.350 -14.347 -14.344
-14.336 -14.324 -10.268 -10.265 -10.263 -10.263 -10.252 -10.250
-10.250 -10.247 -10.246 -10.243 -10.238 -10.238 -10.237 -10.236
-10.235 -10.235 -10.234 -10.234 -10.234 -10.234 -10.230 -10.227
-10.225 -10.223 -10.222 -10.221 -10.220 -10.219 -10.218 -10.217
-10.210 -10.207 -10.205 -10.205 -10.203 -10.193 -10.193 -10.191
-10.187 -10.185 -10.185 -10.184 -10.181 -10.180 -10.178 -10.176
-10.175 -10.175 -10.174 -10.170  -8.050  -8.042  -7.990  -7.986
 -7.981  -7.980  -7.975  -7.960  -6.015  -6.009  -6.008  -6.007
 -6.001  -6.000  -5.954  -5.951  -5.949  -5.947  -5.946  -5.946
 -5.944  -5.942  -5.942  -5.940  -5.939  -5.938  -5.936  -5.936
 -5.931  -5.925  -5.921  -5.916  -1.045  -1.031  -0.982  -0.972
 -0.968  -0.961  -0.944  -0.925  -0.910  -0.909  -0.902  -0.892
 -0.843  -0.840  -0.838  -0.834  -0.817  -0.815  -0.810  -0.806
 -0.804  -0.800  -0.800  -0.793  -0.790  -0.777  -0.768  -0.767
 -0.753  -0.748  -0.744  -0.735  -0.717  -0.716  -0.712  -0.706
 -0.694  -0.690  -0.679  -0.672  -0.656  -0.653  -0.651  -0.642
 -0.640  -0.635  -0.632  -0.623  -0.616  -0.607  -0.600  -0.596
 -0.594  -0.591  -0.583  -0.583  -0.581  -0.578  -0.575  -0.563
 -0.555  -0.545  -0.544  -0.540  -0.524  -0.519  -0.516  -0.511
 -0.505  -0.502  -0.499  -0.498  -0.496  -0.483  -0.482  -0.479
 -0.475  -0.471  -0.470  -0.468  -0.463  -0.461  -0.450  -0.447
 -0.441  -0.441  -0.440  -0.439  -0.436  -0.433  -0.432  -0.430
 -0.428  -0.427  -0.424  -0.423  -0.420  -0.419  -0.417  -0.413
 -0.410  -0.408  -0.406  -0.404  -0.401  -0.400  -0.398  -0.397
 -0.395  -0.392  -0.390  -0.388  -0.387  -0.387  -0.386  -0.383
 -0.381  -0.380  -0.376  -0.372  -0.371  -0.368  -0.362  -0.359
 -0.353  -0.347  -0.347  -0.345  -0.343  -0.342  -0.339  -0.337
 -0.337  -0.334  -0.333  -0.330  -0.328  -0.327  -0.322  -0.322
 -0.319  -0.316  -0.307  -0.306  -0.305  -0.303  -0.300  -0.299
 -0.295  -0.294  -0.292  -0.291  -0.287  -0.287  -0.282  -0.279
 -0.274  -0.273  -0.271  -0.262  -0.261  -0.259  -0.245  -0.243
 -0.241  -0.239  -0.233  -0.229  -0.199  -0.191

          Ground-State Mulliken Net Atomic Charges

     Atom                 Charge (a.u.)
  ----------------------------------------
      1 C                     0.248705
      2 C                    -0.095586
      3 N                    -0.485848
      4 C                    -0.105857
      5 C                     0.080597
      6 C                     0.050518
      7 C                     0.039891
      8 C                     0.043492
      9 C                     0.195755
     10 N                    -0.523032
     11 N                    -0.542376
     12 C                     0.203715
     13 C                     0.344381
     14 S                     0.604085
     15 N                    -0.554360
     16 C                    -0.215411
     17 S                     0.318535
     18 C                    -0.131687
     19 C                    -0.243232
     20 S                     0.283455
     21 C                     0.148940
     22 C                     0.081033
     23 C                    -0.314994
     24 C                    -0.056068
     25 N                    -0.443141
     26 S                     0.261838
     27 C                     0.142166
     28 C                    -0.324368
     29 C                    -0.221094
     30 H                     0.096171
     31 H                     0.106397
     32 H                     0.121256
     33 H                     0.111397
     34 H                     0.131548
     35 H                     0.124744
     36 H                     0.127888
     37 H                     0.124113
     38 H                     0.096818
     39 C                    -0.179375
     40 H                     0.113856
     41 H                     0.099266
     42 H                     0.113349
     43 C                    -0.185482
     44 H                     0.085922
     45 C                    -0.174853
     46 H                     0.096141
     47 H                     0.085915
     48 H                     0.095166
     49 C                    -0.176612
     50 H                     0.089534
     51 C                    -0.323412
     52 H                     0.093329
     53 H                     0.102662
     54 H                     0.103441
     55 H                     0.108540
     56 C                     0.262400
     57 C                    -0.103802
     58 N                    -0.470512
     59 C                    -0.072414
     60 C                     0.058192
     61 C                     0.052241
     62 C                    -0.029892
     63 C                     0.090732
     64 C                     0.250951
     65 N                    -0.525587
     66 N                    -0.562711
     67 C                     0.216066
     68 C                     0.309347
     69 S                     0.613770
     70 N                    -0.574680
     71 C                    -0.232425
     72 S                     0.307540
     73 C                    -0.108334
     74 C                    -0.240991
     75 S                     0.292431
     76 C                     0.166195
     77 C                     0.102947
     78 C                    -0.313754
     79 C                    -0.054539
     80 N                    -0.441677
     81 S                     0.274490
     82 C                     0.112560
     83 C                    -0.305665
     84 C                    -0.244090
     85 H                     0.107915
     86 H                     0.112382
     87 H                     0.103997
     88 H                     0.110666
     89 H                     0.123601
     90 H                     0.126613
     91 H                     0.111713
     92 H                     0.138628
     93 H                     0.097399
     94 C                    -0.182867
     95 H                     0.115861
     96 H                     0.117098
     97 H                     0.095337
     98 C                    -0.168700
     99 H                     0.100785
    100 C                    -0.172298
    101 H                     0.092466
    102 H                     0.088458
    103 H                     0.091448
    104 C                    -0.182032
    105 H                     0.088044
    106 C                    -0.311988
    107 H                     0.089576
    108 H                     0.098422
    109 H                     0.103741
    110 H                     0.097170
  ----------------------------------------
  Sum of atomic charges =     0.000000

                    Cartesian Multipole Moments
 -----------------------------------------------------------------
    Charge (ESU x 10^10)
                 0.0000
    Dipole Moment (Debye)
         X      -2.7124      Y      -1.1910      Z       1.5037
       Tot       3.3222
    Quadrupole Moments (Debye-Ang)
        XX    -350.2620     XY      -4.9232     YY    -430.8419
        XZ      -6.7602     YZ       0.1602     ZZ    -446.8061

 Total job time:  90.36s(wall), 1068.81s(cpu)
        *  Thank you very much for using Q-Chem.  Have a nice day.  *
