 Q-Chem 4.4, Q-Chem, Inc., Pleasanton, CA (2016)
 Q-Chem 4.4.2 for Intel X86 Linux

User input:
--------------------------------------------------------------
$comment
SP
$end

$rem
MEM_STATIC 5000
MEM_TOTAL 20000
JOBTYPE SP
EXCHANGE B3LYP
BASIS 6-31g(d,p)
$end

$molecule
0 1
C          -3.002000    -13.483000    -13.705000
C          -2.301000    -12.609000    -14.527000
N          -2.973000    -13.382000    -12.377000
C          -1.430000    -11.731000    -13.860000
C          -2.202000    -12.487000    -11.787000
C          -1.337000    -11.685000    -12.460000
C          -0.511000    -10.679000    -11.692000
C          -1.122000     -9.776000    -10.714000
C           0.845000    -10.426000    -11.887000
N          -0.458000     -8.948000     -9.903000
N           1.625000    -11.053000    -12.786000
C           1.570000     -9.617000    -11.006000
C           0.890000     -8.905000     -9.990000
S           3.107000    -10.161000    -12.758000
N           2.938000     -9.557000    -11.263000
C           1.494000     -8.186000     -8.833000
S           0.682000     -6.828000     -7.995000
C           2.590000     -8.554000     -8.148000
C           1.866000     -6.899000     -6.669000
S           3.706000     -9.936000     -8.372000
C           2.811000     -7.859000     -6.930000
C           1.675000     -6.273000     -5.347000
C           4.504000     -9.389000     -6.865000
C           3.915000     -8.410000     -6.188000
N           2.680000     -5.790000     -4.629000
S           0.081000     -6.084000     -4.604000
C           2.218000     -5.302000     -3.416000
C           0.850000     -5.373000     -3.179000
C          -3.915000    -14.527000    -14.380000
H          -2.104000    -12.807000    -15.576000
H          -0.822000    -11.034000    -14.429000
H          -2.105000    -12.511000    -10.703000
H          -2.205000     -9.700000    -10.621000
H           5.368000     -9.908000     -6.472000
H           4.138000     -8.072000     -5.182000
H           2.959000     -4.893000     -2.742000
H           0.296000     -5.225000     -2.262000
H          -3.356000    -15.127000    -15.109000
C          -5.114000    -13.844000    -15.054000
H          -4.224000    -15.203000    -13.573000
H          -4.785000    -13.176000    -15.859000
H          -5.626000    -13.270000    -14.271000
C          -6.179000    -14.875000    -15.519000
H          -5.766000    -15.862000    -15.762000
C          -7.116000    -14.323000    -16.631000
H          -6.739000    -15.287000    -14.670000
H          -7.516000    -13.408000    -16.177000
H          -8.035000    -14.918000    -16.714000
C          -6.445000    -14.171000    -18.001000
H          -5.883000    -13.240000    -17.856000
C          -7.443000    -13.993000    -19.148000
H          -5.642000    -14.905000    -18.142000
H          -6.884000    -14.113000    -20.084000
H          -7.825000    -12.965000    -19.148000
H          -8.232000    -14.755000    -19.138000
C           9.900000     -0.085000     -5.906000
C           9.828000     -1.488000     -5.939000
N           9.103000      0.807000     -6.576000
C           8.903000     -2.059000     -6.866000
C           8.193000      0.213000     -7.375000
C           8.029000     -1.181000     -7.527000
C           7.012000     -1.765000     -8.440000
C           6.996000     -1.492000     -9.814000
C           6.083000     -2.738000     -8.020000
N           6.144000     -1.969000    -10.687000
N           6.025000     -3.295000     -6.776000
C           5.261000     -3.302000     -8.948000
C           5.222000     -2.847000    -10.261000
S           4.802000     -4.384000     -6.791000
N           4.482000     -4.308000     -8.417000
C           4.338000     -3.520000    -11.232000
S           2.923000     -4.631000    -10.910000
C           4.548000     -3.486000    -12.638000
C           2.662000     -4.954000    -12.615000
S           5.760000     -2.705000    -13.586000
C           3.595000     -4.329000    -13.321000
C           1.638000     -5.880000    -13.017000
C           4.877000     -3.383000    -15.004000
C           3.847000     -4.247000    -14.700000
N           1.564000     -6.248000    -14.247000
S           0.380000     -6.313000    -11.914000
C           0.467000     -7.109000    -14.342000
C          -0.272000     -7.303000    -13.189000
C          11.072000      0.440000     -5.167000
H          10.401000     -2.131000     -5.278000
H           8.820000     -3.137000     -6.964000
H           7.484000      0.829000     -7.926000
H           7.822000     -0.846000    -10.107000
H           5.066000     -3.033000    -16.010000
H           3.197000     -4.660000    -15.463000
H           0.281000     -7.561000    -15.307000
H          -1.101000     -7.978000    -13.024000
H          11.806000     -0.362000     -5.019000
C          10.739000      1.231000     -3.841000
H          11.550000      1.177000     -5.824000
H           9.947000      1.982000     -3.951000
H          11.671000      1.774000     -3.645000
C          10.480000      0.186000     -2.713000
H           9.538000     -0.353000     -2.878000
C          10.365000      0.927000     -1.376000
H          11.337000     -0.497000     -2.674000
H           9.592000      1.704000     -1.416000
H          11.300000      1.443000     -1.126000
C           9.864000      0.053000     -0.212000
H           9.664000      0.695000      0.655000
C          10.787000     -1.145000      0.008000
H           8.865000     -0.378000     -0.353000
H          11.809000     -0.788000      0.187000
H          10.887000     -1.765000     -0.891000
H          10.384000     -1.721000      0.850000
$end

--------------------------------------------------------------

             Standard Nuclear Orientation (Angstroms)
    I     Atom           X                Y                Z
 ----------------------------------------------------------------
    1      C       9.8365360269    -1.2353674866     0.8967920366
    2      C       9.2923402083     0.0432265524     0.8937597819
    3      N       9.0874414935    -2.3234289116     0.7247289221
    4      C       7.8883036527     0.0944801545     0.8721168004
    5      C       7.7742140434    -2.2274107581     0.6258341362
    6      C       7.0960611597    -1.0605586665     0.7772371169
    7      C       5.5922667856    -1.0541777852     0.6265793432
    8      C       4.9367989649    -1.6823622480    -0.5227509908
    9      C       4.6967839374    -0.3915853983     1.4631507971
   10      N       3.6186019515    -1.8351279874    -0.6751329538
   11      N       5.0419713143     0.3348995294     2.5414806745
   12      C       3.3167369087    -0.5951017825     1.3615718622
   13      C       2.7994127112    -1.3571310196     0.2876598004
   14      S       3.5726560283     1.1149114395     3.0163132875
   15      N       2.5607740879     0.0417285211     2.3434274411
   16      C       1.4091056830    -1.8704392932     0.1327824820
   17      S       0.6764952789    -2.2416781377    -1.4581970012
   18      C       0.6029657416    -2.3022560041     1.1174335486
   19      C      -0.6859669831    -3.0715743838    -0.6707061725
   20      S       0.8510937017    -2.3812666663     2.8888018984
   21      C      -0.5658474024    -2.9875348772     0.6935718958
   22      C      -1.6100148339    -3.9932108460    -1.3582836597
   23      C      -0.7333651764    -3.2128995111     2.9590790305
   24      C      -1.2960626544    -3.5440924067     1.8026302361
   25      N      -2.8863100657    -4.1160614601    -1.0194382558
   26      S      -1.1082928405    -5.0052960892    -2.7193731137
   27      C      -3.5042752925    -5.0804803514    -1.8010853504
   28      C      -2.7316213391    -5.7048457660    -2.7736118011
   29      C      11.3701883098    -1.3626135072     1.0009511717
   30      H       9.8183064927     0.9150381864     1.2702142181
   31      H       7.3802089622     1.0538756406     0.8972978824
   32      H       7.1809975134    -3.1400522681     0.6109807588
   33      H       5.5170276533    -2.0390243738    -1.3733042209
   34      H      -1.1574547964    -3.5248907766     3.9041268835
   35      H      -2.1451160720    -4.1992930597     1.6419149648
   36      H      -4.5500130625    -5.2725658361    -1.6006516132
   37      H      -2.9392102788    -6.5867020861    -3.3643276913
   38      H      11.7506359990    -0.8335856431     1.8837371450
   39      C      12.0459701036    -0.8351865037    -0.2732174683
   40      H      11.5597914348    -2.4318594131     1.1573795827
   41      H      11.8477281052     0.2346404120    -0.4098208373
   42      H      11.6246430212    -1.4082231705    -1.1091728906
   43      C      13.5602146207    -1.1804802558    -0.3085270588
   44      H      14.0178935873    -1.2753517368     0.6841039732
   45      C      14.3729185846    -0.2583305590    -1.2616111075
   46      H      13.7263062487    -2.2447545784    -0.5179995809
   47      H      13.8437746311    -0.3715247074    -2.2158305588
   48      H      15.3422845531    -0.7035745091    -1.5215388745
   49      C      14.5567683336     1.1736896144    -0.7460895340
   50      H      13.5764861723     1.6072057122    -0.9800567905
   51      C      15.6491817263     1.9487970778    -1.4871282642
   52      H      14.5690574608     1.2106841754     0.3502344965
   53      H      15.8464775714     2.8603364117    -0.9099390472
   54      H      15.2703726004     2.2785244221    -2.4620598129
   55      H      16.5909220680     1.3895969706    -1.5478355026
   56      C     -10.1455256171     1.4770157917     0.5061535750
   57      C      -9.2432947493     0.8858612383     1.4068187488
   58      N      -9.8467344954     2.2050400969    -0.6165563059
   59      C      -7.8584230258     1.1733224854     1.2055941462
   60      C      -8.5220273742     2.3771399532    -0.8032905626
   61      C      -7.5079551481     1.8656568598     0.0353264927
   62      C      -6.0652129786     2.1092808745    -0.2255496694
   63      C      -5.5251118770     3.4001756735    -0.2929471318
   64      C      -5.1170736091     1.0682350494    -0.2840759537
   65      N      -4.2691883428     3.7022788307    -0.5096306771
   66      N      -5.3753600941    -0.2534835967    -0.0661380904
   67      C      -3.7998734896     1.3889595764    -0.4147802882
   68      C      -3.3853620291     2.6986372217    -0.6279462202
   69      S      -3.9554282887    -1.0547730441    -0.2197736638
   70      N      -2.9811807001     0.2814264763    -0.3519268989
   71      C      -1.9426111520     2.9920200605    -0.7260401371
   72      S      -0.5603901891     1.8373488388    -1.0365712617
   73      C      -1.3835013790     4.2728948196    -0.4636508969
   74      C       0.6562254438     3.0878597630    -0.8480405470
   75      S      -2.1257610564     5.7658439401    -0.0189459442
   76      C       0.0585745250     4.2268908041    -0.5240472340
   77      C       2.0502625753     2.7450420146    -0.9304569722
   78      C      -0.4549303132     6.4409155570    -0.0709068864
   79      C       0.5491944075     5.5170842110    -0.2660509089
   80      N       2.9378447433     3.6221890720    -0.6196339764
   81      S       2.5342693155     1.2545137299    -1.6589656598
   82      C       4.1832581527     3.0228552496    -0.8281990955
   83      C       4.1763900231     1.7396769072    -1.3445053712
   84      C     -11.5613324603     1.4017711262     0.9364548916
   85      H      -9.5476278808     0.2078759914     2.1982834354
   86      H      -7.1113170341     0.7735324333     1.8842527875
   87      H      -8.1725749615     2.9103746935    -1.6860599112
   88      H      -6.2774192331     4.1632468822    -0.1000819656
   89      H      -0.2741329988     7.5074748921    -0.0754363280
   90      H       1.5857411921     5.8098163837    -0.3890006479
   91      H       5.0569480610     3.6047803820    -0.5671357230
   92      H       5.0125723908     1.0731968143    -1.5078893781
   93      H     -11.6113536862     1.1420620827     2.0013084448
   94      C     -12.4980802864     0.5065813258     0.0331361596
   95      H     -11.9682127809     2.4166194832     0.8479494289
   96      H     -12.4006529295     0.6953497652    -1.0430791472
   97      H     -13.5014143013     0.8363836841     0.3271434027
   98      C     -12.2804707262    -0.9813276840     0.4457653610
   99      H     -11.2889750877    -1.3388773741     0.1388376528
  100      C     -13.3282236454    -1.8450380384    -0.2656369471
  101      H     -12.4231781214    -1.0615845649     1.5300404333
  102      H     -13.2935261535    -1.6998061910    -1.3521735523
  103      H     -14.3445059141    -1.5722378979     0.0437680200
  104      C     -13.0809500068    -3.3599562796    -0.1487974410
  105      H     -13.7792524412    -3.8869314085    -0.8110088300
  106      C     -13.0473989324    -3.7965067825     1.3153852607
  107      H     -12.1308919533    -3.7082754439    -0.5727154221
  108      H     -13.9865819365    -3.5058124957     1.8026286458
  109      H     -12.2840059078    -3.2612438889     1.8927289407
  110      H     -12.8770095186    -4.8799427664     1.3322053805
 ----------------------------------------------------------------

   10   -5663.4975555143      4.54E-06 Convergence criterion met
 Total energy in the final basis set = -5663.4975555143

                    Orbital Energies (a.u.)
 --------------------------------------------------------------

 Alpha MOs
 -- Occupied --
-88.993 -88.982 -88.930 -88.926 -88.925 -88.914 -88.913 -88.910
-14.396 -14.383 -14.374 -14.368 -14.358 -14.353 -14.345 -14.343
-14.333 -14.329 -10.280 -10.272 -10.264 -10.264 -10.259 -10.256
-10.252 -10.245 -10.243 -10.241 -10.240 -10.239 -10.239 -10.238
-10.237 -10.234 -10.234 -10.233 -10.231 -10.230 -10.229 -10.227
-10.226 -10.225 -10.224 -10.224 -10.218 -10.216 -10.215 -10.215
-10.211 -10.208 -10.206 -10.202 -10.200 -10.200 -10.197 -10.189
-10.188 -10.188 -10.181 -10.181 -10.180 -10.178 -10.178 -10.177
-10.177 -10.173 -10.171 -10.169  -8.048  -8.036  -7.990  -7.987
 -7.985  -7.973  -7.972  -7.969  -6.013  -6.008  -6.006  -6.001
 -5.996  -5.994  -5.954  -5.951  -5.950  -5.949  -5.947  -5.947
 -5.946  -5.943  -5.941  -5.937  -5.937  -5.934  -5.934  -5.933
 -5.930  -5.929  -5.928  -5.926  -1.029  -1.019  -0.979  -0.969
 -0.966  -0.963  -0.953  -0.932  -0.914  -0.903  -0.900  -0.881
 -0.845  -0.837  -0.831  -0.829  -0.814  -0.813  -0.810  -0.806
 -0.805  -0.803  -0.799  -0.792  -0.791  -0.784  -0.770  -0.761
 -0.753  -0.748  -0.746  -0.738  -0.728  -0.715  -0.710  -0.706
 -0.701  -0.688  -0.680  -0.671  -0.656  -0.650  -0.649  -0.641
 -0.638  -0.632  -0.631  -0.624  -0.617  -0.610  -0.603  -0.596
 -0.596  -0.591  -0.588  -0.580  -0.578  -0.573  -0.571  -0.560
 -0.555  -0.549  -0.544  -0.534  -0.526  -0.519  -0.515  -0.512
 -0.510  -0.505  -0.501  -0.495  -0.491  -0.486  -0.480  -0.473
 -0.473  -0.471  -0.468  -0.460  -0.460  -0.457  -0.456  -0.452
 -0.445  -0.441  -0.438  -0.437  -0.436  -0.435  -0.434  -0.433
 -0.430  -0.426  -0.424  -0.423  -0.420  -0.417  -0.416  -0.413
 -0.410  -0.410  -0.408  -0.406  -0.403  -0.403  -0.399  -0.396
 -0.394  -0.391  -0.389  -0.387  -0.386  -0.384  -0.381  -0.379
 -0.379  -0.375  -0.374  -0.372  -0.368  -0.364  -0.363  -0.358
 -0.356  -0.353  -0.352  -0.350  -0.346  -0.343  -0.342  -0.338
 -0.338  -0.336  -0.334  -0.330  -0.325  -0.321  -0.320  -0.319
 -0.314  -0.313  -0.310  -0.302  -0.302  -0.297  -0.297  -0.296
 -0.294  -0.294  -0.292  -0.291  -0.289  -0.287  -0.285  -0.284
 -0.276  -0.272  -0.271  -0.263  -0.258  -0.256  -0.253  -0.250
 -0.249  -0.242  -0.237  -0.226  -0.205  -0.193

          Ground-State Mulliken Net Atomic Charges

     Atom                 Charge (a.u.)
  ----------------------------------------
      1 C                     0.257632
      2 C                    -0.108168
      3 N                    -0.476135
      4 C                    -0.073766
      5 C                     0.069543
      6 C                     0.067070
      7 C                    -0.020074
      8 C                     0.047007
      9 C                     0.270600
     10 N                    -0.470507
     11 N                    -0.572719
     12 C                     0.197296
     13 C                     0.249790
     14 S                     0.612007
     15 N                    -0.520005
     16 C                    -0.211617
     17 S                     0.317903
     18 C                    -0.088745
     19 C                    -0.243867
     20 S                     0.266704
     21 C                     0.149767
     22 C                     0.031970
     23 C                    -0.303898
     24 C                    -0.032596
     25 N                    -0.416363
     26 S                     0.274799
     27 C                     0.110576
     28 C                    -0.306542
     29 C                    -0.230398
     30 H                     0.102399
     31 H                     0.098801
     32 H                     0.102564
     33 H                     0.119183
     34 H                     0.124503
     35 H                     0.123133
     36 H                     0.115693
     37 H                     0.145051
     38 H                     0.104546
     39 C                    -0.173947
     40 H                     0.116342
     41 H                     0.100554
     42 H                     0.112400
     43 C                    -0.195560
     44 H                     0.086210
     45 C                    -0.178875
     46 H                     0.091521
     47 H                     0.092237
     48 H                     0.083939
     49 C                    -0.172371
     50 H                     0.094816
     51 C                    -0.318847
     52 H                     0.096528
     53 H                     0.101161
     54 H                     0.109934
     55 H                     0.107448
     56 C                     0.291560
     57 C                    -0.122446
     58 N                    -0.482700
     59 C                    -0.052608
     60 C                     0.079999
     61 C                     0.030216
     62 C                    -0.031881
     63 C                     0.088633
     64 C                     0.246063
     65 N                    -0.526748
     66 N                    -0.570693
     67 C                     0.213092
     68 C                     0.306717
     69 S                     0.641925
     70 N                    -0.580302
     71 C                    -0.234126
     72 S                     0.323247
     73 C                    -0.109684
     74 C                    -0.250331
     75 S                     0.286952
     76 C                     0.168057
     77 C                     0.095826
     78 C                    -0.313992
     79 C                    -0.057516
     80 N                    -0.447041
     81 S                     0.285760
     82 C                     0.106319
     83 C                    -0.322564
     84 C                    -0.248659
     85 H                     0.099476
     86 H                     0.108151
     87 H                     0.100706
     88 H                     0.106745
     89 H                     0.120328
     90 H                     0.123446
     91 H                     0.107606
     92 H                     0.136459
     93 H                     0.094522
     94 C                    -0.178184
     95 H                     0.111580
     96 H                     0.116376
     97 H                     0.091317
     98 C                    -0.168300
     99 H                     0.102090
    100 C                    -0.171896
    101 H                     0.091196
    102 H                     0.087900
    103 H                     0.089983
    104 C                    -0.181106
    105 H                     0.086640
    106 C                    -0.312108
    107 H                     0.089064
    108 H                     0.097740
    109 H                     0.104707
    110 H                     0.095856
  ----------------------------------------
  Sum of atomic charges =     0.000000

                    Cartesian Multipole Moments
 -----------------------------------------------------------------
    Charge (ESU x 10^10)
                 0.0000
    Dipole Moment (Debye)
         X       2.2778      Y      -2.1121      Z       1.2493
       Tot       3.3482
    Quadrupole Moments (Debye-Ang)
        XX    -428.2124     XY      39.3786     YY    -432.9535
        XZ     -13.3995     YZ      11.8800     ZZ    -439.3950

 Total job time:  95.65s(wall), 1139.97s(cpu)
        *  Thank you very much for using Q-Chem.  Have a nice day.  *
