 Q-Chem 4.4, Q-Chem, Inc., Pleasanton, CA (2016)
 Q-Chem 4.4.2 for Intel X86 Linux

User input:
--------------------------------------------------------------
$comment
SP
$end

$rem
MEM_STATIC 5000
MEM_TOTAL 20000
JOBTYPE SP
EXCHANGE B3LYP
BASIS 6-31g(d,p)
$end

$molecule
0 1
C          -3.002000    -13.483000    -13.705000
C          -2.301000    -12.609000    -14.527000
N          -2.973000    -13.382000    -12.377000
C          -1.430000    -11.731000    -13.860000
C          -2.202000    -12.487000    -11.787000
C          -1.337000    -11.685000    -12.460000
C          -0.511000    -10.679000    -11.692000
C          -1.122000     -9.776000    -10.714000
C           0.845000    -10.426000    -11.887000
N          -0.458000     -8.948000     -9.903000
N           1.625000    -11.053000    -12.786000
C           1.570000     -9.617000    -11.006000
C           0.890000     -8.905000     -9.990000
S           3.107000    -10.161000    -12.758000
N           2.938000     -9.557000    -11.263000
C           1.494000     -8.186000     -8.833000
S           0.682000     -6.828000     -7.995000
C           2.590000     -8.554000     -8.148000
C           1.866000     -6.899000     -6.669000
S           3.706000     -9.936000     -8.372000
C           2.811000     -7.859000     -6.930000
C           1.675000     -6.273000     -5.347000
C           4.504000     -9.389000     -6.865000
C           3.915000     -8.410000     -6.188000
N           2.680000     -5.790000     -4.629000
S           0.081000     -6.084000     -4.604000
C           2.218000     -5.302000     -3.416000
C           0.850000     -5.373000     -3.179000
C          -3.915000    -14.527000    -14.380000
H          -2.104000    -12.807000    -15.576000
H          -0.822000    -11.034000    -14.429000
H          -2.105000    -12.511000    -10.703000
H          -2.205000     -9.700000    -10.621000
H           5.368000     -9.908000     -6.472000
H           4.138000     -8.072000     -5.182000
H           2.959000     -4.893000     -2.742000
H           0.296000     -5.225000     -2.262000
H          -3.356000    -15.127000    -15.109000
C          -5.114000    -13.844000    -15.054000
H          -4.224000    -15.203000    -13.573000
H          -4.785000    -13.176000    -15.859000
H          -5.626000    -13.270000    -14.271000
C          -6.179000    -14.875000    -15.519000
H          -5.766000    -15.862000    -15.762000
C          -7.116000    -14.323000    -16.631000
H          -6.739000    -15.287000    -14.670000
H          -7.516000    -13.408000    -16.177000
H          -8.035000    -14.918000    -16.714000
C          -6.445000    -14.171000    -18.001000
H          -5.883000    -13.240000    -17.856000
C          -7.443000    -13.993000    -19.148000
H          -5.642000    -14.905000    -18.142000
H          -6.884000    -14.113000    -20.084000
H          -7.825000    -12.965000    -19.148000
H          -8.232000    -14.755000    -19.138000
C           1.502000     -9.959000     -3.888000
C           0.224000     -9.587000     -3.600000
N           1.811000    -10.520000     -5.092000
C          -0.770000     -9.594000     -4.598000
C           0.865000    -10.530000     -6.019000
C          -0.442000    -10.078000     -5.836000
C          -1.577000    -10.314000     -6.824000
C          -1.681000    -11.641000     -7.418000
C          -2.530000     -9.324000     -7.138000
N          -2.743000    -11.931000     -8.179000
N          -2.511000     -8.096000     -6.688000
C          -3.503000     -9.660000     -8.087000
C          -3.631000    -10.947000     -8.574000
S          -3.772000     -7.350000     -7.449000
N          -4.254000     -8.572000     -8.379000
C          -4.669000    -11.249000     -9.515000
S          -5.737000    -10.179000    -10.546000
C          -4.972000    -12.614000     -9.826000
C          -6.458000    -11.615000    -11.339000
S          -4.417000    -14.134000     -9.234000
C          -5.961000    -12.811000    -10.785000
C          -7.670000    -11.533000    -12.244000
C          -5.475000    -15.064000    -10.277000
C          -6.213000    -14.195000    -10.991000
N          -7.938000    -12.563000    -12.999000
S          -8.572000    -10.018000    -12.610000
C          -8.956000    -12.273000    -13.827000
C          -9.411000    -10.947000    -13.830000
C           2.513000    -10.045000     -2.833000
H          -0.088000     -9.279000     -2.606000
H          -1.789000     -9.317000     -4.343000
H           1.215000    -11.006000     -6.934000
H          -1.085000    -12.528000     -7.208000
H          -5.319000    -16.132000    -10.352000
H          -6.995000    -14.556000    -11.651000
H          -9.425000    -13.048000    -14.419000
H         -10.198000    -10.483000    -14.410000
H           3.460000    -10.432000     -3.231000
C           2.097000    -10.825000     -1.572000
H           2.677000     -9.017000     -2.487000
H           1.908000    -11.851000     -1.910000
H           1.188000    -10.476000     -1.067000
C           3.281000    -10.720000     -0.457000
H           4.306000    -10.931000     -0.785000
C           2.855000    -11.278000      0.913000
H           3.283000     -9.648000     -0.224000
H           2.522000    -12.294000      0.665000
H           1.956000    -10.788000      1.307000
C           3.997000    -11.319000      1.918000
H           4.845000    -11.937000      1.597000
C           3.464000    -12.238000      3.062000
H           4.285000    -10.282000      2.133000
H           3.278000    -13.236000      2.646000
H           2.574000    -11.842000      3.564000
H           4.269000    -12.519000      3.752000
$end

--------------------------------------------------------------

             Standard Nuclear Orientation (Angstroms)
    I     Atom           X                Y                Z
 ----------------------------------------------------------------
    1      C       5.3019751648     1.5561222035     1.8752523867
    2      C       5.2763492647     2.7342295585     1.1387964320
    3      N       4.2484522571     0.7440386289     1.9476108765
    4      C       4.0176030275     3.0904640129     0.6258939815
    5      C       3.1027863826     1.0761903204     1.3813150547
    6      C       2.8863375996     2.2730844392     0.7772021574
    7      C       1.5429540277     2.5487456132     0.1420112444
    8      C       0.9177613785     1.5886963496    -0.7704872832
    9      C       0.8208405482     3.7346677445     0.2556370393
   10      N      -0.3144880437     1.6893341750    -1.2760902792
   11      N       1.2116325965     4.8108788995     0.9618814196
   12      C      -0.4955618466     3.8340742796    -0.2063911804
   13      C      -1.0573269701     2.7707250890    -0.9515813876
   14      S       0.0732719874     6.0394479189     0.5288395182
   15      N      -1.1256315197     5.0415645174     0.0869559389
   16      C      -2.4876257447     2.5896666198    -1.3282632775
   17      S      -3.0101967080     1.6308901735    -2.7472133522
   18      C      -3.5572470735     2.9295976973    -0.5891948941
   19      C      -4.6990287942     1.6696989757    -2.1890798005
   20      S      -3.6746019628     3.7228143617     1.0116146365
   21      C      -4.8008805850     2.4164611411    -1.0424680610
   22      C      -5.7593877465     0.7687597226    -2.6789658633
   23      C      -5.4392503329     3.4408102242     0.8952024530
   24      C      -5.8692154449     2.7003321920    -0.1199395500
   25      N      -7.0296682693     1.1383082567    -2.7720210850
   26      S      -5.4320705202    -0.8851407050    -3.2138329579
   27      C      -7.8096971851     0.0825884177    -3.2191983563
   28      C      -7.1614642444    -1.1136727199    -3.5044830307
   29      C       6.6363938875     1.1499061871     2.5336179542
   30      H       6.0103285138     3.5254595874     1.2556018393
   31      H       3.9024492380     4.0117585015     0.0626976836
   32      H       2.2281524187     0.4538371230     1.5622374879
   33      H       1.4672105852     0.7206653978    -1.1337252711
   34      H      -6.1090451350     3.7705230659     1.6781266927
   35      H      -6.8566949813     2.2739687367    -0.2581689581
   36      H      -8.8704344306     0.2701256058    -3.3207084496
   37      H      -7.5704886224    -2.0976921431    -3.6891823346
   38      H       7.0214491782     1.9541389801     3.1730427252
   39      C       7.6736652641     0.7692754535     1.4670560310
   40      H       6.3881692697     0.3057461487     3.1889685236
   41      H       7.9106964697     1.6261646367     0.8251470536
   42      H       7.2267835426    -0.0375437245     0.8720362491
   43      C       8.9349111525     0.1157656109     2.0960192212
   44      H       9.1413441545     0.4447721045     3.1221416032
   45      C      10.1853554321     0.1946966086     1.1744032484
   46      H       8.7320720096    -0.9080222937     2.4349286612
   47      H       9.8303042988    -0.2693571108     0.2459993286
   48      H      10.9524246790    -0.5311061774     1.4748863366
   49      C      10.7885325972     1.5987052067     1.0511873231
   50      H      10.0949416094     2.0620289055     0.3385214183
   51      C      12.2024773392     1.6013088311     0.4646291526
   52      H      10.6185635371     2.1931423777     1.9573887181
   53      H      12.6154340179     2.6051794535     0.6217518920
   54      H      12.1513095074     1.4567205397    -0.6212732735
   55      H      12.8669991144     0.8909947486     0.9717087464
   56      C      -5.7720826882    -0.8117617942     0.9606765056
   57      C      -5.3352632179    -1.9102837450     0.2846215714
   58      N      -4.8887123770     0.1122086392     1.4358117827
   59      C      -3.9870372281    -2.0258086624    -0.1065685025
   60      C      -3.6220228364    -0.0127735013     1.0694484763
   61      C      -3.1098266281    -1.0549322222     0.2964011007
   62      C      -1.6240632357    -1.3156800060     0.0852548602
   63      C      -0.7534388609    -1.2013630025     1.2486661464
   64      C      -1.0886265202    -1.6970207795    -1.1616580229
   65      N       0.5312049615    -1.5594580629     1.1367591433
   66      N      -1.7728592279    -1.7975733326    -2.2718651144
   67      C       0.2986337249    -1.8741695841    -1.2276376674
   68      C       1.0913624347    -1.8407324515    -0.0960966161
   69      S      -0.6497865340    -2.1606906135    -3.4262530754
   70      N       0.6714487580    -2.1029800826    -2.5089119186
   71      C       2.5018261611    -2.0673885629    -0.2116305240
   72      S       3.6285659330    -2.0665345972    -1.6534841077
   73      C       3.2853547981    -2.2897114440     0.9666777598
   74      C       5.0447563561    -2.3071948797    -0.5823756567
   75      S       2.9169646849    -2.4614735960     2.6410957146
   76      C       4.6522069594    -2.4530523883     0.7626044764
   77      C       6.4272692498    -2.6345387900    -1.1079201963
   78      C       4.5860625247    -2.7263249839     3.1059388533
   79      C       5.3309013862    -2.7065266398     1.9859280962
   80      N       7.4371803844    -2.4997388108    -0.2926549229
   81      S       6.8305254058    -2.8703387908    -2.8470486654
   82      C       8.5903559222    -2.7002823104    -0.9529400764
   83      C       8.5043141362    -2.8563207717    -2.3434647291
   84      C      -7.1486077658    -0.7328461867     1.4520959168
   85      H      -5.9890778169    -2.7379324563     0.0242985400
   86      H      -3.6527329410    -2.9206600205    -0.6238659899
   87      H      -3.0054284938     0.7695659930     1.5099678655
   88      H      -1.0264431050    -1.0092040320     2.2853090997
   89      H       4.8386873291    -2.7104244779     4.1578480139
   90      H       6.3923123707    -2.9272804911     2.0319656795
   91      H       9.5265557266    -2.7858328026    -0.4169726899
   92      H       9.2854898030    -3.0160684629    -3.0751137247
   93      H      -7.3020045871     0.1834204680     2.0368239157
   94      C      -7.6504973203    -1.9625373220     2.2315467407
   95      H      -7.7856650820    -0.6853714380     0.5602999065
   96      H      -7.0052705281    -2.0337537197     3.1154311287
   97      H      -7.5906428791    -2.9237363556     1.7065506801
   98      C      -9.2264369607    -1.7642379700     2.5965092277
   99      H      -9.5266100145    -0.8089506749     3.0437813166
  100      C      -9.8650861923    -3.0399300940     3.1748488889
  101      H      -9.6936625083    -1.7609636825     1.6039536541
  102      H      -9.2057680893    -3.2761641381     4.0199181851
  103      H      -9.7648088123    -3.9028610023     2.5048998649
  104      C     -11.2932355091    -2.8236543136     3.6538941014
  105      H     -11.3843122992    -2.0639115251     4.4403830802
  106      C     -11.5995391163    -4.0866534228     4.5189937202
  107      H     -11.9065201331    -2.5974361464     2.7722789297
  108      H     -10.9043631412    -4.1018476351     5.3676134817
  109      H     -11.5613138428    -5.0249605522     3.9541587360
  110      H     -12.5242831779    -3.9578412328     5.0946167220
 ----------------------------------------------------------------

   10   -5663.4770119580      8.16E-06 Convergence criterion met
 Total energy in the final basis set = -5663.4770119580

                    Orbital Energies (a.u.)
 --------------------------------------------------------------

 Alpha MOs
 -- Occupied --
-88.987 -88.986 -88.932 -88.930 -88.917 -88.915 -88.902 -88.897
-14.390 -14.380 -14.377 -14.373 -14.350 -14.349 -14.344 -14.338
-14.319 -14.317 -10.278 -10.267 -10.263 -10.257 -10.253 -10.252
-10.251 -10.245 -10.244 -10.244 -10.241 -10.240 -10.236 -10.234
-10.234 -10.232 -10.227 -10.227 -10.226 -10.225 -10.223 -10.222
-10.221 -10.215 -10.214 -10.213 -10.212 -10.209 -10.207 -10.203
-10.202 -10.202 -10.202 -10.198 -10.190 -10.188 -10.188 -10.186
-10.186 -10.182 -10.180 -10.177 -10.177 -10.176 -10.175 -10.175
-10.175 -10.173 -10.173 -10.171  -8.042  -8.041  -7.991  -7.989
 -7.977  -7.974  -7.961  -7.957  -6.007  -6.006  -6.002  -6.001
 -5.999  -5.999  -5.955  -5.954  -5.951  -5.950  -5.948  -5.946
 -5.941  -5.939  -5.937  -5.935  -5.934  -5.930  -5.926  -5.923
 -5.922  -5.917  -5.917  -5.914  -1.039  -1.022  -0.980  -0.958
 -0.955  -0.947  -0.941  -0.936  -0.907  -0.903  -0.902  -0.892
 -0.840  -0.833  -0.824  -0.821  -0.809  -0.809  -0.805  -0.805
 -0.800  -0.792  -0.790  -0.788  -0.787  -0.782  -0.761  -0.758
 -0.743  -0.743  -0.734  -0.731  -0.726  -0.716  -0.708  -0.707
 -0.691  -0.688  -0.671  -0.671  -0.648  -0.648  -0.641  -0.639
 -0.630  -0.628  -0.623  -0.620  -0.608  -0.605  -0.596  -0.594
 -0.592  -0.585  -0.580  -0.579  -0.575  -0.574  -0.568  -0.564
 -0.545  -0.545  -0.538  -0.533  -0.516  -0.515  -0.510  -0.504
 -0.501  -0.499  -0.497  -0.495  -0.488  -0.484  -0.477  -0.474
 -0.471  -0.467  -0.464  -0.460  -0.457  -0.453  -0.453  -0.449
 -0.448  -0.442  -0.440  -0.434  -0.433  -0.429  -0.427  -0.423
 -0.422  -0.420  -0.419  -0.417  -0.416  -0.413  -0.410  -0.409
 -0.407  -0.407  -0.403  -0.401  -0.401  -0.398  -0.397  -0.391
 -0.390  -0.389  -0.386  -0.384  -0.382  -0.380  -0.376  -0.373
 -0.371  -0.369  -0.367  -0.362  -0.361  -0.360  -0.355  -0.353
 -0.352  -0.350  -0.346  -0.343  -0.342  -0.341  -0.337  -0.336
 -0.334  -0.333  -0.331  -0.331  -0.329  -0.326  -0.322  -0.311
 -0.308  -0.306  -0.305  -0.304  -0.301  -0.295  -0.294  -0.292
 -0.291  -0.290  -0.289  -0.287  -0.284  -0.278  -0.276  -0.276
 -0.274  -0.263  -0.261  -0.257  -0.251  -0.247  -0.244  -0.242
 -0.238  -0.236  -0.231  -0.227  -0.193  -0.188

          Ground-State Mulliken Net Atomic Charges

     Atom                 Charge (a.u.)
  ----------------------------------------
      1 C                     0.260824
      2 C                    -0.111258
      3 N                    -0.486465
      4 C                    -0.068988
      5 C                     0.075455
      6 C                     0.061047
      7 C                    -0.021436
      8 C                     0.065028
      9 C                     0.266392
     10 N                    -0.490481
     11 N                    -0.569079
     12 C                     0.179589
     13 C                     0.258823
     14 S                     0.594428
     15 N                    -0.518772
     16 C                    -0.219742
     17 S                     0.299716
     18 C                    -0.096173
     19 C                    -0.235475
     20 S                     0.250624
     21 C                     0.155488
     22 C                     0.025426
     23 C                    -0.292377
     24 C                    -0.010446
     25 N                    -0.411339
     26 S                     0.277104
     27 C                     0.108328
     28 C                    -0.315462
     29 C                    -0.229427
     30 H                     0.097415
     31 H                     0.095492
     32 H                     0.121468
     33 H                     0.121209
     34 H                     0.118992
     35 H                     0.120907
     36 H                     0.109159
     37 H                     0.135330
     38 H                     0.098257
     39 C                    -0.185167
     40 H                     0.111280
     41 H                     0.095018
     42 H                     0.133695
     43 C                    -0.189552
     44 H                     0.080140
     45 C                    -0.186107
     46 H                     0.091070
     47 H                     0.094812
     48 H                     0.075981
     49 C                    -0.172269
     50 H                     0.096841
     51 C                    -0.318882
     52 H                     0.096798
     53 H                     0.100506
     54 H                     0.107761
     55 H                     0.105068
     56 C                     0.268428
     57 C                    -0.104899
     58 N                    -0.480168
     59 C                    -0.054197
     60 C                     0.066990
     61 C                     0.052266
     62 C                    -0.031945
     63 C                     0.071931
     64 C                     0.302736
     65 N                    -0.521731
     66 N                    -0.582317
     67 C                     0.221247
     68 C                     0.294620
     69 S                     0.601385
     70 N                    -0.570691
     71 C                    -0.221029
     72 S                     0.323979
     73 C                    -0.118735
     74 C                    -0.243105
     75 S                     0.279813
     76 C                     0.177750
     77 C                     0.047188
     78 C                    -0.301611
     79 C                    -0.050847
     80 N                    -0.399680
     81 S                     0.268213
     82 C                     0.126007
     83 C                    -0.316506
     84 C                    -0.231168
     85 H                     0.079889
     86 H                     0.101898
     87 H                     0.102507
     88 H                     0.130364
     89 H                     0.141459
     90 H                     0.114357
     91 H                     0.116987
     92 H                     0.140819
     93 H                     0.114272
     94 C                    -0.187588
     95 H                     0.107480
     96 H                     0.103850
     97 H                     0.093224
     98 C                    -0.187779
     99 H                     0.096190
    100 C                    -0.171217
    101 H                     0.089311
    102 H                     0.091280
    103 H                     0.090158
    104 C                    -0.173261
    105 H                     0.099452
    106 C                    -0.321686
    107 H                     0.096276
    108 H                     0.106843
    109 H                     0.102920
    110 H                     0.091500
  ----------------------------------------
  Sum of atomic charges =     0.000000

                    Cartesian Multipole Moments
 -----------------------------------------------------------------
    Charge (ESU x 10^10)
                 0.0000
    Dipole Moment (Debye)
         X       1.7710      Y      -2.1954      Z      -1.1791
       Tot       3.0572
    Quadrupole Moments (Debye-Ang)
        XX    -392.9695     XY      16.3065     YY    -432.8951
        XZ     -10.7128     YZ      11.5902     ZZ    -438.3584

 Total job time:  114.40s(wall), 1366.96s(cpu)
        *  Thank you very much for using Q-Chem.  Have a nice day.  *
