 Q-Chem 4.4, Q-Chem, Inc., Pleasanton, CA (2016)
 Q-Chem 4.4.2 for Intel X86 Linux

User input:
--------------------------------------------------------------
$comment
SP
$end

$rem
MEM_STATIC 5000
MEM_TOTAL 20000
JOBTYPE SP
EXCHANGE B3LYP
BASIS 6-31g(d,p)
$end

$molecule
0 1
C          19.851000     11.572000     -6.268000
C          20.926000     12.165000     -6.987000
N          19.176000     10.550000     -6.769000
C          21.355000     11.623000     -8.213000
C          19.456000     10.109000     -7.972000
C          20.576000     10.649000     -8.813000
C          21.008000      9.947000    -10.125000
C          22.352000      9.962000    -10.547000
C          20.051000      9.308000    -11.046000
N          22.777000      9.304000    -11.699000
N          18.733000      9.222000    -10.818000
C          20.495000      8.713000    -12.230000
C          21.891000      8.625000    -12.502000
S          18.142000      8.606000    -12.216000
N          19.524000      8.255000    -13.009000
C          22.498000      7.730000    -13.507000
S          21.599000      6.958000    -14.830000
C          23.867000      7.636000    -13.794000
C          23.014000      6.350000    -15.555000
S          25.323000      8.349000    -13.058000
C          24.134000      6.857000    -14.935000
C          22.929000      5.640000    -16.787000
C          26.294000      7.532000    -14.346000
C          25.529000      6.790000    -15.261000
N          24.035000      5.488000    -17.505000
S          21.565000      4.646000    -17.139000
C          23.728000      4.649000    -18.512000
C          22.466000      4.129000    -18.507000
C          19.560000     11.859000     -4.734000
H          21.609000     12.897000     -6.566000
H          22.345000     11.980000     -8.483000
H          18.917000      9.210000     -8.265000
H          23.100000     10.446000     -9.921000
H          27.369000      7.628000    -14.265000
H          25.858000      6.132000    -16.057000
H          24.509000      4.456000    -19.236000
H          22.109000      3.304000    -19.109000
H          20.086000     12.725000     -4.314000
C          20.098000     10.693000     -3.842000
H          18.482000     12.007000     -4.596000
H          19.617000      9.744000     -4.110000
H          19.852000     10.968000     -2.809000
C          21.658000     10.477000     -3.977000
H          21.766000      9.592000     -3.336000
C          22.437000     11.640000     -3.581000
H          21.946000     10.181000     -4.993000
H          22.177000     11.948000     -2.561000
H          22.197000     12.550000     -4.145000
C          23.946000     11.375000     -3.630000
H          24.535000     12.244000     -3.311000
C          24.481000     10.792000     -4.971000
H          24.243000     10.605000     -2.907000
H          24.137000     11.392000     -5.823000
H          24.156000      9.749000     -5.069000
H          25.572000     10.908000     -4.999000
C          12.618000     -0.339000     -9.235000
C          11.723000      0.615000     -8.696000
N          13.685000      0.041000     -9.949000
C          11.879000      1.964000     -9.081000
C          13.856000      1.363000    -10.297000
C          12.990000      2.398000     -9.834000
C          13.153000      3.804000    -10.121000
C          12.109000      4.659000    -10.518000
C          14.421000      4.459000    -10.287000
N          12.192000      6.019000    -10.602000
N          15.594000      3.806000    -10.185000
C          14.494000      5.830000    -10.461000
C          13.361000      6.634000    -10.550000
S          16.711000      4.929000    -10.384000
N          15.776000      6.229000    -10.617000
C          13.496000      8.123000    -10.458000
S          14.891000      9.160000    -10.509000
C          12.404000      8.997000    -10.393000
C          13.993000     10.721000    -10.355000
S          10.715000      8.627000    -10.325000
C          12.675000     10.355000    -10.299000
C          14.483000     11.997000     -9.984000
C          10.285000     10.313000    -10.143000
C          11.427000     11.138000    -10.187000
N          13.723000     13.059000    -10.130000
S          16.148000     12.214000     -9.704000
C          14.458000     14.234000    -10.230000
C          15.787000     13.936000    -10.055000
C          12.465000     -1.827000     -8.808000
H          10.853000      0.327000     -8.113000
H          11.152000      2.705000     -8.760000
H          14.733000      1.583000    -10.903000
H          11.115000      4.222000    -10.605000
H           9.262000     10.648000    -10.036000
H          11.396000     12.221000    -10.158000
H          13.952000     15.165000    -10.449000
H          16.645000     14.584000    -10.177000
H          11.383000     -2.010000     -8.788000
C          13.092000     -2.179000     -7.427000
H          12.764000     -2.491000     -9.629000
H          12.771000     -1.602000     -6.551000
H          14.168000     -1.969000     -7.441000
C          12.987000     -3.705000     -7.192000
H          12.010000     -3.970000     -6.769000
C          14.185000     -4.177000     -6.325000
H          13.036000     -4.314000     -8.103000
H          14.034000     -3.669000     -5.364000
H          15.157000     -3.798000     -6.664000
C          14.324000     -5.696000     -6.272000
H          13.427000     -6.100000     -5.787000
C          15.694000     -6.188000     -5.796000
H          14.159000     -6.113000     -7.273000
H          15.593000     -7.264000     -5.611000
H          16.047000     -5.683000     -4.888000
H          16.499000     -6.005000     -6.518000
$end

--------------------------------------------------------------

             Standard Nuclear Orientation (Angstroms)
    I     Atom           X                Y                Z
 ----------------------------------------------------------------
    1      C      -3.8591547082    -4.2115774517     3.2238807785
    2      C      -5.1500571624    -3.6537135499     3.0080249911
    3      N      -2.7735048364    -3.6262759552     2.7444055300
    4      C      -5.2971364546    -2.4172063369     2.3520535024
    5      C      -2.8846484256    -2.5476901672     2.0065777721
    6      C      -4.1924298843    -1.8661771447     1.7263481222
    7      C      -4.2456674259    -0.4765133784     1.0431407006
    8      C      -5.2598452385     0.4487405433     1.3593582597
    9      C      -3.3143715614    -0.0711041494    -0.0249147145
   10      N      -5.3088082009     1.7206553284     0.7932059764
   11      N      -2.3050354851    -0.8326349988    -0.4696792034
   12      C      -3.4266351019     1.1861391495    -0.6247089999
   13      C      -4.3758987101     2.1274938317    -0.1314606199
   14      S      -1.7317973422     0.0043800759    -1.7557370544
   15      N      -2.5857357029     1.3889477080    -1.6302948438
   16      C      -4.3558939580     3.5746095075    -0.4229310832
   17      S      -3.4473693190     4.3121115998    -1.7590402270
   18      C      -5.2852360973     4.5136092713     0.0460770527
   19      C      -4.1308812665     5.8481993730    -1.4930331399
   20      S      -6.6464290723     4.4214536209     1.1900447187
   21      C      -5.1386745419     5.7761828052    -0.5576106000
   22      C      -3.8080298288     6.9271144793    -2.3653049683
   23      C      -6.9849148528     6.1597452023     0.8252930849
   24      C      -6.1122096424     6.7317640395    -0.1150228543
   25      N      -4.5976177716     7.9940766446    -2.3678775661
   26      S      -2.2402502303     7.0501947026    -3.0719550862
   27      C      -3.9890952460     8.9215057706    -3.1306321478
   28      C      -2.7561609576     8.5952869867    -3.6169688063
   29      C      -3.5697371294    -5.3696963940     4.2704007165
   30      H      -6.0530023343    -4.0003308919     3.5020902040
   31      H      -6.2790443836    -1.9863719388     2.5272320979
   32      H      -1.9393069618    -2.0822405000     1.7340761684
   33      H      -5.9947076198     0.1919106002     2.1207068400
   34      H      -7.7757034493     6.6220726217     1.4017553585
   35      H      -6.0277355370     7.7639420937    -0.4348565456
   36      H      -4.5277054997     9.8468115982    -3.2890433850
   37      H      -2.0463482860     9.2720480437    -4.0737383794
   38      H      -4.4589374305    -5.8875789447     4.6500749033
   39      C      -2.9528069131    -4.7864494726     5.5833683996
   40      H      -2.9064928346    -6.1113775564     3.8088294231
   41      H      -2.0075274986    -4.2704727979     5.3736044852
   42      H      -2.7808367941    -5.6469215499     6.2415811937
   43      C      -3.8990629569    -3.7462750482     6.3052532008
   44      H      -3.2312190361    -3.4434019285     7.1225795560
   45      C      -5.1749618257    -4.3141647343     6.7124501815
   46      H      -4.0819509221    -2.8586964955     5.6875378093
   47      H      -5.0189745007    -5.1969935779     7.3442295632
   48      H      -5.7550262135    -4.7443063681     5.8864359680
   49      C      -6.0355095325    -3.3141800315     7.4929597833
   50      H      -6.9892503562    -3.7471077940     7.8197548163
   51      C      -6.2484799744    -1.9334030948     6.8055780539
   52      H      -5.5626653686    -3.0309453603     8.4416612736
   53      H      -6.5942544247    -2.0604990917     5.7718824328
   54      H      -5.3122840655    -1.3628633599     6.8387387417
   55      H      -7.0849444681    -1.4180015447     7.2946684267
   56      C       8.9022393546     1.4211076744     0.3237120176
   57      C       8.9504922764     0.0298405189     0.0713048910
   58      N       7.7671485571     2.1131003347     0.1643381196
   59      C       7.8243388215    -0.5763810889    -0.5258849935
   60      C       6.6566309245     1.5130551993    -0.3876812850
   61      C       6.6137504438     0.1238430956    -0.7098629034
   62      C       5.4613850544    -0.5684210919    -1.2376870257
   63      C       5.5041011914    -1.4762431411    -2.3112812035
   64      C       4.0991504084    -0.2429580349    -0.9170695466
   65      N       4.4774417794    -2.2881233547    -2.6990517163
   66      N       3.7702239169     0.7559567693    -0.0764039906
   67      C       3.0545957512    -1.0196480829    -1.3870739480
   68      C       3.2526061585    -2.1042638307    -2.2370307458
   69      S       2.1773296401     0.7091892728     0.0180397727
   70      N       1.8641539369    -0.5225998417    -0.9835242823
   71      C       2.1330979756    -3.0674366004    -2.4876492691
   72      S       0.4374941947    -2.9887012925    -2.1098615385
   73      C       2.2830244808    -4.2584294347    -3.2084981517
   74      C      -0.0108033670    -4.5790920134    -2.8423420167
   75      S       3.7161745743    -4.9433514855    -3.8949437750
   76      C       1.1622898857    -5.0639666969    -3.3551429153
   77      C      -1.1720590148    -5.3614589168    -2.6294938337
   78      C       2.8638833145    -6.3837003126    -4.4044679302
   79      C       1.4921505878    -6.3022095989    -4.0907266514
   80      N      -1.4221243353    -6.3892463742    -3.4091606073
   81      S      -2.4154804762    -4.7726336314    -1.6270459036
   82      C      -2.7701859647    -6.7251291847    -3.4367754775
   83      C      -3.4414374006    -5.9174304731    -2.5520640550
   84      C      10.1317632347     2.0986511300     0.9938522224
   85      H       9.8608521928    -0.5492874069     0.1961594795
   86      H       7.8651869235    -1.6220334246    -0.8184488758
   87      H       5.7847867282     2.1531130224    -0.5100687042
   88      H       6.4772096855    -1.6667647238    -2.7622084540
   89      H       3.3523198594    -7.2036267935    -4.9137353525
   90      H       0.7594986800    -7.0510009263    -4.3686182311
   91      H      -3.1167876615    -7.4930337691    -4.1157068533
   92      H      -4.5086441217    -5.8276497230    -2.3972698969
   93      H      11.0075100267     1.6366150468     0.5203512043
   94      C      10.2093709089     1.9305694029     2.5397886965
   95      H      10.2363257110     3.1321938834     0.6400244884
   96      H      10.1913591041     0.9137932069     2.9511130723
   97      H       9.3199509768     2.3683708437     3.0081198645
   98      C      11.3961708346     2.7605690075     3.0852541792
   99      H      12.3336215122     2.1945060981     3.0186057755
  100      C      11.0680974221     3.2468847755     4.5224534729
  101      H      11.6169284158     3.6731679432     2.5181278503
  102      H      10.9977423081     2.3206399729     5.1068392389
  103      H      10.0700580061     3.6902483167     4.6258560578
  104      C      12.0478067747     4.2979611886     5.0371368301
  105      H      13.0394977544     3.8333528959     5.0982771207
  106      C      11.5414563940     5.0960476130     6.2422124921
  107      H      12.2639465616     5.0179665923     4.2383935602
  108      H      12.4004706405     5.6567790661     6.6293516943
  109      H      11.1167768445     4.4666252447     7.0344073940
  110      H      10.7230609941     5.7840630906     5.9979551030
 ----------------------------------------------------------------

   10   -5663.5154713338      4.71E-06 Convergence criterion met
 Total energy in the final basis set = -5663.5154713338

                    Orbital Energies (a.u.)
 --------------------------------------------------------------

 Alpha MOs
 -- Occupied --
-88.989 -88.982 -88.932 -88.925 -88.922 -88.922 -88.911 -88.902
-14.385 -14.383 -14.382 -14.379 -14.352 -14.349 -14.344 -14.335
-14.329 -14.327 -10.266 -10.265 -10.264 -10.262 -10.256 -10.253
-10.252 -10.249 -10.245 -10.242 -10.242 -10.241 -10.238 -10.234
-10.233 -10.233 -10.232 -10.232 -10.232 -10.230 -10.230 -10.229
-10.228 -10.226 -10.226 -10.226 -10.225 -10.224 -10.220 -10.215
-10.212 -10.211 -10.205 -10.204 -10.201 -10.200 -10.198 -10.195
-10.190 -10.187 -10.185 -10.180 -10.178 -10.178 -10.176 -10.174
-10.174 -10.174 -10.173 -10.172  -8.045  -8.037  -7.994  -7.984
 -7.983  -7.982  -7.969  -7.962  -6.010  -6.004  -6.003  -6.002
 -5.997  -5.995  -5.958  -5.954  -5.951  -5.948  -5.947  -5.947
 -5.944  -5.944  -5.943  -5.941  -5.940  -5.939  -5.933  -5.930
 -5.927  -5.925  -5.923  -5.918  -1.048  -1.042  -0.983  -0.968
 -0.963  -0.947  -0.938  -0.929  -0.911  -0.911  -0.907  -0.905
 -0.840  -0.840  -0.838  -0.823  -0.820  -0.811  -0.809  -0.804
 -0.802  -0.800  -0.796  -0.795  -0.780  -0.776  -0.769  -0.764
 -0.750  -0.743  -0.736  -0.735  -0.721  -0.718  -0.708  -0.705
 -0.692  -0.692  -0.674  -0.668  -0.655  -0.653  -0.646  -0.640
 -0.636  -0.636  -0.627  -0.625  -0.614  -0.610  -0.597  -0.595
 -0.592  -0.591  -0.584  -0.583  -0.581  -0.579  -0.577  -0.554
 -0.553  -0.547  -0.543  -0.534  -0.523  -0.521  -0.515  -0.506
 -0.506  -0.506  -0.501  -0.496  -0.486  -0.482  -0.478  -0.472
 -0.472  -0.470  -0.466  -0.466  -0.462  -0.461  -0.450  -0.448
 -0.444  -0.441  -0.438  -0.436  -0.435  -0.434  -0.431  -0.431
 -0.428  -0.427  -0.424  -0.422  -0.420  -0.416  -0.411  -0.410
 -0.409  -0.408  -0.404  -0.403  -0.399  -0.398  -0.398  -0.397
 -0.392  -0.391  -0.389  -0.389  -0.388  -0.386  -0.383  -0.382
 -0.380  -0.379  -0.376  -0.375  -0.373  -0.365  -0.356  -0.354
 -0.351  -0.350  -0.348  -0.346  -0.346  -0.341  -0.340  -0.338
 -0.336  -0.334  -0.333  -0.331  -0.330  -0.326  -0.321  -0.319
 -0.318  -0.316  -0.310  -0.307  -0.305  -0.303  -0.302  -0.299
 -0.297  -0.293  -0.292  -0.290  -0.288  -0.287  -0.285  -0.275
 -0.272  -0.271  -0.266  -0.264  -0.252  -0.247  -0.246  -0.244
 -0.244  -0.243  -0.232  -0.229  -0.193  -0.193

          Ground-State Mulliken Net Atomic Charges

     Atom                 Charge (a.u.)
  ----------------------------------------
      1 C                     0.254457
      2 C                    -0.134042
      3 N                    -0.447030
      4 C                    -0.077436
      5 C                     0.091862
      6 C                     0.007413
      7 C                     0.036765
      8 C                     0.060150
      9 C                     0.219949
     10 N                    -0.548153
     11 N                    -0.552396
     12 C                     0.209602
     13 C                     0.316729
     14 S                     0.618314
     15 N                    -0.563778
     16 C                    -0.239401
     17 S                     0.322720
     18 C                    -0.104276
     19 C                    -0.234238
     20 S                     0.280689
     21 C                     0.143638
     22 C                     0.066509
     23 C                    -0.328526
     24 C                    -0.031897
     25 N                    -0.429371
     26 S                     0.293675
     27 C                     0.128672
     28 C                    -0.311058
     29 C                    -0.214348
     30 H                     0.089205
     31 H                     0.104125
     32 H                     0.122473
     33 H                     0.114294
     34 H                     0.129807
     35 H                     0.126582
     36 H                     0.109987
     37 H                     0.131654
     38 H                     0.093596
     39 C                    -0.189388
     40 H                     0.110940
     41 H                     0.109664
     42 H                     0.091409
     43 C                    -0.176108
     44 H                     0.092392
     45 C                    -0.160823
     46 H                     0.106546
     47 H                     0.086275
     48 H                     0.089287
     49 C                    -0.184356
     50 H                     0.085012
     51 C                    -0.320591
     52 H                     0.094604
     53 H                     0.092005
     54 H                     0.113718
     55 H                     0.100208
     56 C                     0.257051
     57 C                    -0.110037
     58 N                    -0.481130
     59 C                    -0.092779
     60 C                     0.082346
     61 C                     0.050955
     62 C                     0.038561
     63 C                     0.043229
     64 C                     0.194463
     65 N                    -0.523214
     66 N                    -0.542178
     67 C                     0.208351
     68 C                     0.344478
     69 S                     0.609154
     70 N                    -0.562932
     71 C                    -0.223463
     72 S                     0.328320
     73 C                    -0.130014
     74 C                    -0.249705
     75 S                     0.282516
     76 C                     0.150579
     77 C                     0.075252
     78 C                    -0.315308
     79 C                    -0.054273
     80 N                    -0.443398
     81 S                     0.283225
     82 C                     0.141413
     83 C                    -0.327379
     84 C                    -0.220812
     85 H                     0.091312
     86 H                     0.098830
     87 H                     0.123190
     88 H                     0.109861
     89 H                     0.131780
     90 H                     0.125815
     91 H                     0.127026
     92 H                     0.124605
     93 H                     0.095506
     94 C                    -0.177544
     95 H                     0.116198
     96 H                     0.099164
     97 H                     0.114799
     98 C                    -0.183231
     99 H                     0.093250
    100 C                    -0.175756
    101 H                     0.093994
    102 H                     0.090166
    103 H                     0.093338
    104 C                    -0.177025
    105 H                     0.091339
    106 C                    -0.323568
    107 H                     0.092151
    108 H                     0.102316
    109 H                     0.103841
    110 H                     0.107656
  ----------------------------------------
  Sum of atomic charges =     0.000000

                    Cartesian Multipole Moments
 -----------------------------------------------------------------
    Charge (ESU x 10^10)
                 0.0000
    Dipole Moment (Debye)
         X      -0.4122      Y       0.1143      Z       0.4163
       Tot       0.5969
    Quadrupole Moments (Debye-Ang)
        XX    -408.6851     XY       8.7504     YY    -411.9626
        XZ      -5.6680     YZ      -8.6267     ZZ    -438.9336

 Total job time:  88.66s(wall), 1037.04s(cpu)
        *  Thank you very much for using Q-Chem.  Have a nice day.  *
