 Q-Chem 4.4, Q-Chem, Inc., Pleasanton, CA (2016)
 Q-Chem 4.4.2 for Intel X86 Linux

User input:
--------------------------------------------------------------
$comment
SP
$end

$rem
MEM_STATIC 5000
MEM_TOTAL 20000
JOBTYPE SP
EXCHANGE B3LYP
BASIS 6-31g(d,p)
$end

$molecule
0 1
C          17.240000     15.391000    -12.756000
C          17.884000     14.135000    -12.850000
N          17.715000     16.429000    -12.030000
C          19.008000     13.934000    -12.074000
C          18.881000     16.244000    -11.319000
C          19.553000     14.980000    -11.280000
C          20.826000     14.796000    -10.505000
C          20.852000     15.243000     -9.161000
C          22.134000     14.446000    -11.051000
N          21.964000     15.245000     -8.419000
N          22.352000     13.903000    -12.315000
C          23.287000     14.474000    -10.259000
C          23.137000     14.781000     -8.864000
S          23.936000     13.537000    -12.423000
N          24.365000     13.990000    -10.930000
C          24.259000     14.556000     -7.859000
S          25.701000     13.655000     -8.098000
C          24.120000     14.941000     -6.534000
C          26.146000     13.758000     -6.358000
S          22.965000     16.006000     -5.632000
C          25.200000     14.502000     -5.678000
C          27.372000     13.270000     -5.754000
C          23.892000     15.834000     -4.141000
C          25.027000     15.002000     -4.303000
N          28.209000     12.613000     -6.602000
S          27.783000     13.139000     -4.073000
C          29.253000     12.056000     -5.979000
C          29.242000     12.341000     -4.630000
C          15.872000     15.580000    -13.434000
H          17.392000     13.354000    -13.422000
H          19.524000     12.979000    -12.119000
H          19.112000     17.093000    -10.678000
H          20.076000     15.810000     -8.650000
H          23.551000     16.341000     -3.248000
H          25.702000     14.755000     -3.491000
H          29.946000     11.402000     -6.493000
H          29.927000     11.889000     -3.924000
H          15.325000     14.631000    -13.378000
C          15.922000     16.132000    -14.863000
H          15.329000     16.336000    -12.854000
H          16.675000     15.537000    -15.393000
H          16.340000     17.147000    -14.853000
C          14.546000     16.078000    -15.583000
H          14.122000     15.067000    -15.619000
C          14.710000     16.489000    -17.080000
H          13.874000     16.690000    -14.968000
H          15.595000     17.109000    -17.271000
H          13.810000     17.064000    -17.328000
C          14.985000     15.229000    -17.938000
H          15.824000     14.710000    -17.458000
C          15.358000     15.610000    -19.379000
H          14.153000     14.516000    -17.989000
H          14.576000     16.239000    -19.822000
H          15.443000     14.668000    -19.935000
H          16.344000     16.087000    -19.329000
C          12.618000     -0.339000     -9.235000
C          11.723000      0.615000     -8.696000
N          13.685000      0.041000     -9.949000
C          11.879000      1.964000     -9.081000
C          13.856000      1.363000    -10.297000
C          12.990000      2.398000     -9.834000
C          13.153000      3.804000    -10.121000
C          12.109000      4.659000    -10.518000
C          14.421000      4.459000    -10.287000
N          12.192000      6.019000    -10.602000
N          15.594000      3.806000    -10.185000
C          14.494000      5.830000    -10.461000
C          13.361000      6.634000    -10.550000
S          16.711000      4.929000    -10.384000
N          15.776000      6.229000    -10.617000
C          13.496000      8.123000    -10.458000
S          14.891000      9.160000    -10.509000
C          12.404000      8.997000    -10.393000
C          13.993000     10.721000    -10.355000
S          10.715000      8.627000    -10.325000
C          12.675000     10.355000    -10.299000
C          14.483000     11.997000     -9.984000
C          10.285000     10.313000    -10.143000
C          11.427000     11.138000    -10.187000
N          13.723000     13.059000    -10.130000
S          16.148000     12.214000     -9.704000
C          14.458000     14.234000    -10.230000
C          15.787000     13.936000    -10.055000
C          12.465000     -1.827000     -8.808000
H          10.853000      0.327000     -8.113000
H          11.152000      2.705000     -8.760000
H          14.733000      1.583000    -10.903000
H          11.115000      4.222000    -10.605000
H           9.262000     10.648000    -10.036000
H          11.396000     12.221000    -10.158000
H          13.952000     15.165000    -10.449000
H          16.645000     14.584000    -10.177000
H          11.383000     -2.010000     -8.788000
C          13.092000     -2.179000     -7.427000
H          12.764000     -2.491000     -9.629000
H          12.771000     -1.602000     -6.551000
H          14.168000     -1.969000     -7.441000
C          12.987000     -3.705000     -7.192000
H          12.010000     -3.970000     -6.769000
C          14.185000     -4.177000     -6.325000
H          13.036000     -4.314000     -8.103000
H          14.034000     -3.669000     -5.364000
H          15.157000     -3.798000     -6.664000
C          14.324000     -5.696000     -6.272000
H          13.427000     -6.100000     -5.787000
C          15.694000     -6.188000     -5.796000
H          14.159000     -6.113000     -7.273000
H          15.593000     -7.264000     -5.611000
H          16.047000     -5.683000     -4.888000
H          16.499000     -6.005000     -6.518000
$end

--------------------------------------------------------------

             Standard Nuclear Orientation (Angstroms)
    I     Atom           X                Y                Z
 ----------------------------------------------------------------
    1      C      -3.9591641853     4.8750701714     0.2416005588
    2      C      -3.3344406902     3.9036601089     1.0584181915
    3      N      -5.0828149183     4.6463239665    -0.4761941221
    4      C      -3.8514374341     2.6237247552     1.0376129732
    5      C      -5.6370551144     3.3853798158    -0.4299377308
    6      C      -5.0239485731     2.3136663116     0.2955493704
    7      C      -5.6434637561     0.9464946953     0.3408562096
    8      C      -6.0311754626     0.3555803825    -0.8868737719
    9      C      -6.1373938778     0.2541359992     1.5275122132
   10      N      -6.7035830993    -0.7977653564    -0.9559648459
   11      N      -5.8190008484     0.5938162745     2.8402620712
   12      C      -6.8556267716    -0.9424516062     1.4286354583
   13      C      -7.0265053545    -1.5180467549     0.1239267802
   14      S      -6.4691303417    -0.5423679068     3.8103616271
   15      N      -7.1035603267    -1.4780608666     2.6526586086
   16      C      -7.5253450469    -2.9432784098    -0.0745869251
   17      S      -7.6601057970    -4.1711435378     1.1180877026
   18      C      -7.7646798326    -3.4467610286    -1.3443881351
   19      C      -8.0256774109    -5.4330432769    -0.1108144268
   20      S      -7.9393893588    -2.7147384806    -2.9922575385
   21      C      -8.0652322492    -4.8613039762    -1.3687498729
   22      C      -8.3714756656    -6.8171533254     0.1550782975
   23      C      -8.3693089263    -4.2747006470    -3.6948820507
   24      C      -8.3770749384    -5.3163301660    -2.7348608874
   25      N      -8.3350311081    -7.1772706994     1.4666839056
   26      S      -8.5283846152    -8.1362788203    -0.9616716790
   27      C      -8.5170745778    -8.4887777749     1.6540961949
   28      C      -8.7527567975    -9.1376353815     0.4605365200
   29      C      -3.2879621767     6.2488059068     0.0708170907
   30      H      -2.4084391320     4.1777579917     1.5550070203
   31      H      -3.3924039368     1.8525327296     1.6498687269
   32      H      -6.4626204266     3.2720747504    -1.1303996337
   33      H      -6.0284037756     0.8310676804    -1.8660010095
   34      H      -8.5817156212    -4.3340194207    -4.7541948841
   35      H      -8.5896667612    -6.3502729518    -2.9833463650
   36      H      -8.4004839052    -8.9513167385     2.6260145671
   37      H      -8.8057356946   -10.2153779794     0.3731916344
   38      H      -2.2006255600     6.1066423091     0.0916639950
   39      C      -3.7464476678     7.3270899684     1.0589160417
   40      H      -3.5765534308     6.6253723066    -0.9179689502
   41      H      -3.7128378066     6.8639994396     2.0520683661
   42      H      -4.8104573242     7.5457036295     0.9003584234
   43      C      -2.8750411000     8.6124348029     1.0020719571
   44      H      -1.8104014848     8.4149546848     1.1773919293
   45      C      -3.2876966886     9.5886114891     2.1482047777
   46      H      -2.9714665045     8.9814849672    -0.0269358746
   47      H      -4.3112856830     9.4321445444     2.5113709458
   48      H      -3.2097619237    10.5950938210     1.7203631154
   49      C      -2.4319754279     9.3033187174     3.4074657350
   50      H      -2.5207880173     8.2267703110     3.5993976303
   51      C      -2.9457957777    10.0971026171     4.6185259188
   52      H      -1.3629429092     9.5228908331     3.2972316200
   53      H      -2.9796340678    11.1686391500     4.3859782275
   54      H      -2.2349583153     9.9112505101     5.4333228851
   55      H      -3.9172933345     9.6639086375     4.8845343271
   56      C      11.3863260997    -1.8754568867     0.6151475431
   57      C      11.1492332004    -1.1513203761    -0.5769410741
   58      N      10.4520133359    -1.9580439619     1.5706181257
   59      C       9.9774404575    -0.3684391636    -0.6566955406
   60      C       9.2925692222    -1.2197775378     1.4774460582
   61      C       8.9739348718    -0.4301430310     0.3326755587
   62      C       7.7512402338     0.3182396247     0.1574179685
   63      C       7.6918681048     1.6416777692    -0.3153995736
   64      C       6.4708344733    -0.0829413469     0.6712466523
   65      N       6.5517773414     2.2996788902    -0.6770244842
   66      N       6.2941021737    -1.2174637834     1.3743586886
   67      C       5.3287840480     0.6398829714     0.3737708869
   68      C       5.3603443714     1.8144552375    -0.3728280266
   69      S       4.7285294138    -1.2739906333     1.6812880759
   70      N       4.2453700163     0.0991602758     0.9745154269
   71      C       4.0839438180     2.3980342124    -0.8963232103
   72      S       2.4200626912     2.0331537179    -0.5465278121
   73      C       4.0333253482     3.4895178723    -1.7719179743
   74      C       1.7014939411     3.2815155668    -1.6383577648
   75      S       5.3371441459     4.3587022891    -2.5059615644
   76      C       2.7809035334     3.9204313489    -2.1868808321
   77      C       0.3814564612     3.3680826112    -2.1442472771
   78      C       4.2387956299     5.3495722347    -3.4399997264
   79      C       2.8959041237     5.0405443619    -3.1435723719
   80      N      -0.0159729195     4.4612531602    -2.7556293494
   81      S      -0.7887501821     2.2348914882    -1.6500729249
   82      C      -1.3963876752     4.6180991588    -2.7290881590
   83      C      -1.9518061858     3.5127713836    -2.1329079955
   84      C      12.6674575266    -2.7526804408     0.7103478751
   85      H      11.8935082466    -1.0738356714    -1.3642045471
   86      H       9.8132490665     0.2720761530    -1.5189207526
   87      H       8.5989199577    -1.3213303329     2.3100940797
   88      H       8.6364085059     2.1213001431    -0.5691313395
   89      H       4.5791494053     6.1094248017    -4.1306417350
   90      H       2.0449832213     5.5706605768    -3.5553992974
   91      H      -1.8394789438     5.5266796024    -3.1149763622
   92      H      -2.9824507004     3.3467015145    -1.8480489374
   93      H      13.4595825492    -2.1556861894     0.2405087405
   94      C      12.5620581624    -4.1419743626     0.0154037241
   95      H      13.0301920087    -2.7851155303     1.7455819841
   96      H      12.2817149646    -4.1701018695    -1.0447672691
   97      H      11.7517843744    -4.7254897167     0.4682151858
   98      C      13.8469761684    -4.9555486142     0.3017752572
   99      H      14.6382285352    -4.7035999830    -0.4152495536
  100      C      13.5024037005    -6.4687428806     0.3362705698
  101      H      14.3156119880    -4.7469477211     1.2713468822
  102      H      13.1751683839    -6.6901782658    -0.6875797209
  103      H      12.6218050900    -6.7114553707     0.9437100601
  104      C      14.6379713581    -7.3290674451     0.8838276340
  105      H      15.4924276186    -7.2329060013     0.2028669335
  106      C      14.2107637535    -8.7325965095     1.3233044002
  107      H      15.0810882974    -6.8359578164     1.7576727417
  108      H      15.1326654808    -9.3002352485     1.4967560277
  109      H      13.5858070300    -9.2493366099     0.5840434433
  110      H      13.5909222492    -8.7373877438     2.2280538426
 ----------------------------------------------------------------

    9   -5663.5184625956      9.96E-06 Convergence criterion met
 Total energy in the final basis set = -5663.5184625956

                    Orbital Energies (a.u.)
 --------------------------------------------------------------

 Alpha MOs
 -- Occupied --
-88.996 -88.988 -88.937 -88.928 -88.924 -88.923 -88.913 -88.902
-14.383 -14.381 -14.381 -14.378 -14.352 -14.349 -14.339 -14.337
-14.335 -14.329 -10.273 -10.271 -10.265 -10.264 -10.262 -10.258
-10.253 -10.248 -10.245 -10.245 -10.243 -10.243 -10.241 -10.238
-10.237 -10.236 -10.236 -10.235 -10.233 -10.232 -10.232 -10.230
-10.229 -10.228 -10.227 -10.225 -10.225 -10.223 -10.220 -10.217
-10.215 -10.215 -10.214 -10.212 -10.204 -10.203 -10.201 -10.195
-10.190 -10.186 -10.185 -10.182 -10.180 -10.179 -10.178 -10.178
-10.177 -10.174 -10.174 -10.172  -8.051  -8.044  -7.997  -7.986
 -7.985  -7.983  -7.972  -7.962  -6.016  -6.010  -6.009  -6.009
 -6.003  -6.002  -5.961  -5.958  -5.954  -5.950  -5.948  -5.947
 -5.946  -5.945  -5.943  -5.943  -5.942  -5.940  -5.937  -5.933
 -5.928  -5.927  -5.923  -5.918  -1.047  -1.033  -0.968  -0.967
 -0.963  -0.961  -0.934  -0.929  -0.911  -0.905  -0.904  -0.889
 -0.839  -0.838  -0.838  -0.830  -0.811  -0.808  -0.808  -0.806
 -0.804  -0.800  -0.796  -0.795  -0.786  -0.780  -0.770  -0.769
 -0.750  -0.748  -0.738  -0.736  -0.723  -0.718  -0.710  -0.708
 -0.694  -0.692  -0.678  -0.674  -0.655  -0.648  -0.645  -0.644
 -0.636  -0.631  -0.628  -0.627  -0.609  -0.609  -0.599  -0.595
 -0.594  -0.591  -0.584  -0.583  -0.579  -0.576  -0.576  -0.571
 -0.547  -0.546  -0.542  -0.536  -0.521  -0.521  -0.516  -0.507
 -0.506  -0.505  -0.500  -0.498  -0.490  -0.486  -0.481  -0.477
 -0.472  -0.472  -0.470  -0.467  -0.464  -0.463  -0.456  -0.452
 -0.449  -0.440  -0.437  -0.437  -0.435  -0.434  -0.430  -0.430
 -0.427  -0.426  -0.424  -0.422  -0.421  -0.419  -0.415  -0.413
 -0.411  -0.410  -0.408  -0.406  -0.403  -0.401  -0.399  -0.398
 -0.394  -0.393  -0.392  -0.389  -0.388  -0.387  -0.386  -0.383
 -0.379  -0.377  -0.375  -0.374  -0.373  -0.364  -0.356  -0.355
 -0.350  -0.347  -0.345  -0.344  -0.343  -0.340  -0.339  -0.338
 -0.338  -0.336  -0.334  -0.332  -0.331  -0.330  -0.326  -0.321
 -0.319  -0.309  -0.309  -0.307  -0.303  -0.302  -0.301  -0.300
 -0.297  -0.295  -0.292  -0.290  -0.286  -0.285  -0.279  -0.276
 -0.275  -0.272  -0.266  -0.260  -0.260  -0.251  -0.247  -0.245
 -0.243  -0.242  -0.235  -0.232  -0.196  -0.192

          Ground-State Mulliken Net Atomic Charges

     Atom                 Charge (a.u.)
  ----------------------------------------
      1 C                     0.250073
      2 C                    -0.087410
      3 N                    -0.476143
      4 C                    -0.080162
      5 C                     0.058484
      6 C                     0.026659
      7 C                    -0.006023
      8 C                     0.055976
      9 C                     0.221010
     10 N                    -0.509534
     11 N                    -0.552378
     12 C                     0.217931
     13 C                     0.318226
     14 S                     0.626814
     15 N                    -0.567292
     16 C                    -0.224633
     17 S                     0.367771
     18 C                    -0.121697
     19 C                    -0.234944
     20 S                     0.283909
     21 C                     0.139935
     22 C                     0.044763
     23 C                    -0.306926
     24 C                    -0.082596
     25 N                    -0.431504
     26 S                     0.292384
     27 C                     0.141044
     28 C                    -0.322903
     29 C                    -0.226035
     30 H                     0.102341
     31 H                     0.112434
     32 H                     0.110401
     33 H                     0.121053
     34 H                     0.141347
     35 H                     0.109034
     36 H                     0.122658
     37 H                     0.123010
     38 H                     0.106138
     39 C                    -0.180112
     40 H                     0.109677
     41 H                     0.090654
     42 H                     0.111043
     43 C                    -0.181674
     44 H                     0.097707
     45 C                    -0.167327
     46 H                     0.089332
     47 H                     0.092765
     48 H                     0.089542
     49 C                    -0.185303
     50 H                     0.096168
     51 C                    -0.315002
     52 H                     0.093394
     53 H                     0.107124
     54 H                     0.098713
     55 H                     0.103588
     56 C                     0.256808
     57 C                    -0.109908
     58 N                    -0.480496
     59 C                    -0.093385
     60 C                     0.081982
     61 C                     0.051017
     62 C                     0.037568
     63 C                     0.042999
     64 C                     0.196311
     65 N                    -0.524381
     66 N                    -0.544051
     67 C                     0.204152
     68 C                     0.345412
     69 S                     0.605227
     70 N                    -0.552861
     71 C                    -0.216871
     72 S                     0.314869
     73 C                    -0.131298
     74 C                    -0.242360
     75 S                     0.281036
     76 C                     0.149483
     77 C                     0.081078
     78 C                    -0.315738
     79 C                    -0.055488
     80 N                    -0.445594
     81 S                     0.255458
     82 C                     0.137967
     83 C                    -0.323704
     84 C                    -0.220438
     85 H                     0.091108
     86 H                     0.098642
     87 H                     0.123273
     88 H                     0.109626
     89 H                     0.131567
     90 H                     0.125480
     91 H                     0.130529
     92 H                     0.135441
     93 H                     0.095506
     94 C                    -0.178042
     95 H                     0.116258
     96 H                     0.098984
     97 H                     0.114659
     98 C                    -0.182756
     99 H                     0.093294
    100 C                    -0.175977
    101 H                     0.094003
    102 H                     0.090115
    103 H                     0.093375
    104 C                    -0.177869
    105 H                     0.091560
    106 C                    -0.323469
    107 H                     0.092560
    108 H                     0.102447
    109 H                     0.103696
    110 H                     0.107693
  ----------------------------------------
  Sum of atomic charges =     0.000000

                    Cartesian Multipole Moments
 -----------------------------------------------------------------
    Charge (ESU x 10^10)
                 0.0000
    Dipole Moment (Debye)
         X      -0.2397      Y      -2.4107      Z      -0.9381
       Tot       2.5979
    Quadrupole Moments (Debye-Ang)
        XX    -430.4909     XY      18.5392     YY    -409.9731
        XZ      -6.0961     YZ       5.7911     ZZ    -433.4356

 Total job time:  79.19s(wall), 925.78s(cpu)
        *  Thank you very much for using Q-Chem.  Have a nice day.  *
