 Q-Chem 4.4, Q-Chem, Inc., Pleasanton, CA (2016)
 Q-Chem 4.4.2 for Intel X86 Linux

User input:
--------------------------------------------------------------
$comment
SP
$end

$rem
MEM_STATIC 5000
MEM_TOTAL 20000
JOBTYPE SP
EXCHANGE B3LYP
BASIS 6-31g(d,p)
$end

$molecule
0 1
C         -21.682000     -2.617000      3.009000
C         -22.667000     -2.574000      3.949000
N         -21.190000     -3.785000      2.454000
C         -23.304000     -3.716000      4.449000
C         -21.962000     -4.893000      2.756000
C         -22.970000     -4.886000      3.826000
C         -23.772000     -6.117000      4.197000
C         -25.168000     -6.171000      4.362000
C         -23.105000     -7.321000      4.536000
N         -25.832000     -7.299000      4.562000
N         -21.735000     -7.431000      4.652000
C         -23.774000     -8.498000      4.881000
C         -25.170000     -8.446000      4.778000
S         -21.453000     -8.938000      5.121000
N         -23.009000     -9.516000      5.234000
C         -26.041000     -9.603000      4.920000
S         -27.779000     -9.472000      5.465000
C         -25.879000    -10.901000      4.540000
C         -28.005000    -11.163000      5.475000
S         -24.649000    -11.512000      3.479000
C         -26.934000    -11.693000      4.775000
C         -29.154000    -11.948000      5.871000
C         -25.694000    -12.967000      3.302000
C         -26.743000    -12.959000      4.168000
N         -28.951000    -13.240000      6.193000
S         -30.674000    -11.215000      6.053000
C         -30.125000    -13.691000      6.737000
C         -31.125000    -12.728000      6.813000
C         -20.825000     -1.325000      2.636000
H         -22.895000     -1.584000      4.332000
H         -24.092000     -3.714000      5.196000
H         -21.607000     -5.855000      2.390000
H         -25.742000     -5.246000      4.390000
H         -25.418000    -13.785000      2.650000
H         -27.457000    -13.775000      4.174000
H         -30.184000    -14.698000      7.126000
H         -32.177000    -12.821000      7.047000
H         -20.075000     -1.153000      3.418000
C         -21.700000     -0.062000      2.432000
H         -20.291000     -1.534000      1.701000
H         -22.103000      0.249000      3.403000
H         -22.629000     -0.385000      1.947000
C         -21.048000      1.023000      1.539000
H         -20.177000      1.441000      2.058000
C         -21.969000      2.205000      1.187000
H         -20.693000      0.528000      0.626000
H         -22.320000      2.692000      2.105000
H         -22.767000      1.790000      0.559000
C         -21.296000      3.306000      0.326000
H         -22.005000      4.128000      0.168000
C         -20.737000      2.915000     -1.047000
H         -20.494000      3.770000      0.912000
H         -20.334000      3.705000     -1.694000
H         -21.570000      2.534000     -1.650000
H         -19.903000      2.213000     -0.926000
C         -21.413000    -13.489000     -3.929000
C         -20.775000    -12.636000     -3.030000
N         -22.744000    -13.641000     -3.931000
C         -21.570000    -11.980000     -2.041000
C         -23.429000    -12.960000     -3.030000
C         -22.984000    -12.057000     -2.045000
C         -23.873000    -11.417000     -1.050000
C         -25.060000    -12.120000     -0.701000
C         -23.664000    -10.226000     -0.321000
N         -26.021000    -11.603000      0.095000
N         -22.519000     -9.506000     -0.427000
C         -24.604000     -9.647000      0.528000
C         -25.867000    -10.308000      0.661000
S         -22.664000     -8.139000      0.583000
N         -24.176000     -8.498000      1.114000
C         -27.091000     -9.625000      1.137000
S         -27.230000     -7.879000      1.648000
C         -28.260000    -10.261000      1.488000
C         -28.780000     -8.103000      2.431000
S         -28.732000    -11.937000      1.158000
C         -29.136000     -9.415000      2.190000
C         -29.310000     -7.063000      3.266000
C         -30.192000    -11.597000      2.035000
C         -30.252000    -10.272000      2.551000
N         -30.243000     -7.305000      4.246000
S         -28.648000     -5.446000      3.224000
C         -30.588000     -6.065000      4.763000
C         -29.928000     -4.980000      4.203000
C         -20.712000    -14.209000     -5.069000
H         -19.692000    -12.624000     -2.950000
H         -21.038000    -11.433000     -1.269000
H         -24.501000    -13.137000     -3.102000
H         -25.219000    -13.088000     -1.173000
H         -30.879000    -12.421000      2.179000
H         -31.043000     -9.807000      3.128000
H         -31.379000     -6.032000      5.500000
H         -30.054000     -3.924000      4.402000
H         -19.619000    -14.115000     -5.058000
C         -21.247000    -13.733000     -6.464000
H         -20.889000    -15.289000     -4.996000
H         -21.144000    -12.645000     -6.558000
H         -22.334000    -13.798000     -6.592000
C         -20.512000    -14.331000     -7.617000
H         -19.425000    -14.231000     -7.507000
C         -20.992000    -13.647000     -8.908000
H         -20.810000    -15.386000     -7.610000
H         -20.622000    -12.614000     -8.945000
H         -22.080000    -13.540000     -9.001000
C         -20.408000    -14.307000    -10.238000
H         -20.550000    -15.385000    -10.091000
C         -18.913000    -14.041000    -10.467000
H         -20.987000    -13.984000    -11.112000
H         -18.335000    -14.363000     -9.593000
H         -18.713000    -12.993000    -10.721000
H         -18.613000    -14.622000    -11.348000
$end

--------------------------------------------------------------

             Standard Nuclear Orientation (Angstroms)
    I     Atom           X                Y                Z
 ----------------------------------------------------------------
    1      C      -3.5896092073    -6.0482539559    -1.1059530762
    2      C      -4.6347817470    -5.1897468037    -0.9439227342
    3      N      -2.3271213972    -5.6635627691    -1.5212243370
    4      C      -4.5400485523    -3.8110407260    -1.1678159526
    5      C      -2.1524601786    -4.2908554927    -1.5167307665
    6      C      -3.2794385527    -3.3511048711    -1.4284045908
    7      C      -3.0927483320    -1.8483946608    -1.4851036692
    8      C      -3.6497215132    -0.9154641372    -0.5915833765
    9      C      -2.4062396322    -1.2608786183    -2.5773292434
   10      N      -3.3522095186     0.3746534700    -0.6106404622
   11      N      -1.9672007390    -1.9693126798    -3.6763388114
   12      C      -2.1878219134     0.1138941109    -2.6965292563
   13      C      -2.6108275491     0.8846137444    -1.6060309855
   14      S      -1.3259875122    -0.8866639773    -4.6699440574
   15      N      -1.5886885849     0.5104157858    -3.8055683972
   16      C      -2.3229913733     2.3024521893    -1.4500230371
   17      S      -3.3827298147     3.4257020082    -0.4752952391
   18      C      -1.2226443770     3.0365009432    -1.7753796336
   19      C      -2.4662395567     4.8046508375    -0.8866378374
   20      S       0.3291589303     2.4085616060    -2.2331357743
   21      C      -1.2804581699     4.3269899512    -1.4192761579
   22      C      -2.6778148084     6.1974261332    -0.5570094278
   23      C       0.9688762136     4.0491245555    -1.8593791606
   24      C      -0.0227635901     4.9485249154    -1.6182350287
   25      N      -2.0823147004     7.1237258013    -1.3325773141
   26      S      -3.7540190762     6.6335340701     0.6808949471
   27      C      -2.6082825958     8.3333958725    -0.9615394564
   28      C      -3.5684065659     8.2540924333     0.0409663673
   29      C      -3.7924577791    -7.6294575346    -1.0673564505
   30      H      -5.5773864951    -5.6572933072    -0.6762110312
   31      H      -5.3533662680    -3.1020606906    -1.0460842698
   32      H      -1.1963179129    -3.9150121077    -1.8772286412
   33      H      -4.4094030151    -1.2387814044     0.1185116597
   34      H       2.0232550491     4.2768354951    -1.9420653095
   35      H       0.2158991276     5.9788897714    -1.3793284138
   36      H      -2.3182080176     9.2297996218    -1.4917922805
   37      H      -4.0376666110     9.0300535798     0.6307021634
   38      H      -4.2165181788    -7.9609552664    -2.0233324080
   39      C      -4.6825944622    -8.0923010099     0.1141013790
   40      H      -2.8039715397    -8.0929003268    -0.9616316529
   41      H      -5.7138845968    -7.7712267798    -0.0738427538
   42      H      -4.4471659341    -7.4485839365     0.9701368558
   43      C      -4.4502729437    -9.5621858300     0.5445004121
   44      H      -4.7862391561   -10.2298675157    -0.2580292576
   45      C      -5.1993615824    -9.9845976293     1.8210988154
   46      H      -3.3688579905    -9.7011615022     0.6703831416
   47      H      -6.2783755354    -9.8405915508     1.6866178180
   48      H      -4.7607338011    -9.3974799360     2.6373778630
   49      C      -4.9929377804   -11.4687768112     2.2224121217
   50      H      -5.6005134124   -11.6938806161     3.1075726317
   51      C      -3.5671415057   -11.9519828979     2.5124256743
   52      H      -5.4283750210   -12.1074684521     1.4450039937
   53      H      -3.4243735262   -12.9779838549     2.8758226204
   54      H      -3.1786827581   -11.3608127073     3.3504451294
   55      H      -2.9614621586   -11.9018453979     1.5993869239
   56      C       8.0173214490    -0.4283375059    -0.7830152568
   57      C       7.0673414711    -1.1546535452    -1.4991556429
   58      N       7.6625840477     0.4845998806     0.1309736407
   59      C       5.6875429288    -0.8445632663    -1.2979542469
   60      C       6.3694351606     0.6823223030     0.3138911064
   61      C       5.2621241938     0.0627854334    -0.2974152736
   62      C       3.8558794542     0.4431468049    -0.0371328130
   63      C       3.6175812076     1.7838925813     0.3758970994
   64      C       2.6870602054    -0.3260044621    -0.2265289379
   65      N       2.4059152751     2.2350615183     0.7667145227
   66      N       2.7229510620    -1.5772762620    -0.7496844876
   67      C       1.4068983427     0.0837714745     0.1380410651
   68      C       1.2767778736     1.3714210723     0.7502552245
   69      S       1.1252989229    -2.1734960101    -0.7926222842
   70      N       0.4412140191    -0.8316661640    -0.1380181988
   71      C       0.1136258143     1.7584992316     1.5800074679
   72      S      -1.3399417107     0.7234887953     1.9606028529
   73      C      -0.1597118215     3.0399131336     2.0013421908
   74      C      -2.3014474625     2.0687195573     2.5364725313
   75      S       0.9149204603     4.4489105258     1.9778516058
   76      C      -1.4684013927     3.1690404959     2.4978839618
   77      C      -3.7064373325     1.8890515241     2.7676604702
   78      C      -0.4187750044     5.3560999441     2.6217403905
   79      C      -1.6006789573     4.5836714072     2.8004530132
   80      N      -4.5950642151     2.9377535468     2.7720571595
   81      S      -4.4095927405     0.2914973807     2.8576061823
   82      C      -5.8229686117     2.3997087319     3.1279680611
   83      C      -5.8322801263     1.0300059557     3.3521389791
   84      C       9.5142341360    -0.6824761950    -0.8467877742
   85      H       7.3644960752    -1.7909077174    -2.3275956043
   86      H       4.9760957769    -1.3227289568    -1.9638502766
   87      H       6.1676305538     1.4354236533     1.0740294206
   88      H       4.4827847530     2.4404783583     0.4494290146
   89      H      -0.2675822602     6.4195722401     2.7553384058
   90      H      -2.5639607088     4.9014502481     3.1824737918
   91      H      -6.6482793330     3.0846188362     3.2683224782
   92      H      -6.6447188292     0.3945864593     3.6789392510
   93      H       9.8168926842    -1.4066248475    -1.6133466646
   94      C      10.0770512609    -1.1488641682     0.5404919894
   95      H      10.0397563148     0.2389118449    -1.1259445755
   96      H       9.5374080413    -2.0381414406     0.8885726241
   97      H       9.8451013757    -0.4864831158     1.3828865479
   98      C      11.5227807156    -1.5170251676     0.5009720895
   99      H      11.7472479446    -2.2107389565    -0.3188112003
  100      C      11.9047768060    -2.1362409178     1.8558107669
  101      H      12.0413974644    -0.5618527742     0.3575832244
  102      H      11.4453038397    -3.1281375947     1.9577105976
  103      H      11.5451423642    -1.5883060547     2.7357382947
  104      C      13.4664115487    -2.4237631281     2.0113225307
  105      H      13.9481889260    -1.5016003089     1.6629501816
  106      C      13.9782023601    -3.5919454566     1.1559616637
  107      H      13.7226777137    -2.5871922179     3.0653930148
  108      H      13.7210099594    -3.4286467579     0.1029518802
  109      H      13.6120989054    -4.5608109063     1.5166388057
  110      H      15.0685431192    -3.6246416566     1.2734775668
 ----------------------------------------------------------------

   10   -5663.4823762936      6.59E-06 Convergence criterion met
 Total energy in the final basis set = -5663.4823762936

                    Orbital Energies (a.u.)
 --------------------------------------------------------------

 Alpha MOs
 -- Occupied --
-88.988 -88.986 -88.931 -88.927 -88.921 -88.915 -88.913 -88.900
-14.386 -14.381 -14.380 -14.376 -14.354 -14.352 -14.344 -14.342
-14.341 -14.324 -10.274 -10.272 -10.264 -10.256 -10.256 -10.252
-10.252 -10.248 -10.246 -10.246 -10.241 -10.237 -10.237 -10.233
-10.231 -10.230 -10.230 -10.230 -10.230 -10.229 -10.226 -10.226
-10.225 -10.223 -10.221 -10.221 -10.219 -10.216 -10.215 -10.214
-10.212 -10.211 -10.207 -10.202 -10.198 -10.195 -10.193 -10.190
-10.185 -10.184 -10.184 -10.182 -10.182 -10.180 -10.175 -10.174
-10.173 -10.173 -10.171 -10.170  -8.042  -8.041  -7.993  -7.988
 -7.980  -7.974  -7.972  -7.960  -6.008  -6.006  -6.002  -6.001
 -6.000  -5.999  -5.956  -5.953  -5.952  -5.950  -5.949  -5.946
 -5.945  -5.941  -5.938  -5.937  -5.936  -5.935  -5.933  -5.930
 -5.928  -5.925  -5.921  -5.916  -1.036  -1.019  -0.967  -0.963
 -0.962  -0.944  -0.939  -0.927  -0.918  -0.909  -0.903  -0.888
 -0.843  -0.841  -0.832  -0.824  -0.819  -0.812  -0.809  -0.808
 -0.805  -0.803  -0.798  -0.791  -0.780  -0.778  -0.765  -0.762
 -0.749  -0.746  -0.739  -0.736  -0.721  -0.720  -0.708  -0.705
 -0.690  -0.689  -0.674  -0.671  -0.653  -0.650  -0.647  -0.642
 -0.635  -0.633  -0.632  -0.618  -0.609  -0.606  -0.595  -0.594
 -0.592  -0.589  -0.584  -0.579  -0.579  -0.572  -0.563  -0.563
 -0.553  -0.549  -0.541  -0.534  -0.523  -0.522  -0.518  -0.513
 -0.509  -0.501  -0.499  -0.494  -0.485  -0.483  -0.475  -0.472
 -0.471  -0.468  -0.466  -0.464  -0.463  -0.457  -0.449  -0.447
 -0.444  -0.443  -0.441  -0.439  -0.438  -0.431  -0.428  -0.428
 -0.426  -0.423  -0.421  -0.418  -0.416  -0.415  -0.414  -0.413
 -0.411  -0.409  -0.404  -0.401  -0.397  -0.395  -0.394  -0.392
 -0.391  -0.389  -0.388  -0.386  -0.383  -0.382  -0.381  -0.380
 -0.378  -0.377  -0.376  -0.368  -0.362  -0.361  -0.358  -0.354
 -0.353  -0.351  -0.347  -0.345  -0.343  -0.343  -0.340  -0.339
 -0.335  -0.333  -0.331  -0.328  -0.323  -0.322  -0.321  -0.316
 -0.313  -0.311  -0.311  -0.307  -0.303  -0.300  -0.298  -0.298
 -0.296  -0.294  -0.292  -0.292  -0.289  -0.288  -0.286  -0.279
 -0.277  -0.272  -0.265  -0.263  -0.259  -0.253  -0.253  -0.247
 -0.243  -0.237  -0.232  -0.223  -0.190  -0.186

          Ground-State Mulliken Net Atomic Charges

     Atom                 Charge (a.u.)
  ----------------------------------------
      1 C                     0.242302
      2 C                    -0.101265
      3 N                    -0.465452
      4 C                    -0.069478
      5 C                     0.072990
      6 C                     0.040944
      7 C                     0.001965
      8 C                     0.077883
      9 C                     0.199890
     10 N                    -0.522682
     11 N                    -0.532508
     12 C                     0.265543
     13 C                     0.296192
     14 S                     0.602132
     15 N                    -0.579589
     16 C                    -0.244995
     17 S                     0.318058
     18 C                    -0.090159
     19 C                    -0.191136
     20 S                     0.242425
     21 C                     0.139939
     22 C                     0.044387
     23 C                    -0.289092
     24 C                    -0.045200
     25 N                    -0.425083
     26 S                     0.297670
     27 C                     0.123394
     28 C                    -0.315620
     29 C                    -0.224703
     30 H                     0.083621
     31 H                     0.104617
     32 H                     0.113421
     33 H                     0.102110
     34 H                     0.123461
     35 H                     0.112716
     36 H                     0.115363
     37 H                     0.124392
     38 H                     0.117002
     39 C                    -0.191623
     40 H                     0.118572
     41 H                     0.090375
     42 H                     0.097132
     43 C                    -0.175822
     44 H                     0.090800
     45 C                    -0.170407
     46 H                     0.101876
     47 H                     0.093967
     48 H                     0.091845
     49 C                    -0.182364
     50 H                     0.090080
     51 C                    -0.319281
     52 H                     0.088928
     53 H                     0.102204
     54 H                     0.100756
     55 H                     0.106604
     56 C                     0.260626
     57 C                    -0.119097
     58 N                    -0.471016
     59 C                    -0.087223
     60 C                     0.053689
     61 C                     0.069315
     62 C                     0.048897
     63 C                     0.066658
     64 C                     0.234182
     65 N                    -0.520470
     66 N                    -0.589299
     67 C                     0.238786
     68 C                     0.282540
     69 S                     0.599702
     70 N                    -0.584434
     71 C                    -0.222554
     72 S                     0.320673
     73 C                    -0.116807
     74 C                    -0.220916
     75 S                     0.321976
     76 C                     0.167892
     77 C                     0.072504
     78 C                    -0.310107
     79 C                    -0.094852
     80 N                    -0.435472
     81 S                     0.297965
     82 C                     0.114038
     83 C                    -0.302785
     84 C                    -0.223795
     85 H                     0.091804
     86 H                     0.113999
     87 H                     0.086458
     88 H                     0.120944
     89 H                     0.132485
     90 H                     0.114115
     91 H                     0.113251
     92 H                     0.134133
     93 H                     0.089846
     94 C                    -0.174540
     95 H                     0.113219
     96 H                     0.087950
     97 H                     0.118149
     98 C                    -0.163603
     99 H                     0.092578
    100 C                    -0.185812
    101 H                     0.093805
    102 H                     0.090256
    103 H                     0.091172
    104 C                    -0.181814
    105 H                     0.091692
    106 C                    -0.314801
    107 H                     0.087684
    108 H                     0.104241
    109 H                     0.102299
    110 H                     0.100776
  ----------------------------------------
  Sum of atomic charges =     0.000000

                    Cartesian Multipole Moments
 -----------------------------------------------------------------
    Charge (ESU x 10^10)
                 0.0000
    Dipole Moment (Debye)
         X      -3.7296      Y       0.0887      Z       1.3005
       Tot       3.9508
    Quadrupole Moments (Debye-Ang)
        XX    -416.7508     XY       2.0940     YY    -416.7863
        XZ     -22.5156     YZ       6.2815     ZZ    -446.5480

 Total job time:  109.23s(wall), 1288.26s(cpu)
        *  Thank you very much for using Q-Chem.  Have a nice day.  *
