 Q-Chem 4.4, Q-Chem, Inc., Pleasanton, CA (2016)
 Q-Chem 4.4.2 for Intel X86 Linux

User input:
--------------------------------------------------------------
$comment
SP
$end

$rem
MEM_STATIC 5000
MEM_TOTAL 20000
JOBTYPE SP
EXCHANGE B3LYP
BASIS 6-31g(d,p)
$end

$molecule
0 1
C          17.240000     15.391000    -12.756000
C          17.884000     14.135000    -12.850000
N          17.715000     16.429000    -12.030000
C          19.008000     13.934000    -12.074000
C          18.881000     16.244000    -11.319000
C          19.553000     14.980000    -11.280000
C          20.826000     14.796000    -10.505000
C          20.852000     15.243000     -9.161000
C          22.134000     14.446000    -11.051000
N          21.964000     15.245000     -8.419000
N          22.352000     13.903000    -12.315000
C          23.287000     14.474000    -10.259000
C          23.137000     14.781000     -8.864000
S          23.936000     13.537000    -12.423000
N          24.365000     13.990000    -10.930000
C          24.259000     14.556000     -7.859000
S          25.701000     13.655000     -8.098000
C          24.120000     14.941000     -6.534000
C          26.146000     13.758000     -6.358000
S          22.965000     16.006000     -5.632000
C          25.200000     14.502000     -5.678000
C          27.372000     13.270000     -5.754000
C          23.892000     15.834000     -4.141000
C          25.027000     15.002000     -4.303000
N          28.209000     12.613000     -6.602000
S          27.783000     13.139000     -4.073000
C          29.253000     12.056000     -5.979000
C          29.242000     12.341000     -4.630000
C          15.872000     15.580000    -13.434000
H          17.392000     13.354000    -13.422000
H          19.524000     12.979000    -12.119000
H          19.112000     17.093000    -10.678000
H          20.076000     15.810000     -8.650000
H          23.551000     16.341000     -3.248000
H          25.702000     14.755000     -3.491000
H          29.946000     11.402000     -6.493000
H          29.927000     11.889000     -3.924000
H          15.325000     14.631000    -13.378000
C          15.922000     16.132000    -14.863000
H          15.329000     16.336000    -12.854000
H          16.675000     15.537000    -15.393000
H          16.340000     17.147000    -14.853000
C          14.546000     16.078000    -15.583000
H          14.122000     15.067000    -15.619000
C          14.710000     16.489000    -17.080000
H          13.874000     16.690000    -14.968000
H          15.595000     17.109000    -17.271000
H          13.810000     17.064000    -17.328000
C          14.985000     15.229000    -17.938000
H          15.824000     14.710000    -17.458000
C          15.358000     15.610000    -19.379000
H          14.153000     14.516000    -17.989000
H          14.576000     16.239000    -19.822000
H          15.443000     14.668000    -19.935000
H          16.344000     16.087000    -19.329000
C          19.851000     11.572000     -6.268000
C          20.926000     12.165000     -6.987000
N          19.176000     10.550000     -6.769000
C          21.355000     11.623000     -8.213000
C          19.456000     10.109000     -7.972000
C          20.576000     10.649000     -8.813000
C          21.008000      9.947000    -10.125000
C          22.352000      9.962000    -10.547000
C          20.051000      9.308000    -11.046000
N          22.777000      9.304000    -11.699000
N          18.733000      9.222000    -10.818000
C          20.495000      8.713000    -12.230000
C          21.891000      8.625000    -12.502000
S          18.142000      8.606000    -12.216000
N          19.524000      8.255000    -13.009000
C          22.498000      7.730000    -13.507000
S          21.599000      6.958000    -14.830000
C          23.867000      7.636000    -13.794000
C          23.014000      6.350000    -15.555000
S          25.323000      8.349000    -13.058000
C          24.134000      6.857000    -14.935000
C          22.929000      5.640000    -16.787000
C          26.294000      7.532000    -14.346000
C          25.529000      6.790000    -15.261000
N          24.035000      5.488000    -17.505000
S          21.565000      4.646000    -17.139000
C          23.728000      4.649000    -18.512000
C          22.466000      4.129000    -18.507000
C          19.560000     11.859000     -4.734000
H          21.609000     12.897000     -6.566000
H          22.345000     11.980000     -8.483000
H          18.917000      9.210000     -8.265000
H          23.100000     10.446000     -9.921000
H          27.369000      7.628000    -14.265000
H          25.858000      6.132000    -16.057000
H          24.509000      4.456000    -19.236000
H          22.109000      3.304000    -19.109000
H          20.086000     12.725000     -4.314000
C          20.098000     10.693000     -3.842000
H          18.482000     12.007000     -4.596000
H          19.617000      9.744000     -4.110000
H          19.852000     10.968000     -2.809000
C          21.658000     10.477000     -3.977000
H          21.766000      9.592000     -3.336000
C          22.437000     11.640000     -3.581000
H          21.946000     10.181000     -4.993000
H          22.177000     11.948000     -2.561000
H          22.197000     12.550000     -4.145000
C          23.946000     11.375000     -3.630000
H          24.535000     12.244000     -3.311000
C          24.481000     10.792000     -4.971000
H          24.243000     10.605000     -2.907000
H          24.137000     11.392000     -5.823000
H          24.156000      9.749000     -5.069000
H          25.572000     10.908000     -4.999000
$end

--------------------------------------------------------------

             Standard Nuclear Orientation (Angstroms)
    I     Atom           X                Y                Z
 ----------------------------------------------------------------
    1      C      -2.4490233463    -5.9589897624     0.2374461243
    2      C      -2.6941674308    -4.5930064576    -0.0366012964
    3      N      -1.3017022780    -6.4241106536     0.7828468237
    4      C      -1.6599467923    -3.7034756910     0.1757090569
    5      C      -0.3025106128    -5.5175110539     1.0639076387
    6      C      -0.4245104899    -4.1287400071     0.7364446489
    7      C       0.6711518286    -3.1523014979     1.0544099323
    8      C       1.9896165061    -3.4863823309     0.6583519931
    9      C       0.5830340749    -2.0104101053     1.9598376263
   10      N       3.0559775062    -2.7554168157     0.9984632001
   11      N      -0.6045185906    -1.4430254476     2.4157568262
   12      C       1.7167501926    -1.2721002699     2.3162690384
   13      C       2.9666802157    -1.6203207745     1.7004838345
   14      S      -0.2136997951    -0.1110030070     3.2687825508
   15      N       1.3891889627    -0.1824134410     3.0591467239
   16      C       4.1904697434    -0.7174901683     1.7827643817
   17      S       4.2395463048     0.9195346343     2.2985427126
   18      C       5.4094313483    -1.1154077854     1.2545928415
   19      C       5.9482350046     1.1157312631     1.7711682632
   20      S       6.0968097716    -2.6920311308     0.6857134784
   21      C       6.4185765823    -0.0793308716     1.2598393138
   22      C       6.7789922769     2.2893426163     1.9674200053
   23      C       7.6840972570    -1.9657355669     0.4307483976
   24      C       7.7053121900    -0.5862223980     0.7519747094
   25      N       6.1500968058     3.3492221829     2.5440202054
   26      S       8.3474445389     2.6377442448     1.3113584175
   27      C       6.9054743079     4.4523132887     2.5741672066
   28      C       8.1613932145     4.2139674807     2.0574409969
   29      C      -3.4953193909    -7.0039776867    -0.1869285040
   30      H      -3.6309884894    -4.3326086525    -0.5200971984
   31      H      -1.8134022686    -2.6476290127    -0.0290962377
   32      H       0.6167267381    -6.0038332047     1.3856784553
   33      H       2.3208335076    -4.4338148628     0.2371004109
   34      H       8.4920398477    -2.5832931281     0.0611128624
   35      H       8.5846289414     0.0370652236     0.6324230831
   36      H       6.5116963131     5.4090644993     2.8931139290
   37      H       8.8860166663     4.9979403592     1.8777958499
   38      H      -3.9644285308    -6.6641645502    -1.1182767993
   39      C      -4.5329298736    -7.3611580946     0.8831330094
   40      H      -2.9540541610    -7.9373327046    -0.3835636012
   41      H      -4.8984718371    -6.4079926350     1.2828687714
   42      H      -4.0343599904    -7.8371812849     1.7374625675
   43      C      -5.6977785604    -8.2301146475     0.3329202814
   44      H      -6.2198286606    -7.7607102005    -0.5098822802
   45      C      -6.7967283045    -8.4052798469     1.4276588863
   46      H      -5.2222886355    -9.1430096009    -0.0477175195
   47      H      -6.4228338682    -8.2726230898     2.4507479026
   48      H      -7.1668975450    -9.4308334711     1.3121448297
   49      C      -7.8448390190    -7.2720948332     1.2982577470
   50      H      -7.2789221360    -6.3322170279     1.2912013565
   51      C      -8.8254774459    -7.2861031821     2.4810185182
   52      H      -8.4382355023    -7.2967526852     0.3760502844
   53      H      -9.3018269585    -8.2702586394     2.5701430249
   54      H      -9.5810671455    -6.5206789607     2.2643737232
   55      H      -8.2511548519    -6.9829721376     3.3644720415
   56      C       2.9155831709    -1.4646589328    -3.5728312028
   57      C       2.8962029345    -1.1775602830    -2.1794777761
   58      N       1.8919630235    -1.1482171400    -4.3494755137
   59      C       1.8222474810    -0.4704927583    -1.6071525193
   60      C       0.8140432919    -0.6161554446    -3.8249858527
   61      C       0.6889777040    -0.2578483149    -2.3726582039
   62      C      -0.5103726290     0.5714680844    -1.8486686155
   63      C      -0.3585723969     1.4641163534    -0.7694185252
   64      C      -1.8800815707     0.4204793560    -2.3716512336
   65      N      -1.4078106881     2.2537721597    -0.3044070028
   66      N      -2.2129703050    -0.3992498885    -3.3784943476
   67      C      -2.9292461916     1.1764079171    -1.8417053790
   68      C      -2.6613964303     2.1783158442    -0.8644740804
   69      S      -3.8484801313    -0.3161334550    -3.4151039987
   70      N      -4.1224542503     0.8794109292    -2.3391923818
   71      C      -3.5913047716     3.2638138980    -0.4950644812
   72      S      -5.3300867078     3.2561726523    -0.8571321404
   73      C      -3.3486758365     4.2523588679     0.4689251672
   74      C      -5.6163723871     4.6640081363     0.0558595133
   75      S      -1.9248183516     4.6842573051     1.4467260686
   76      C      -4.4880123727     5.0263269702     0.7568429229
   77      C      -6.9460827710     5.1527636397     0.2046457791
   78      C      -2.9355074717     5.9588785481     2.2361069586
   79      C      -4.2604275727     6.0127025613     1.7727456506
   80      N      -7.1954876313     6.0148179507     1.1826660143
   81      S      -8.0941625195     4.9859848323    -1.0707105321
   82      C      -8.4571161497     6.4480730623     1.0015514373
   83      C      -9.1030121734     5.9917745524    -0.1109587857
   84      C       4.2255510173    -1.8941508327    -4.3600585838
   85      H       3.7591743977    -1.2717807670    -1.5268241512
   86      H       2.0821112682    -0.0709140146    -0.6308038932
   87      H       0.0622875862    -0.3032900568    -4.5471697684
   88      H       0.6257549747     1.5949431858    -0.3226300232
   89      H      -2.4245717660     6.6044849596     2.9386303148
   90      H      -5.0382015736     6.7332196156     1.9980094469
   91      H      -8.8488939996     7.1235944947     1.7509291196
   92      H     -10.0286908470     6.3755172747    -0.5188049776
   93      H       5.0714939668    -2.1929353435    -3.7290749531
   94      C       4.8225080785    -0.6798012847    -5.1434240428
   95      H       3.9824575459    -2.7263696157    -5.0318840533
   96      H       4.0981936890    -0.2913411237    -5.8702344503
   97      H       5.7122056187    -1.0632594391    -5.6578442317
   98      C       5.2296862519     0.5249713155    -4.2046962245
   99      H       5.5371704080     1.2465265368    -4.9731892669
  100      C       6.2480097182     0.1745839210    -3.2267023636
  101      H       4.3638592123     0.9518725066    -3.6842013537
  102      H       7.1318751254    -0.2425954453    -3.7243039292
  103      H       5.9650047122    -0.6548372943    -2.5665776676
  104      C       6.6942082766     1.3805310087    -2.3922531631
  105      H       7.4777380489     1.1230223827    -1.6686418009
  106      C       5.5477746437     2.1905327054    -1.7184711680
  107      H       7.1821181717     2.1416402540    -3.0139401026
  108      H       4.8749550997     1.5263134820    -1.1613655367
  109      H       4.9993712430     2.7507540371    -2.4855981258
  110      H       5.9770061183     2.8334810210    -0.9394340670
 ----------------------------------------------------------------

    9   -5663.5280245402      7.41E-06 Convergence criterion met
 Total energy in the final basis set = -5663.5280245402

                    Orbital Energies (a.u.)
 --------------------------------------------------------------

 Alpha MOs
 -- Occupied --
-88.994 -88.986 -88.938 -88.933 -88.930 -88.923 -88.916 -88.912
-14.388 -14.385 -14.382 -14.379 -14.351 -14.349 -14.345 -14.340
-14.330 -14.322 -10.272 -10.272 -10.267 -10.265 -10.261 -10.259
-10.257 -10.255 -10.246 -10.246 -10.244 -10.242 -10.240 -10.239
-10.238 -10.235 -10.233 -10.232 -10.232 -10.230 -10.230 -10.229
-10.229 -10.228 -10.228 -10.228 -10.228 -10.227 -10.222 -10.219
-10.219 -10.217 -10.209 -10.206 -10.206 -10.199 -10.197 -10.192
-10.182 -10.181 -10.179 -10.179 -10.177 -10.177 -10.175 -10.172
-10.171 -10.167 -10.167 -10.166  -8.049  -8.042  -7.998  -7.995
 -7.988  -7.984  -7.974  -7.970  -6.014  -6.008  -6.007  -6.007
 -6.001  -5.999  -5.962  -5.959  -5.959  -5.956  -5.955  -5.953
 -5.952  -5.949  -5.948  -5.945  -5.944  -5.941  -5.939  -5.935
 -5.935  -5.931  -5.931  -5.927  -1.045  -1.031  -0.984  -0.969
 -0.960  -0.942  -0.939  -0.927  -0.913  -0.909  -0.906  -0.887
 -0.842  -0.841  -0.827  -0.821  -0.821  -0.811  -0.806  -0.805
 -0.804  -0.803  -0.795  -0.794  -0.783  -0.772  -0.768  -0.762
 -0.747  -0.743  -0.738  -0.732  -0.726  -0.722  -0.709  -0.703
 -0.693  -0.690  -0.677  -0.670  -0.649  -0.646  -0.641  -0.640
 -0.635  -0.630  -0.625  -0.621  -0.612  -0.608  -0.599  -0.598
 -0.594  -0.592  -0.583  -0.582  -0.578  -0.575  -0.569  -0.555
 -0.548  -0.545  -0.537  -0.536  -0.524  -0.521  -0.517  -0.516
 -0.503  -0.502  -0.499  -0.498  -0.486  -0.478  -0.476  -0.475
 -0.469  -0.466  -0.465  -0.463  -0.461  -0.456  -0.455  -0.449
 -0.445  -0.444  -0.442  -0.441  -0.436  -0.435  -0.431  -0.429
 -0.428  -0.424  -0.422  -0.420  -0.417  -0.415  -0.413  -0.413
 -0.411  -0.410  -0.406  -0.405  -0.402  -0.400  -0.398  -0.395
 -0.394  -0.391  -0.389  -0.389  -0.386  -0.384  -0.383  -0.383
 -0.380  -0.380  -0.373  -0.372  -0.361  -0.360  -0.357  -0.352
 -0.351  -0.349  -0.348  -0.347  -0.344  -0.343  -0.341  -0.340
 -0.336  -0.335  -0.333  -0.332  -0.331  -0.325  -0.323  -0.317
 -0.313  -0.308  -0.305  -0.305  -0.303  -0.302  -0.301  -0.300
 -0.299  -0.296  -0.295  -0.293  -0.291  -0.287  -0.283  -0.278
 -0.276  -0.271  -0.261  -0.258  -0.254  -0.254  -0.253  -0.248
 -0.244  -0.242  -0.234  -0.228  -0.197  -0.194

          Ground-State Mulliken Net Atomic Charges

     Atom                 Charge (a.u.)
  ----------------------------------------
      1 C                     0.263914
      2 C                    -0.101201
      3 N                    -0.479586
      4 C                    -0.062996
      5 C                     0.068490
      6 C                     0.026301
      7 C                    -0.000793
      8 C                     0.061955
      9 C                     0.218618
     10 N                    -0.511589
     11 N                    -0.549058
     12 C                     0.218097
     13 C                     0.303795
     14 S                     0.640051
     15 N                    -0.572747
     16 C                    -0.229462
     17 S                     0.364498
     18 C                    -0.129965
     19 C                    -0.233440
     20 S                     0.284687
     21 C                     0.144718
     22 C                     0.044568
     23 C                    -0.308893
     24 C                    -0.080672
     25 N                    -0.433244
     26 S                     0.293105
     27 C                     0.142339
     28 C                    -0.324093
     29 C                    -0.226507
     30 H                     0.092923
     31 H                     0.109046
     32 H                     0.107707
     33 H                     0.123755
     34 H                     0.142780
     35 H                     0.110663
     36 H                     0.123865
     37 H                     0.123786
     38 H                     0.095530
     39 C                    -0.177914
     40 H                     0.116512
     41 H                     0.089757
     42 H                     0.111633
     43 C                    -0.181216
     44 H                     0.094082
     45 C                    -0.167487
     46 H                     0.090566
     47 H                     0.093389
     48 H                     0.089035
     49 C                    -0.185175
     50 H                     0.096507
     51 C                    -0.314615
     52 H                     0.091421
     53 H                     0.106785
     54 H                     0.097905
     55 H                     0.104259
     56 C                     0.252923
     57 C                    -0.135788
     58 N                    -0.448397
     59 C                    -0.083601
     60 C                     0.092640
     61 C                     0.004756
     62 C                     0.037714
     63 C                     0.054229
     64 C                     0.219126
     65 N                    -0.550036
     66 N                    -0.543688
     67 C                     0.216671
     68 C                     0.315308
     69 S                     0.586584
     70 N                    -0.558815
     71 C                    -0.239649
     72 S                     0.321654
     73 C                    -0.104644
     74 C                    -0.232280
     75 S                     0.279603
     76 C                     0.144434
     77 C                     0.066930
     78 C                    -0.329120
     79 C                    -0.031371
     80 N                    -0.429241
     81 S                     0.293051
     82 C                     0.128501
     83 C                    -0.310852
     84 C                    -0.214067
     85 H                     0.110742
     86 H                     0.105582
     87 H                     0.117051
     88 H                     0.123492
     89 H                     0.130689
     90 H                     0.126811
     91 H                     0.110247
     92 H                     0.131566
     93 H                     0.097454
     94 C                    -0.189424
     95 H                     0.107797
     96 H                     0.107656
     97 H                     0.089123
     98 C                    -0.174278
     99 H                     0.089620
    100 C                    -0.166896
    101 H                     0.106907
    102 H                     0.081023
    103 H                     0.101707
    104 C                    -0.183287
    105 H                     0.080826
    106 C                    -0.330803
    107 H                     0.088534
    108 H                     0.104494
    109 H                     0.107845
    110 H                     0.106562
  ----------------------------------------
  Sum of atomic charges =     0.000000

                    Cartesian Multipole Moments
 -----------------------------------------------------------------
    Charge (ESU x 10^10)
                 0.0000
    Dipole Moment (Debye)
         X      -0.5383      Y       3.1253      Z      -0.2523
       Tot       3.1813
    Quadrupole Moments (Debye-Ang)
        XX    -368.9267     XY      -4.8332     YY    -430.6938
        XZ       6.3156     YZ       7.1772     ZZ    -458.6757

 Total job time:  89.25s(wall), 1077.38s(cpu)
        *  Thank you very much for using Q-Chem.  Have a nice day.  *
