 Q-Chem 4.4, Q-Chem, Inc., Pleasanton, CA (2016)
 Q-Chem 4.4.2 for Intel X86 Linux

User input:
--------------------------------------------------------------
$comment
SP
$end

$rem
MEM_STATIC 5000
MEM_TOTAL 20000
JOBTYPE SP
EXCHANGE B3LYP
BASIS 6-31g(d,p)
$end

$molecule
0 1
C         -22.262000      0.946000    -12.275000
C         -21.517000      0.034000    -13.049000
N         -21.697000      1.819000    -11.460000
C         -20.148000      0.023000    -12.914000
C         -20.376000      1.886000    -11.440000
C         -19.509000      0.973000    -12.098000
C         -18.012000      0.987000    -11.802000
C         -17.190000      0.147000    -12.644000
C         -17.342000      1.502000    -10.647000
N         -15.908000     -0.194000    -12.439000
N         -17.893000      2.259000     -9.718000
C         -15.969000      1.193000    -10.441000
C         -15.244000      0.313000    -11.326000
S         -16.727000      2.474000     -8.594000
N         -15.467000      1.765000     -9.376000
C         -13.829000     -0.183000    -11.114000
S         -12.869000     -0.019000     -9.639000
C         -13.094000     -0.912000    -12.011000
C         -11.482000     -0.883000    -10.277000
S         -13.449000     -1.382000    -13.595000
C         -11.804000     -1.211000    -11.556000
C         -10.218000     -0.906000     -9.638000
C         -11.775000     -1.963000    -13.736000
C         -11.004000     -1.865000    -12.575000
N          -9.487000     -1.978000     -9.924000
S          -9.768000     -0.008000     -8.239000
C          -8.322000     -1.981000     -9.208000
C          -8.346000     -1.100000     -8.165000
C         -23.804000      1.078000    -12.432000
H         -22.085000     -0.657000    -13.665000
H         -19.621000     -0.849000    -13.288000
H         -19.931000      2.557000    -10.707000
H         -17.633000     -0.330000    -13.517000
H         -11.478000     -2.396000    -14.682000
H          -9.994000     -2.232000    -12.433000
H          -7.510000     -2.639000     -9.487000
H          -7.556000     -0.951000     -7.440000
H         -24.170000      0.104000    -12.780000
C         -24.192000      2.209000    -13.370000
H         -24.224000      1.175000    -11.423000
H         -23.790000      1.949000    -14.357000
H         -23.725000      3.151000    -13.056000
C         -25.686000      2.467000    -13.623000
H         -25.916000      3.296000    -14.304000
C         -26.481000      2.634000    -12.352000
H         -26.113000      1.578000    -14.104000
H         -26.025000      3.522000    -11.897000
H         -26.334000      1.765000    -11.698000
C         -27.953000      2.883000    -12.503000
H         -28.303000      2.057000    -13.135000
C         -28.397000      4.253000    -13.075000
H         -28.419000      2.753000    -11.519000
H         -27.900000      5.037000    -12.492000
H         -29.492000      4.318000    -13.081000
H         -28.000000      4.421000    -14.084000
C         -14.388000     -3.633000    -10.427000
C         -14.822000     -2.951000     -9.238000
N         -15.320000     -3.662000    -11.421000
C         -16.111000     -2.391000     -9.155000
C         -16.508000     -3.089000    -11.401000
C         -17.003000     -2.467000    -10.195000
C         -18.456000     -2.227000     -9.892000
C         -18.835000     -1.136000     -9.103000
C         -19.489000     -3.113000    -10.251000
N         -20.090000     -0.817000     -8.747000
N         -19.403000     -4.157000    -11.069000
C         -20.808000     -2.850000     -9.838000
C         -21.069000     -1.623000     -9.134000
S         -20.851000     -4.937000    -10.977000
N         -21.676000     -3.728000    -10.313000
C         -22.488000     -1.216000     -8.838000
S         -23.954000     -2.146000     -8.946000
C         -22.827000      0.045000     -8.380000
C         -25.018000     -0.790000     -8.588000
S         -21.764000      1.432000     -7.988000
C         -24.184000      0.258000     -8.350000
C         -26.485000     -0.754000     -8.506000
C         -23.329000      2.189000     -7.567000
C         -24.519000      1.534000     -7.902000
N         -26.978000     -1.976000     -8.586000
S         -27.616000      0.575000     -8.715000
C         -28.321000     -1.910000     -8.795000
C         -28.874000     -0.596000     -8.816000
C         -13.046000     -4.318000    -10.526000
H         -14.245000     -2.901000     -8.319000
H         -16.265000     -1.877000     -8.211000
H         -17.148000     -3.183000    -12.277000
H         -18.084000     -0.382000     -8.869000
H         -23.308000      3.110000     -6.999000
H         -25.507000      1.932000     -7.698000
H         -28.832000     -2.851000     -8.952000
H         -29.899000     -0.389000     -9.096000
H         -12.273000     -3.599000    -10.227000
C         -12.750000     -4.957000    -11.927000
H         -13.071000     -5.193000     -9.865000
H         -12.854000     -4.181000    -12.695000
H         -13.424000     -5.749000    -12.277000
C         -11.384000     -5.651000    -11.863000
H         -10.625000     -4.875000    -12.020000
C         -11.298000     -6.818000    -12.861000
H         -11.282000     -5.976000    -10.820000
H         -12.081000     -7.535000    -12.586000
H         -10.376000     -7.399000    -12.737000
C         -11.484000     -6.450000    -14.353000
H         -11.449000     -7.269000    -15.082000
C         -10.312000     -5.496000    -14.829000
H         -12.482000     -6.002000    -14.430000
H         -10.454000     -4.622000    -14.182000
H         -10.481000     -5.325000    -15.900000
H          -9.343000     -5.996000    -14.706000
$end

--------------------------------------------------------------

             Standard Nuclear Orientation (Angstroms)
    I     Atom           X                Y                Z
 ----------------------------------------------------------------
    1      C      -4.0576874515     0.3883134332    -2.1471683384
    2      C      -3.0856413313    -0.5106573884    -2.6296854905
    3      N      -3.7471977266     1.5543229646    -1.6090262536
    4      C      -1.7578240324    -0.1785119475    -2.4915275128
    5      C      -2.4751136517     1.9172282976    -1.6033848287
    6      C      -1.3916656557     1.0763172831    -1.9738319987
    7      C       0.0448646202     1.5045108043    -1.6877339828
    8      C       1.0811692340     0.6714513646    -2.2554775143
    9      C       0.5112789030     2.4521655133    -0.7220434168
   10      N       2.3897925181     0.6946394449    -1.9574885661
   11      N      -0.2489844284     3.2918746654    -0.0463369666
   12      C       1.9017256682     2.5258682898    -0.4317475437
   13      C       2.8548622537     1.6219668736    -1.0298636522
   14      S       0.7668787536     4.0610536803     0.9761808271
   15      N       2.1982383554     3.4647100180     0.4308470516
   16      C       4.3256747321     1.5317432908    -0.6809290476
   17      S       5.1281909108     2.3033915310     0.6918956959
   18      C       5.2572011367     0.7680487279    -1.3330825357
   19      C       6.7067563759     1.6298237872     0.3289265966
   20      S       5.1168635971    -0.1847330619    -2.7217845325
   21      C       6.5480089787     0.9007920881    -0.8070404124
   22      C       7.9011724097     2.0653680438     0.9536005426
   23      C       6.8817834502    -0.3933779728    -2.6865253034
   24      C       7.5350581110     0.1883465533    -1.5971241867
   25      N       8.8611084136     1.1472616972     0.9843349631
   26      S       8.0552991545     3.3890723407     2.0445436579
   27      C       9.9496276525     1.6005183340     1.6768479865
   28      C       9.6690651249     2.7050441571     2.4291068345
   29      C      -5.5784441645     0.1247384793    -2.3412411696
   30      H      -3.4510840755    -1.4525637330    -3.0282140826
   31      H      -1.0334694823    -0.9791374570    -2.6024251207
   32      H      -2.2331108033     2.8450280719    -1.0874611909
   33      H       0.8091349004    -0.1127605557    -2.9604001947
   34      H       7.3265842535    -0.9913108546    -3.4708992668
   35      H       8.5882785729     0.1092647470    -1.3533502616
   36      H      10.8998856329     1.0897052007     1.5979257873
   37      H      10.3590701173     3.2192923966     3.0858928412
   38      H      -5.7045804244    -0.9634379314    -2.4020502415
   39      C      -6.1349834955     0.8393001514    -3.5615749722
   40      H      -6.0757865792     0.3981510279    -1.4022065053
   41      H      -5.6219403031     0.4154087352    -4.4336275795
   42      H      -5.9013123436     1.9107626024    -3.5239583677
   43      C      -7.6293836975     0.6780140966    -3.8830774525
   44      H      -7.9847271093     1.2157003945    -4.7710676015
   45      C      -8.5246460967     1.0050065633    -2.7139170002
   46      H      -7.8242159430    -0.3806849119    -4.0956987251
   47      H      -8.2995986369     2.0621188865    -2.5258420766
   48      H      -8.2398905909     0.4039846704    -1.8408918080
   49      C     -10.0024853701     0.8681489365    -2.9349307371
   50      H     -10.1256082876    -0.1557932438    -3.3098749445
   51      C     -10.6889152255     1.8940562517    -3.8717061820
   52      H     -10.4946571805     0.9120882484    -1.9560802654
   53      H     -10.4102876452     2.8980843441    -3.5313412879
   54      H     -11.7697438629     1.7088997108    -3.9002107768
   55      H     -10.2704292065     1.8634229960    -4.8855331176
   56      C       4.4697035809    -1.6323265248     0.9484474873
   57      C       3.8221264461    -0.7654574774     1.8952224918
   58      N       3.6336593959    -2.1396798869    -0.0008278609
   59      C       2.4408370311    -0.5064424402     1.8117913072
   60      C       2.3522549403    -1.8632242176    -0.1479600601
   61      C       1.6568606925    -1.0614400481     0.8317919420
   62      C       0.1691879744    -1.0781206066     1.0489776752
   63      C      -0.4852094456     0.0740795164     1.4969083543
   64      C      -0.6251352930    -2.2358089810     0.9501132494
   65      N      -1.8002336982     0.1900007068     1.7434757746
   66      N      -0.2644247356    -3.4173589958     0.4599260847
   67      C      -1.9944199224    -2.1709433946     1.2668956025
   68      C      -2.5570892374    -0.8884674487     1.5954145370
   69      S      -1.5159278891    -4.4449440398     0.7622120984
   70      N      -2.6218735334    -3.3161062159     1.0551479258
   71      C      -4.0467182423    -0.7432483683     1.7589469397
   72      S      -5.2704870768    -1.9699596890     1.9115548537
   73      C      -4.6762590680     0.4862482833     1.8415443512
   74      C      -6.6203088299    -0.8407460502     1.8684991599
   75      S      -3.9615894481     2.1283620022     1.8309675506
   76      C      -6.0464000239     0.3909500709     1.8048018478
   77      C      -8.0634476507    -1.1119303435     1.9310964687
   78      C      -5.6764097546     2.6026740734     2.0151804049
   79      C      -6.6745694756     1.6326327799     1.8735927631
   80      N      -8.2784344236    -2.3870418341     2.1968113044
   81      S      -9.4350242267    -0.1782346254     1.3513784319
   82      C      -9.5876865813    -2.6822024719     1.9722562210
   83      C     -10.4051800349    -1.5820774506     1.5794771597
   84      C       5.9303441904    -2.0008378206     1.0519773611
   85      H       4.3126515764    -0.3382111733     2.7651855325
   86      H       2.1183129648     0.1986260497     2.5719917091
   87      H       1.8068220703    -2.3339116428    -0.9645188958
   88      H       0.0706716775     1.0111195763     1.5119117932
   89      H      -5.8899546139     3.6245515202     2.3006117922
   90      H      -7.7360167109     1.8403987808     1.9531355531
   91      H      -9.8749292554    -3.7195422663     2.0848119720
   92      H     -11.4297460825    -1.6938249669     1.2483413767
   93      H       6.5107904203    -1.0738275397     1.1392992559
   94      C       6.4483792214    -2.9163409109    -0.1108776592
   95      H       6.0482483415    -2.6439328258     1.9327147939
   96      H       6.2329464000    -2.4239537325    -1.0668899844
   97      H       5.9833834886    -3.9035240187    -0.2261533303
   98      C       7.9234630732    -3.2432687258     0.1516748761
   99      H       8.5085275622    -2.3909630571    -0.2146318135
  100      C       8.3223703673    -4.5891916051    -0.4765397159
  101      H       8.0225619739    -3.2388588530     1.2443953165
  102      H       7.6934782378    -5.3593350020    -0.0137472812
  103      H       9.3365852958    -4.8930387985    -0.1900681432
  104      C       8.1621698303    -4.6951046025    -2.0125091898
  105      H       8.4193146301    -5.6531649476    -2.4809362676
  106      C       9.1331805767    -3.6715058369    -2.7333834489
  107      H       7.0990624154    -4.5197642197    -2.2167036429
  108      H       8.7654883815    -2.7083275805    -2.3595665204
  109      H       9.0034352600    -3.8426037997    -3.8098288213
  110      H      10.1760265369    -3.8893634700    -2.4705139851
 ----------------------------------------------------------------

   10   -5663.4908236845      4.59E-06 Convergence criterion met
 Total energy in the final basis set = -5663.4908236845

                    Orbital Energies (a.u.)
 --------------------------------------------------------------

 Alpha MOs
 -- Occupied --
-88.988 -88.983 -88.936 -88.935 -88.920 -88.914 -88.908 -88.906
-14.388 -14.383 -14.378 -14.370 -14.355 -14.349 -14.344 -14.339
-14.321 -14.316 -10.273 -10.271 -10.268 -10.263 -10.260 -10.260
-10.249 -10.247 -10.245 -10.241 -10.237 -10.236 -10.235 -10.234
-10.232 -10.231 -10.231 -10.230 -10.230 -10.229 -10.225 -10.224
-10.223 -10.221 -10.219 -10.218 -10.218 -10.217 -10.215 -10.209
-10.208 -10.206 -10.200 -10.198 -10.195 -10.193 -10.191 -10.190
-10.183 -10.181 -10.177 -10.173 -10.173 -10.173 -10.171 -10.170
-10.169 -10.167 -10.165 -10.164  -8.044  -8.039  -7.996  -7.996
 -7.980  -7.972  -7.968  -7.964  -6.009  -6.005  -6.003  -6.001
 -5.999  -5.997  -5.960  -5.960  -5.957  -5.956  -5.953  -5.953
 -5.944  -5.940  -5.937  -5.937  -5.933  -5.933  -5.929  -5.929
 -5.929  -5.926  -5.925  -5.920  -1.049  -1.042  -0.976  -0.970
 -0.962  -0.948  -0.944  -0.926  -0.919  -0.916  -0.911  -0.901
 -0.847  -0.834  -0.829  -0.828  -0.812  -0.808  -0.808  -0.806
 -0.804  -0.801  -0.798  -0.790  -0.782  -0.774  -0.767  -0.760
 -0.752  -0.740  -0.740  -0.734  -0.720  -0.710  -0.708  -0.702
 -0.694  -0.688  -0.679  -0.672  -0.657  -0.649  -0.644  -0.639
 -0.638  -0.630  -0.621  -0.616  -0.616  -0.606  -0.599  -0.597
 -0.592  -0.585  -0.584  -0.582  -0.576  -0.569  -0.556  -0.550
 -0.544  -0.540  -0.539  -0.539  -0.526  -0.521  -0.517  -0.514
 -0.506  -0.504  -0.501  -0.494  -0.485  -0.480  -0.479  -0.476
 -0.471  -0.470  -0.467  -0.465  -0.459  -0.453  -0.448  -0.447
 -0.444  -0.443  -0.440  -0.440  -0.435  -0.434  -0.428  -0.428
 -0.427  -0.423  -0.418  -0.417  -0.416  -0.415  -0.412  -0.411
 -0.408  -0.405  -0.402  -0.400  -0.399  -0.398  -0.397  -0.395
 -0.392  -0.390  -0.389  -0.389  -0.387  -0.387  -0.386  -0.383
 -0.379  -0.376  -0.375  -0.367  -0.364  -0.359  -0.358  -0.355
 -0.353  -0.350  -0.348  -0.347  -0.345  -0.342  -0.341  -0.337
 -0.335  -0.332  -0.330  -0.325  -0.320  -0.318  -0.317  -0.314
 -0.310  -0.308  -0.303  -0.303  -0.301  -0.298  -0.297  -0.297
 -0.297  -0.292  -0.291  -0.290  -0.288  -0.286  -0.281  -0.281
 -0.275  -0.275  -0.269  -0.257  -0.254  -0.248  -0.244  -0.240
 -0.234  -0.230  -0.224  -0.222  -0.196  -0.188

          Ground-State Mulliken Net Atomic Charges

     Atom                 Charge (a.u.)
  ----------------------------------------
      1 C                     0.252427
      2 C                    -0.118268
      3 N                    -0.457150
      4 C                    -0.086448
      5 C                     0.060552
      6 C                     0.043271
      7 C                     0.043135
      8 C                     0.051668
      9 C                     0.240487
     10 N                    -0.517211
     11 N                    -0.562573
     12 C                     0.225728
     13 C                     0.302761
     14 S                     0.590697
     15 N                    -0.566731
     16 C                    -0.215436
     17 S                     0.290758
     18 C                    -0.073250
     19 C                    -0.224658
     20 S                     0.301451
     21 C                     0.123414
     22 C                     0.034487
     23 C                    -0.324858
     24 C                    -0.041532
     25 N                    -0.418819
     26 S                     0.278085
     27 C                     0.137959
     28 C                    -0.314966
     29 C                    -0.220706
     30 H                     0.093223
     31 H                     0.102537
     32 H                     0.130208
     33 H                     0.111028
     34 H                     0.130670
     35 H                     0.127147
     36 H                     0.121834
     37 H                     0.130981
     38 H                     0.089606
     39 C                    -0.168159
     40 H                     0.124765
     41 H                     0.088194
     42 H                     0.110881
     43 C                    -0.178024
     44 H                     0.090618
     45 C                    -0.169690
     46 H                     0.080815
     47 H                     0.084222
     48 H                     0.099557
     49 C                    -0.176176
     50 H                     0.085733
     51 C                    -0.318553
     52 H                     0.087423
     53 H                     0.103675
     54 H                     0.103704
     55 H                     0.102911
     56 C                     0.288062
     57 C                    -0.128145
     58 N                    -0.495107
     59 C                    -0.065544
     60 C                     0.131837
     61 C                    -0.017176
     62 C                     0.040114
     63 C                     0.053739
     64 C                     0.244739
     65 N                    -0.533989
     66 N                    -0.567628
     67 C                     0.215571
     68 C                     0.328757
     69 S                     0.590796
     70 N                    -0.550713
     71 C                    -0.241895
     72 S                     0.335133
     73 C                    -0.099683
     74 C                    -0.219449
     75 S                     0.305650
     76 C                     0.144593
     77 C                     0.041095
     78 C                    -0.302077
     79 C                    -0.087149
     80 N                    -0.405181
     81 S                     0.299789
     82 C                     0.108891
     83 C                    -0.323669
     84 C                    -0.254487
     85 H                     0.081768
     86 H                     0.095065
     87 H                     0.108340
     88 H                     0.097154
     89 H                     0.110648
     90 H                     0.109330
     91 H                     0.113966
     92 H                     0.138282
     93 H                     0.138088
     94 C                    -0.172452
     95 H                     0.118073
     96 H                     0.119612
     97 H                     0.101924
     98 C                    -0.181186
     99 H                     0.099349
    100 C                    -0.185956
    101 H                     0.085269
    102 H                     0.087313
    103 H                     0.080732
    104 C                    -0.183612
    105 H                     0.088120
    106 C                    -0.323326
    107 H                     0.100946
    108 H                     0.113378
    109 H                     0.095096
    110 H                     0.103801
  ----------------------------------------
  Sum of atomic charges =     0.000000

                    Cartesian Multipole Moments
 -----------------------------------------------------------------
    Charge (ESU x 10^10)
                 0.0000
    Dipole Moment (Debye)
         X       1.0204      Y       1.1460      Z       0.6332
       Tot       1.6599
    Quadrupole Moments (Debye-Ang)
        XX    -379.0661     XY      15.1532     YY    -437.8820
        XZ      19.9524     YZ      13.6766     ZZ    -442.5263

 Total job time:  115.45s(wall), 1391.73s(cpu)
        *  Thank you very much for using Q-Chem.  Have a nice day.  *
