 Q-Chem 4.4, Q-Chem, Inc., Pleasanton, CA (2016)
 Q-Chem 4.4.2 for Intel X86 Linux

User input:
--------------------------------------------------------------
$comment
SP
$end

$rem
MEM_STATIC 5000
MEM_TOTAL 20000
JOBTYPE SP
EXCHANGE B3LYP
BASIS 6-31g(d,p)
$end

$molecule
0 1
C          -2.058000     19.214000     -3.061000
C          -2.587000     20.502000     -3.236000
N          -0.786000     18.908000     -3.394000
C          -1.683000     21.511000     -3.677000
C           0.038000     19.849000     -3.867000
C          -0.334000     21.181000     -4.028000
C           0.620000     22.280000     -4.398000
C           0.229000     23.453000     -5.145000
C           2.015000     22.260000     -4.180000
N           0.997000     24.547000     -5.273000
N           2.666000     21.267000     -3.555000
C           2.833000     23.344000     -4.452000
C           2.330000     24.532000     -5.051000
S           4.238000     21.628000     -3.613000
N           4.160000     23.131000     -4.186000
C           3.020000     25.840000     -5.145000
S           2.578000     27.171000     -6.245000
C           3.799000     26.321000     -4.124000
C           3.706000     28.301000     -5.430000
S           4.034000     25.611000     -2.573000
C           4.151000     27.600000     -4.278000
C           3.888000     29.712000     -5.726000
C           4.792000     27.169000     -2.096000
C           4.708000     28.120000     -3.057000
N           2.903000     30.234000     -6.401000
S           5.246000     30.625000     -5.387000
C           3.241000     31.564000     -6.697000
C           4.530000     31.863000     -6.400000
C          -2.937000     18.088000     -2.494000
H          -3.595000     20.770000     -2.932000
H          -1.964000     22.550000     -3.823000
H           1.003000     19.496000     -4.226000
H          -0.823000     23.590000     -5.393000
H           5.204000     27.239000     -1.098000
H           5.030000     29.141000     -2.883000
H           2.482000     32.156000     -7.191000
H           5.097000     32.753000     -6.639000
H          -3.460000     18.636000     -1.701000
C          -2.183000     16.865000     -1.850000
H          -3.774000     17.733000     -3.108000
H          -1.325000     17.176000     -1.241000
H          -1.771000     16.290000     -2.689000
C          -3.197000     15.944000     -1.161000
H          -3.811000     16.536000     -0.471000
C          -2.665000     14.630000     -0.485000
H          -3.899000     15.621000     -1.940000
H          -3.482000     14.400000      0.210000
H          -1.787000     14.843000      0.139000
C          -2.401000     13.526000     -1.505000
H          -3.409000     13.178000     -1.763000
C          -1.645000     12.381000     -0.791000
H          -1.947000     13.972000     -2.398000
H          -2.314000     11.909000     -0.061000
H          -0.711000     12.777000     -0.374000
H          -1.481000     11.634000     -1.578000
C           7.868000     20.591000     -3.209000
C           8.505000     21.313000     -2.172000
N           6.796000     19.814000     -3.171000
C           7.974000     20.987000     -0.907000
C           6.283000     19.643000     -1.939000
C           6.805000     20.185000     -0.741000
C           6.168000     19.899000      0.610000
C           4.785000     19.779000      0.633000
C           6.806000     19.528000      1.804000
N           4.009000     19.424000      1.756000
N           8.133000     19.544000      1.879000
C           6.067000     19.115000      2.950000
C           4.668000     19.121000      2.934000
S           8.376000     19.060000      3.393000
N           6.872000     18.667000      3.886000
C           3.873000     18.704000      4.114000
S           4.420000     17.917000      5.562000
C           2.538000     18.940000      4.247000
C           2.788000     17.584000      6.139000
S           1.467000     20.075000      3.444000
C           1.961000     18.357000      5.391000
C           2.369000     16.962000      7.378000
C           0.134000     19.647000      4.550000
C           0.559000     18.719000      5.516000
N           1.164000     17.194000      7.842000
S           3.507000     15.887000      8.154000
C           1.153000     16.607000      9.141000
C           2.317000     15.822000      9.417000
C           8.378000     20.865000     -4.615000
H           9.356000     21.961000     -2.359000
H           8.509000     21.359000     -0.039000
H           5.345000     19.099000     -1.847000
H           4.155000     19.983000     -0.231000
H          -0.880000     20.010000      4.443000
H          -0.137000     18.350000      6.262000
H           0.256000     16.639000      9.746000
H           2.503000     15.256000     10.321000
H           7.587000     20.824000     -5.374000
C           9.407000     19.785000     -4.998000
H           8.800000     21.873000     -4.715000
H           8.932000     18.797000     -4.943000
H          10.243000     19.863000     -4.293000
C          10.098000     19.989000     -6.344000
H           9.954000     21.015000     -6.705000
C           9.573000     19.033000     -7.411000
H          11.169000     19.766000     -6.267000
H           8.495000     19.174000     -7.561000
H           9.675000     18.014000     -7.017000
C          10.380000     19.109000     -8.762000
H          10.484000     20.088000     -9.246000
C           9.934000     18.170000     -9.906000
H          11.420000     18.833000     -8.547000
H          10.373000     18.346000    -10.895000
H           8.852000     18.342000     -9.961000
H          10.063000     17.132000     -9.574000
$end

--------------------------------------------------------------

             Standard Nuclear Orientation (Angstroms)
    I     Atom           X                Y                Z
 ----------------------------------------------------------------
    1      C      -0.8335937049     5.7991656284    -2.1053982521
    2      C       0.0445074018     6.4007008587    -1.1907924282
    3      N      -0.5651427901     4.6090048643    -2.6832913753
    4      C       1.1877059778     5.6420545704    -0.8069554508
    5      C       0.5430763807     3.9325230402    -2.3632779205
    6      C       1.4672381903     4.3792091308    -1.4225731389
    7      C       2.6258332503     3.5607882839    -0.9299659890
    8      C       3.8738850119     4.1374347917    -0.4864971564
    9      C       2.6974757861     2.1506500508    -0.9480355909
   10      N       4.8184504063     3.4524570151     0.1780671078
   11      N       1.7025967099     1.3506830162    -1.3612466353
   12      C       3.7502499712     1.4451829783    -0.3893346648
   13      C       4.8795243521     2.1024052289     0.1727616668
   14      S       2.2575910163    -0.1630934913    -1.2882329024
   15      N       3.6484103817     0.0847239461    -0.5151675684
   16      C       5.9253094703     1.4950545616     1.0290669006
   17      S       7.5274773535     2.1982861393     1.3688439186
   18      C       5.6254483815     0.5460737072     1.9725506924
   19      C       7.8649417251     0.9733679738     2.6334396192
   20      S       4.0611405495    -0.0213958900     2.4150947729
   21      C       6.6370248044     0.2805520258     2.8030158496
   22      C       9.0374565165     0.9076965678     3.4893352498
   23      C       4.8621933057    -0.8002416958     3.8226354269
   24      C       6.1764873013    -0.4896700646     3.9282505538
   25      N       9.7024258745     2.0268994723     3.5487878495
   26      S       9.6236940833    -0.4552533673     4.2583261402
   27      C      10.8493838860     1.8054460982     4.3273799910
   28      C      11.0528773547     0.4952963998     4.6123873173
   29      C      -2.1416279685     6.5036889091    -2.4987165866
   30      H      -0.1810626191     7.3367760483    -0.6876171058
   31      H       1.9252139927     5.9855929420    -0.0873296347
   32      H       0.7459761774     3.0463536348    -2.9618181926
   33      H       3.9611035776     5.2221929236    -0.4348278503
   34      H       4.2459926335    -1.4008229651     4.4785674894
   35      H       6.7727151728    -0.8012424117     4.7790360719
   36      H      11.4666551135     2.6697838567     4.5334806242
   37      H      11.9103955172     0.0216344802     5.0717531702
   38      H      -2.4586950990     6.8775736947    -1.5177167895
   39      C      -3.2827967447     5.5904015714    -3.0840550042
   40      H      -2.0690512710     7.4326966175    -3.0777392983
   41      H      -3.3767777366     4.6401760097    -2.5436801758
   42      H      -2.9690427193     5.3333811765    -4.1037554152
   43      C      -4.5702677224     6.4103926274    -3.2296268067
   44      H      -4.7987597769     6.8956552861    -2.2726150339
   45      C      -5.8335039063     5.7046049484    -3.8401135761
   46      H      -4.3316269622     7.2414848929    -3.9051341966
   47      H      -6.6388934163     6.3565963960    -3.4800179088
   48      H      -5.9990951116     4.7280980359    -3.3661485960
   49      C      -5.7585077874     5.6087708765    -5.3613313163
   50      H      -5.9733641047     6.6341585177    -5.6871363932
   51      C      -6.8998264159     4.6824492454    -5.8426597115
   52      H      -4.7299556464     5.3599634229    -5.6488314804
   53      H      -7.8632189515     5.1734077435    -5.6580531694
   54      H      -6.7835839381     3.6994767619    -5.3700988338
   55      H      -6.7803954626     4.6513218030    -6.9330914287
   56      C       1.9200450080    -3.8369451676    -2.1850949614
   57      C       1.7410591249    -4.6410185819    -1.0345072863
   58      N       1.1955873357    -2.8243640504    -2.6369772050
   59      C       0.5037147866    -4.3867999480    -0.4077586330
   60      C       0.0870511037    -2.5753114659    -1.9163148483
   61      C      -0.3483254025    -3.3058319263    -0.7857224573
   62      C      -1.6414215049    -2.9635518637    -0.0621805935
   63      C      -1.9798474369    -1.6187080079     0.0047588741
   64      C      -2.6505259471    -3.8412796929     0.3639920037
   65      N      -3.1747185612    -1.0972867100     0.5430272333
   66      N      -2.4620643556    -5.1548484411     0.2876416778
   67      C      -3.8937487817    -3.3628761475     0.8694947548
   68      C      -4.1238906902    -1.9898042577     1.0080634647
   69      S      -3.8499475631    -5.7142144062     0.8761915221
   70      N      -4.7340125884    -4.3553349104     1.0533624765
   71      C      -5.4045887299    -1.4635359332     1.5383164060
   72      S      -6.8886321697    -2.3187351925     1.8238532609
   73      C      -5.5827172506    -0.1742842786     1.9404487243
   74      C      -7.8177642328    -0.8491009160     2.1139061919
   75      S      -4.4378010373     1.0778735661     2.3891608774
   76      C      -6.9071722795     0.1395062396     2.2994868657
   77      C      -9.2098642436    -0.7104914676     2.4886207244
   78      C      -5.7657798099     2.1452565776     2.9187596747
   79      C      -7.0087900190     1.5007073401     2.7985644137
   80      N      -9.6113298307     0.3850485058     3.0884228161
   81      S     -10.2839020672    -2.0205725406     2.0608645608
   82      C     -10.9529967080     0.1135243044     3.4862866098
   83      C     -11.4648967492    -1.1109366546     2.9515430190
   84      C       3.2234482685    -4.0443283185    -2.9401738775
   85      H       2.4519634439    -5.4122639848    -0.7536700064
   86      H       0.2022810407    -5.0703721844     0.3795784577
   87      H      -0.5012250807    -1.6959429071    -2.1710422882
   88      H      -1.3213763372    -0.8212009724    -0.3349620982
   89      H      -5.6278457206     3.1731000997     3.2284787103
   90      H      -7.9213439421     2.0187805885     3.0741337273
   91      H     -11.5348833078     0.8717449859     3.9943883546
   92      H     -12.4675531413    -1.4954283952     3.0894352258
   93      H       3.6161461732    -3.1194707363    -3.3804803712
   94      C       2.9798338925    -5.0157741513    -4.1101632064
   95      H       4.0303694999    -4.3994189436    -2.2867698874
   96      H       2.2097913557    -4.5990291765    -4.7720938052
   97      H       2.6589754842    -5.9724770626    -3.6814740167
   98      C       4.2251160871    -5.4150157738    -4.8980028999
   99      H       5.1364042835    -5.1630350621    -4.3414127958
  100      C       4.2928345243    -4.7234115316    -6.2563650701
  101      H       4.2108265988    -6.4873735879    -5.1272266533
  102      H       4.3059869867    -3.6326744453    -6.1355982644
  103      H       3.3544605578    -4.9406184250    -6.7819851463
  104      C       5.4784745777    -5.2400462673    -7.1561273796
  105      H       6.4931161899    -5.2080011752    -6.7402085044
  106      C       5.6278526707    -4.6097221653    -8.5596054563
  107      H       5.3225313713    -6.3116911128    -7.3329324739
  108      H       6.5478440703    -4.8348043204    -9.1116669094
  109      H       5.5906691428    -3.5329250669    -8.3535511086
  110      H       4.7274207891    -4.8416625689    -9.1424734309
 ----------------------------------------------------------------

   10   -5663.4797870049      4.75E-06 Convergence criterion met
 Total energy in the final basis set = -5663.4797870049

                    Orbital Energies (a.u.)
 --------------------------------------------------------------

 Alpha MOs
 -- Occupied --
-88.987 -88.980 -88.933 -88.929 -88.925 -88.920 -88.905 -88.903
-14.390 -14.387 -14.374 -14.367 -14.355 -14.353 -14.340 -14.339
-14.336 -14.322 -10.272 -10.267 -10.262 -10.258 -10.257 -10.255
-10.246 -10.246 -10.242 -10.240 -10.240 -10.238 -10.237 -10.236
-10.235 -10.233 -10.233 -10.232 -10.230 -10.229 -10.228 -10.227
-10.226 -10.224 -10.224 -10.224 -10.223 -10.218 -10.218 -10.216
-10.213 -10.212 -10.208 -10.204 -10.202 -10.201 -10.200 -10.194
-10.185 -10.181 -10.178 -10.178 -10.176 -10.174 -10.172 -10.171
-10.169 -10.169 -10.168 -10.168  -8.044  -8.035  -7.994  -7.992
 -7.985  -7.978  -7.964  -7.964  -6.009  -6.003  -6.001  -6.000
 -5.994  -5.993  -5.958  -5.956  -5.955  -5.952  -5.951  -5.949
 -5.949  -5.945  -5.942  -5.941  -5.939  -5.935  -5.929  -5.929
 -5.925  -5.925  -5.921  -5.920  -1.057  -1.036  -0.975  -0.969
 -0.953  -0.948  -0.943  -0.933  -0.926  -0.914  -0.913  -0.895
 -0.839  -0.838  -0.834  -0.822  -0.816  -0.813  -0.809  -0.804
 -0.802  -0.799  -0.797  -0.790  -0.785  -0.780  -0.767  -0.762
 -0.748  -0.747  -0.739  -0.733  -0.722  -0.722  -0.709  -0.703
 -0.693  -0.688  -0.673  -0.666  -0.653  -0.651  -0.649  -0.638
 -0.635  -0.631  -0.627  -0.623  -0.606  -0.603  -0.599  -0.596
 -0.596  -0.589  -0.581  -0.579  -0.578  -0.572  -0.568  -0.557
 -0.550  -0.542  -0.541  -0.537  -0.525  -0.521  -0.516  -0.513
 -0.506  -0.502  -0.500  -0.497  -0.494  -0.481  -0.477  -0.475
 -0.472  -0.471  -0.465  -0.464  -0.461  -0.457  -0.450  -0.449
 -0.445  -0.443  -0.439  -0.438  -0.437  -0.434  -0.430  -0.427
 -0.426  -0.424  -0.422  -0.415  -0.415  -0.415  -0.413  -0.412
 -0.411  -0.410  -0.407  -0.404  -0.400  -0.398  -0.393  -0.392
 -0.390  -0.388  -0.388  -0.387  -0.387  -0.384  -0.383  -0.381
 -0.379  -0.375  -0.367  -0.365  -0.363  -0.362  -0.357  -0.357
 -0.355  -0.351  -0.349  -0.347  -0.341  -0.338  -0.337  -0.336
 -0.335  -0.333  -0.332  -0.331  -0.326  -0.324  -0.322  -0.317
 -0.314  -0.312  -0.308  -0.306  -0.303  -0.302  -0.299  -0.294
 -0.294  -0.292  -0.290  -0.289  -0.288  -0.286  -0.282  -0.280
 -0.276  -0.270  -0.267  -0.264  -0.261  -0.253  -0.247  -0.244
 -0.243  -0.240  -0.235  -0.227  -0.195  -0.191

          Ground-State Mulliken Net Atomic Charges

     Atom                 Charge (a.u.)
  ----------------------------------------
      1 C                     0.276503
      2 C                    -0.114808
      3 N                    -0.489237
      4 C                    -0.090430
      5 C                     0.095148
      6 C                     0.054776
      7 C                     0.033401
      8 C                     0.035966
      9 C                     0.218959
     10 N                    -0.457126
     11 N                    -0.561264
     12 C                     0.154109
     13 C                     0.240029
     14 S                     0.640027
     15 N                    -0.535400
     16 C                    -0.207304
     17 S                     0.344553
     18 C                    -0.103141
     19 C                    -0.204876
     20 S                     0.262574
     21 C                     0.115742
     22 C                     0.066464
     23 C                    -0.300931
     24 C                    -0.071083
     25 N                    -0.424820
     26 S                     0.278514
     27 C                     0.120031
     28 C                    -0.309264
     29 C                    -0.241756
     30 H                     0.093713
     31 H                     0.098020
     32 H                     0.116823
     33 H                     0.103627
     34 H                     0.124746
     35 H                     0.106268
     36 H                     0.118248
     37 H                     0.131571
     38 H                     0.101673
     39 C                    -0.159844
     40 H                     0.114705
     41 H                     0.106168
     42 H                     0.108844
     43 C                    -0.193210
     44 H                     0.079533
     45 C                    -0.170501
     46 H                     0.082928
     47 H                     0.087701
     48 H                     0.089154
     49 C                    -0.179435
     50 H                     0.093520
     51 C                    -0.313468
     52 H                     0.102092
     53 H                     0.106437
     54 H                     0.109672
     55 H                     0.097232
     56 C                     0.267794
     57 C                    -0.095299
     58 N                    -0.471434
     59 C                    -0.091545
     60 C                     0.061298
     61 C                     0.054892
     62 C                     0.061537
     63 C                     0.020636
     64 C                     0.189430
     65 N                    -0.522270
     66 N                    -0.530129
     67 C                     0.249589
     68 C                     0.295492
     69 S                     0.587431
     70 N                    -0.557973
     71 C                    -0.219783
     72 S                     0.320869
     73 C                    -0.103973
     74 C                    -0.249133
     75 S                     0.274358
     76 C                     0.133789
     77 C                     0.099697
     78 C                    -0.312290
     79 C                    -0.045550
     80 N                    -0.444008
     81 S                     0.288235
     82 C                     0.104047
     83 C                    -0.305963
     84 C                    -0.234884
     85 H                     0.110419
     86 H                     0.108099
     87 H                     0.102528
     88 H                     0.127220
     89 H                     0.132657
     90 H                     0.129560
     91 H                     0.119075
     92 H                     0.130721
     93 H                     0.113119
     94 C                    -0.177413
     95 H                     0.095596
     96 H                     0.111935
     97 H                     0.088564
     98 C                    -0.175191
     99 H                     0.093760
    100 C                    -0.177608
    101 H                     0.091509
    102 H                     0.093538
    103 H                     0.094100
    104 C                    -0.183829
    105 H                     0.091707
    106 C                    -0.320456
    107 H                     0.088977
    108 H                     0.102572
    109 H                     0.101824
    110 H                     0.100585
  ----------------------------------------
  Sum of atomic charges =     0.000000

                    Cartesian Multipole Moments
 -----------------------------------------------------------------
    Charge (ESU x 10^10)
                 0.0000
    Dipole Moment (Debye)
         X      -1.6048      Y      -3.0355      Z       3.9902
       Tot       5.2642
    Quadrupole Moments (Debye-Ang)
        XX    -383.9568     XY     -15.2986     YY    -412.3447
        XZ       7.5514     YZ      -5.5385     ZZ    -439.0098

 Total job time:  88.21s(wall), 1029.54s(cpu)
        *  Thank you very much for using Q-Chem.  Have a nice day.  *
