 Q-Chem 4.4, Q-Chem, Inc., Pleasanton, CA (2016)
 Q-Chem 4.4.2 for Intel X86 Linux

User input:
--------------------------------------------------------------
$comment
SP
$end

$rem
MEM_STATIC 5000
MEM_TOTAL 20000
JOBTYPE SP
EXCHANGE B3LYP
BASIS 6-31g(d,p)
$end

$molecule
0 1
C          14.797000     19.737000     15.106000
C          13.550000     20.192000     14.737000
N          15.827000     19.583000     14.242000
C          13.196000     20.298000     13.342000
C          15.517000     19.770000     12.917000
C          14.204000     19.946000     12.422000
C          13.881000     19.999000     10.958000
C          12.660000     19.451000     10.467000
C          14.756000     20.575000      9.991000
N          12.414000     19.309000      9.210000
N          15.794000     21.416000     10.216000
C          14.463000     20.424000      8.646000
C          13.276000     19.761000      8.266000
S          16.277000     22.016000      8.808000
N          15.282000     21.227000      7.896000
C          12.842000     19.701000      6.873000
S          13.502000     20.457000      5.416000
C          11.930000     18.730000      6.468000
C          12.542000     19.392000      4.329000
S          11.290000     17.447000      7.406000
C          11.725000     18.595000      5.084000
C          12.620000     19.383000      2.828000
C          10.524000     16.757000      5.901000
C          10.860000     17.467000      4.759000
N          11.477000     19.537000      2.166000
S          14.092000     19.321000      1.930000
C          11.727000     19.591000      0.841000
C          13.057000     19.584000      0.507000
C          15.154000     19.424000     16.547000
H          12.798000     20.334000     15.508000
H          12.168000     20.429000     13.019000
H          16.298000     19.437000     12.235000
H          11.902000     19.022000     11.121000
H           9.876000     15.892000      5.955000
H          10.588000     17.164000      3.755000
H          10.909000     19.647000      0.134000
H          13.554000     19.584000     -0.454000
H          15.685000     20.257000     17.023000
C          15.951000     18.110000     16.745000
H          14.167000     19.246000     16.991000
H          16.920000     18.383000     16.307000
H          15.589000     17.309000     16.089000
C          16.037000     17.490000     18.183000
H          16.096000     18.306000     18.913000
C          17.279000     16.611000     18.249000
H          15.059000     17.037000     18.386000
H          18.169000     17.159000     17.918000
H          17.106000     15.770000     17.566000
C          17.432000     15.970000     19.659000
H          17.634000     16.811000     20.333000
C          18.601000     14.960000     19.775000
H          16.496000     15.509000     19.998000
H          18.545000     14.097000     19.100000
H          18.570000     14.578000     20.803000
H          19.582000     15.447000     19.717000
C           7.868000     20.591000     -3.209000
C           8.505000     21.313000     -2.172000
N           6.796000     19.814000     -3.171000
C           7.974000     20.987000     -0.907000
C           6.283000     19.643000     -1.939000
C           6.805000     20.185000     -0.741000
C           6.168000     19.899000      0.610000
C           4.785000     19.779000      0.633000
C           6.806000     19.528000      1.804000
N           4.009000     19.424000      1.756000
N           8.133000     19.544000      1.879000
C           6.067000     19.115000      2.950000
C           4.668000     19.121000      2.934000
S           8.376000     19.060000      3.393000
N           6.872000     18.667000      3.886000
C           3.873000     18.704000      4.114000
S           4.420000     17.917000      5.562000
C           2.538000     18.940000      4.247000
C           2.788000     17.584000      6.139000
S           1.467000     20.075000      3.444000
C           1.961000     18.357000      5.391000
C           2.369000     16.962000      7.378000
C           0.134000     19.647000      4.550000
C           0.559000     18.719000      5.516000
N           1.164000     17.194000      7.842000
S           3.507000     15.887000      8.154000
C           1.153000     16.607000      9.141000
C           2.317000     15.822000      9.417000
C           8.378000     20.865000     -4.615000
H           9.356000     21.961000     -2.359000
H           8.509000     21.359000     -0.039000
H           5.345000     19.099000     -1.847000
H           4.155000     19.983000     -0.231000
H          -0.880000     20.010000      4.443000
H          -0.137000     18.350000      6.262000
H           0.256000     16.639000      9.746000
H           2.503000     15.256000     10.321000
H           7.587000     20.824000     -5.374000
C           9.407000     19.785000     -4.998000
H           8.800000     21.873000     -4.715000
H           8.932000     18.797000     -4.943000
H          10.243000     19.863000     -4.293000
C          10.098000     19.989000     -6.344000
H           9.954000     21.015000     -6.705000
C           9.573000     19.033000     -7.411000
H          11.169000     19.766000     -6.267000
H           8.495000     19.174000     -7.561000
H           9.675000     18.014000     -7.017000
C          10.380000     19.109000     -8.762000
H          10.484000     20.088000     -9.246000
C           9.934000     18.170000     -9.906000
H          11.420000     18.833000     -8.547000
H          10.373000     18.346000    -10.895000
H           8.852000     18.342000     -9.961000
H          10.063000     17.132000     -9.574000
$end

--------------------------------------------------------------

             Standard Nuclear Orientation (Angstroms)
    I     Atom           X                Y                Z
 ----------------------------------------------------------------
    1      C      10.7700777211    -0.2358309917    -1.1694144360
    2      C       9.8436095032     0.6086515036    -1.7409920390
    3      N      10.4913740499    -1.4989308737    -0.7719034904
    4      C       8.4405467828     0.2715532799    -1.7221031445
    5      C       9.1669126426    -1.8573758841    -0.8352529585
    6      C       8.1112449668    -0.9624084682    -1.1260605971
    7      C       6.6640014212    -1.3483077611    -1.0423835068
    8      C       5.6880393841    -0.4037074514    -0.6094235121
    9      C       6.1885002449    -2.6515461662    -1.3709535766
   10      N       4.4686374657    -0.7292215368    -0.3489843794
   11      N       6.8306870788    -3.6077055833    -2.0841893297
   12      C       4.8698583048    -2.9739560842    -1.0972561549
   13      C       4.0131688703    -1.9887459745    -0.5602438157
   14      S       5.7820043557    -4.7707100651    -2.4355269473
   15      N       4.5497852508    -4.1707228326    -1.6832361801
   16      C       2.5823916144    -2.2255066665    -0.3892882113
   17      S       1.5653635558    -3.5931252037    -0.8639022280
   18      C       1.8455271139    -1.4376136659     0.4909761397
   19      C       0.2073733361    -3.0536351009     0.1859582353
   20      S       2.4371708525    -0.2277574998     1.5500978249
   21      C       0.5325201363    -1.8574309639     0.7656980227
   22      C      -1.0835083490    -3.7961290287     0.3896571360
   23      C       0.7822613223    -0.1127240575     2.3089935714
   24      C      -0.1045116805    -1.0468173077     1.7968769425
   25      N      -2.2069117461    -3.1212255189     0.1640932652
   26      S      -1.1912705130    -5.4776526083     0.7610030222
   27      C      -3.2651694273    -3.9461648646     0.3076438005
   28      C      -2.9426010045    -5.2592276600     0.5363810034
   29      C      12.2247790820     0.1560483999    -0.9900447256
   30      H      10.1697173183     1.5887197400    -2.0774871281
   31      H       7.6714306711     1.0025300630    -1.9510296597
   32      H       8.9418088170    -2.7888917138    -0.3179710947
   33      H       5.9342595122     0.6301532296    -0.3710357171
   34      H       0.5690505992     0.6320107394     3.0646100547
   35      H      -1.1047915159    -1.2071236346     2.1810007927
   36      H      -4.2729172665    -3.5585666148     0.2281397788
   37      H      -3.5617289525    -6.1268588362     0.7219254078
   38      H      12.8538786056    -0.2419898857    -1.7951691337
   39      C      12.8307138730    -0.2193449939     0.3857938656
   40      H      12.1673297721     1.2512653299    -1.0037725452
   41      H      12.8807223096    -1.3129487810     0.3029451292
   42      H      12.1194222996    -0.0559213617     1.2045355916
   43      C      14.1710927531     0.4627650637     0.8304851374
   44      H      14.8064277284     0.5951646452    -0.0532890532
   45      C      14.8468444732    -0.4386058451     1.8554003035
   46      H      13.9173799504     1.4903442187     1.1179097256
   47      H      14.9420961122    -1.4636468224     1.4783285331
   48      H      14.2012914469    -0.4456472841     2.7424801806
   49      C      16.1945438695     0.1759862813     2.3332840293
   50      H      16.8456044771     0.1535967547     1.4512524005
   51      C      16.8866673874    -0.6157653081     3.4709181781
   52      H      16.0809867470     1.2294626316     2.6175908341
   53      H      16.3035399729    -0.7176946710     4.3945538333
   54      H      17.7991045955    -0.0580593000     3.7160535481
   55      H      17.2684442500    -1.5867103761     3.1326784669
   56      C      -8.6853711142    -2.5698427076    -0.7030648589
   57      C      -7.5057567741    -2.7883756824    -1.4535149556
   58      N      -9.1137002151    -1.4768577705    -0.0896521849
   59      C      -6.6184944157    -1.6963232624    -1.3605148513
   60      C      -8.2544246962    -0.4428928568    -0.1425307234
   61      C      -6.9775085626    -0.4563868706    -0.7514273480
   62      C      -6.0652591353     0.7600599725    -0.7227208972
   63      C      -6.6816296533     2.0019892053    -0.7956397919
   64      C      -4.6958368298     0.8050978346    -0.4178026459
   65      N      -6.0323921402     3.2496527427    -0.6900161717
   66      N      -4.0139947066    -0.3252634027    -0.2622880413
   67      C      -4.0063958325     2.0410191463    -0.2529523425
   68      C      -4.6705094929     3.2570545174    -0.4471275783
   69      S      -2.5397721884     0.2295621462     0.0607252359
   70      N      -2.7840443701     1.8373953389     0.1820410454
   71      C      -3.9768193199     4.5580006311    -0.2901334599
   72      S      -2.4057968122     4.8707836652     0.3801926203
   73      C      -4.4900571006     5.7443433877    -0.7200030265
   74      C      -2.6379912788     6.6178181721     0.4148070865
   75      S      -5.7500433730     6.1188500721    -1.8828677378
   76      C      -3.7193004703     6.8677295036    -0.3657547359
   77      C      -1.7080387761     7.6526217317     0.8172197303
   78      C      -5.3711358358     7.8592459170    -1.7791354799
   79      C      -4.2765482968     8.0867677251    -0.9276209785
   80      N      -1.8679764361     8.8749406976     0.3683307789
   81      S      -0.4435892036     7.1966884865     1.9335248653
   82      C      -0.6971029463     9.5735030470     0.7844520532
   83      C       0.1238129654     8.8182817554     1.6805741803
   84      C      -9.7046874348    -3.6977850501    -0.7304931361
   85      H      -7.3058787459    -3.7321773106    -1.9518735218
   86      H      -5.6195481923    -1.8396414243    -1.7600137212
   87      H      -8.5835292486     0.5158347324     0.2534182675
   88      H      -7.7477627276     2.1281378602    -0.9758030090
   89      H      -5.9534317086     8.6340988449    -2.2607457545
   90      H      -3.9229404050     9.0971575632    -0.7510796690
   91      H      -0.5800652131    10.6252224902     0.5567540476
   92      H       1.0358544219     9.1628715106     2.1513249446
   93      H     -10.7414059712    -3.3400331764    -0.7045841960
   94      C      -9.5156728715    -4.5792860531     0.5181699396
   95      H      -9.6437186203    -4.2908023463    -1.6517755522
   96      H      -9.6419774429    -3.9636937906     1.4181073383
   97      H      -8.5075246803    -5.0072912996     0.4686347644
   98      C     -10.3946351283    -5.8262023518     0.5768052117
   99      H     -10.8281787956    -6.0446044589    -0.4071020035
  100      C     -11.5379609904    -5.6777099979     1.5762080304
  101      H      -9.8188686028    -6.6892629385     0.9322181148
  102      H     -12.1777533684    -4.8268558213     1.3094161956
  103      H     -11.0950591939    -5.4089350949     2.5434717225
  104      C     -12.3615630703    -7.0057017431     1.7770650405
  105      H     -12.7865503369    -7.4881848063     0.8881843304
  106      C     -13.5370878026    -6.9640275000     2.7799498102
  107      H     -11.6756940128    -7.7701031822     2.1634263688
  108      H     -14.2160443894    -7.8247079200     2.7880224676
  109      H     -14.0961494803    -6.0723941743     2.4704775933
  110      H     -13.1356040016    -6.7434285729     3.7771738928
 ----------------------------------------------------------------

    9   -5663.5005879643      6.77E-06 Convergence criterion met
 Total energy in the final basis set = -5663.5005879643

                    Orbital Energies (a.u.)
 --------------------------------------------------------------

 Alpha MOs
 -- Occupied --
-88.998 -88.977 -88.938 -88.930 -88.928 -88.921 -88.908 -88.902
-14.379 -14.379 -14.378 -14.372 -14.353 -14.350 -14.349 -14.348
-14.334 -14.332 -10.279 -10.269 -10.265 -10.261 -10.253 -10.252
-10.250 -10.248 -10.248 -10.240 -10.239 -10.239 -10.237 -10.236
-10.235 -10.234 -10.234 -10.231 -10.229 -10.229 -10.229 -10.229
-10.228 -10.227 -10.226 -10.222 -10.221 -10.221 -10.220 -10.218
-10.217 -10.214 -10.213 -10.207 -10.205 -10.202 -10.200 -10.191
-10.183 -10.180 -10.179 -10.179 -10.178 -10.178 -10.177 -10.176
-10.175 -10.173 -10.171 -10.170  -8.054  -8.032  -7.999  -7.991
 -7.986  -7.981  -7.968  -7.961  -6.019  -6.013  -6.012  -5.997
 -5.992  -5.990  -5.963  -5.960  -5.957  -5.955  -5.952  -5.951
 -5.948  -5.947  -5.945  -5.943  -5.941  -5.937  -5.932  -5.929
 -5.926  -5.924  -5.922  -5.917  -1.050  -1.047  -0.981  -0.972
 -0.966  -0.949  -0.937  -0.933  -0.917  -0.912  -0.908  -0.896
 -0.839  -0.835  -0.834  -0.828  -0.819  -0.813  -0.813  -0.808
 -0.801  -0.798  -0.797  -0.796  -0.783  -0.782  -0.766  -0.765
 -0.750  -0.745  -0.740  -0.730  -0.723  -0.718  -0.713  -0.708
 -0.694  -0.689  -0.679  -0.666  -0.653  -0.649  -0.647  -0.645
 -0.637  -0.631  -0.628  -0.627  -0.609  -0.603  -0.597  -0.593
 -0.592  -0.589  -0.580  -0.579  -0.575  -0.573  -0.571  -0.569
 -0.553  -0.548  -0.545  -0.535  -0.525  -0.521  -0.519  -0.508
 -0.507  -0.504  -0.502  -0.496  -0.490  -0.486  -0.480  -0.475
 -0.475  -0.473  -0.472  -0.468  -0.462  -0.461  -0.455  -0.448
 -0.445  -0.442  -0.441  -0.435  -0.435  -0.433  -0.431  -0.427
 -0.425  -0.423  -0.422  -0.420  -0.418  -0.416  -0.414  -0.414
 -0.412  -0.410  -0.410  -0.407  -0.406  -0.403  -0.400  -0.399
 -0.396  -0.394  -0.389  -0.387  -0.385  -0.385  -0.383  -0.382
 -0.377  -0.374  -0.368  -0.365  -0.362  -0.361  -0.356  -0.354
 -0.353  -0.353  -0.347  -0.346  -0.343  -0.340  -0.337  -0.336
 -0.334  -0.333  -0.328  -0.327  -0.327  -0.325  -0.319  -0.316
 -0.315  -0.313  -0.313  -0.305  -0.304  -0.304  -0.301  -0.300
 -0.298  -0.298  -0.296  -0.294  -0.290  -0.284  -0.284  -0.281
 -0.275  -0.271  -0.266  -0.265  -0.262  -0.258  -0.257  -0.246
 -0.244  -0.241  -0.234  -0.231  -0.199  -0.192

          Ground-State Mulliken Net Atomic Charges

     Atom                 Charge (a.u.)
  ----------------------------------------
      1 C                     0.280854
      2 C                    -0.119670
      3 N                    -0.478217
      4 C                    -0.083792
      5 C                     0.083977
      6 C                     0.043561
      7 C                     0.003073
      8 C                     0.072661
      9 C                     0.219444
     10 N                    -0.492557
     11 N                    -0.556779
     12 C                     0.190293
     13 C                     0.265176
     14 S                     0.631353
     15 N                    -0.540396
     16 C                    -0.182367
     17 S                     0.319503
     18 C                    -0.132104
     19 C                    -0.256158
     20 S                     0.281761
     21 C                     0.177881
     22 C                     0.018333
     23 C                    -0.314761
     24 C                    -0.059218
     25 N                    -0.397883
     26 S                     0.288038
     27 C                     0.132533
     28 C                    -0.313531
     29 C                    -0.232064
     30 H                     0.089949
     31 H                     0.105794
     32 H                     0.104143
     33 H                     0.112657
     34 H                     0.131474
     35 H                     0.121636
     36 H                     0.129711
     37 H                     0.134431
     38 H                     0.119109
     39 C                    -0.181275
     40 H                     0.086478
     41 H                     0.115946
     42 H                     0.092045
     43 C                    -0.182730
     44 H                     0.087043
     45 C                    -0.161533
     46 H                     0.092666
     47 H                     0.099393
     48 H                     0.092492
     49 C                    -0.179379
     50 H                     0.092223
     51 C                    -0.321914
     52 H                     0.093176
     53 H                     0.103498
     54 H                     0.097711
     55 H                     0.103477
     56 C                     0.271318
     57 C                    -0.104307
     58 N                    -0.471404
     59 C                    -0.096515
     60 C                     0.075166
     61 C                     0.045770
     62 C                     0.060458
     63 C                     0.022185
     64 C                     0.188630
     65 N                    -0.526948
     66 N                    -0.540070
     67 C                     0.244881
     68 C                     0.293836
     69 S                     0.615013
     70 N                    -0.565454
     71 C                    -0.219616
     72 S                     0.321198
     73 C                    -0.104529
     74 C                    -0.250741
     75 S                     0.269569
     76 C                     0.135155
     77 C                     0.101055
     78 C                    -0.313500
     79 C                    -0.046034
     80 N                    -0.444783
     81 S                     0.284324
     82 C                     0.103269
     83 C                    -0.305981
     84 C                    -0.231817
     85 H                     0.105625
     86 H                     0.112065
     87 H                     0.097241
     88 H                     0.118834
     89 H                     0.131111
     90 H                     0.128478
     91 H                     0.117800
     92 H                     0.128996
     93 H                     0.113066
     94 C                    -0.175890
     95 H                     0.090841
     96 H                     0.112385
     97 H                     0.083054
     98 C                    -0.174660
     99 H                     0.092919
    100 C                    -0.177412
    101 H                     0.089506
    102 H                     0.094327
    103 H                     0.093728
    104 C                    -0.183732
    105 H                     0.091269
    106 C                    -0.320569
    107 H                     0.088563
    108 H                     0.102688
    109 H                     0.101829
    110 H                     0.100640
  ----------------------------------------
  Sum of atomic charges =     0.000000

                    Cartesian Multipole Moments
 -----------------------------------------------------------------
    Charge (ESU x 10^10)
                 0.0000
    Dipole Moment (Debye)
         X       2.2228      Y      -1.3724      Z       0.2875
       Tot       2.6281
    Quadrupole Moments (Debye-Ang)
        XX    -472.4646     XY      39.4653     YY    -399.9725
        XZ       4.2085     YZ       7.7135     ZZ    -442.1419

 Total job time:  79.74s(wall), 934.59s(cpu)
        *  Thank you very much for using Q-Chem.  Have a nice day.  *
