 Q-Chem 4.4, Q-Chem, Inc., Pleasanton, CA (2016)
 Q-Chem 4.4.2 for Intel X86 Linux

User input:
--------------------------------------------------------------
$comment
SP
$end

$rem
MEM_STATIC 5000
MEM_TOTAL 20000
JOBTYPE SP
EXCHANGE B3LYP
BASIS 6-31g(d,p)
$end

$molecule
0 1
C          12.537000     30.540000      5.572000
C          12.637000     29.338000      4.853000
N          11.727000     30.564000      6.629000
C          11.945000     28.145000      5.183000
C          11.086000     29.408000      7.000000
C          11.075000     28.198000      6.301000
C          10.155000     27.042000      6.651000
C           9.458000     26.363000      5.615000
C           9.848000     26.642000      7.988000
N           8.452000     25.533000      5.886000
N          10.383000     27.246000      9.099000
C           8.851000     25.768000      8.232000
C           8.100000     25.175000      7.147000
S           9.702000     26.472000     10.377000
N           8.653000     25.525000      9.556000
C           7.090000     24.136000      7.362000
S           6.711000     23.145000      8.798000
C           6.311000     23.638000      6.268000
C           5.445000     22.238000      7.924000
S           6.112000     24.190000      4.631000
C           5.394000     22.645000      6.607000
C           4.543000     21.267000      8.582000
C           4.880000     22.966000      4.419000
C           4.588000     22.242000      5.528000
N           3.393000     21.005000      7.992000
S           4.995000     20.274000      9.982000
C           2.785000     19.956000      8.658000
C           3.482000     19.483000      9.732000
C          13.221000     31.775000      5.086000
H          13.400000     29.268000      4.083000
H          12.060000     27.279000      4.538000
H          10.579000     29.526000      7.957000
H           9.695000     26.590000      4.577000
H           4.500000     22.749000      3.429000
H           3.850000     21.448000      5.545000
H           1.864000     19.584000      8.229000
H           3.230000     18.717000     10.453000
H          13.305000     32.526000      5.880000
C          12.623000     32.321000      3.832000
H          14.269000     31.532000      4.871000
H          12.655000     31.611000      2.997000
H          13.232000     33.194000      3.571000
C          11.136000     32.738000      3.915000
H          10.788000     32.942000      2.895000
C          10.928000     33.876000      4.881000
H          10.695000     31.823000      4.328000
H          11.448000     33.674000      5.826000
H           9.875000     34.008000      5.158000
C          11.386000     35.228000      4.307000
H          12.468000     35.277000      4.130000
C          10.893000     36.394000      5.242000
H          10.855000     35.221000      3.347000
H          11.395000     36.413000      6.217000
H           9.813000     36.337000      5.420000
H          11.202000     37.378000      4.868000
C           7.868000     20.591000     -3.209000
C           8.505000     21.313000     -2.172000
N           6.796000     19.814000     -3.171000
C           7.974000     20.987000     -0.907000
C           6.283000     19.643000     -1.939000
C           6.805000     20.185000     -0.741000
C           6.168000     19.899000      0.610000
C           4.785000     19.779000      0.633000
C           6.806000     19.528000      1.804000
N           4.009000     19.424000      1.756000
N           8.133000     19.544000      1.879000
C           6.067000     19.115000      2.950000
C           4.668000     19.121000      2.934000
S           8.376000     19.060000      3.393000
N           6.872000     18.667000      3.886000
C           3.873000     18.704000      4.114000
S           4.420000     17.917000      5.562000
C           2.538000     18.940000      4.247000
C           2.788000     17.584000      6.139000
S           1.467000     20.075000      3.444000
C           1.961000     18.357000      5.391000
C           2.369000     16.962000      7.378000
C           0.134000     19.647000      4.550000
C           0.559000     18.719000      5.516000
N           1.164000     17.194000      7.842000
S           3.507000     15.887000      8.154000
C           1.153000     16.607000      9.141000
C           2.317000     15.822000      9.417000
C           8.378000     20.865000     -4.615000
H           9.356000     21.961000     -2.359000
H           8.509000     21.359000     -0.039000
H           5.345000     19.099000     -1.847000
H           4.155000     19.983000     -0.231000
H          -0.880000     20.010000      4.443000
H          -0.137000     18.350000      6.262000
H           0.256000     16.639000      9.746000
H           2.503000     15.256000     10.321000
H           7.587000     20.824000     -5.374000
C           9.407000     19.785000     -4.998000
H           8.800000     21.873000     -4.715000
H           8.932000     18.797000     -4.943000
H          10.243000     19.863000     -4.293000
C          10.098000     19.989000     -6.344000
H           9.954000     21.015000     -6.705000
C           9.573000     19.033000     -7.411000
H          11.169000     19.766000     -6.267000
H           8.495000     19.174000     -7.561000
H           9.675000     18.014000     -7.017000
C          10.380000     19.109000     -8.762000
H          10.484000     20.088000     -9.246000
C           9.934000     18.170000     -9.906000
H          11.420000     18.833000     -8.547000
H          10.373000     18.346000    -10.895000
H           8.852000     18.342000     -9.961000
H          10.063000     17.132000     -9.574000
$end

--------------------------------------------------------------

             Standard Nuclear Orientation (Angstroms)
    I     Atom           X                Y                Z
 ----------------------------------------------------------------
    1      C       9.6549692752     1.2449395106    -0.9053487353
    2      C       8.5019830569     1.8792219252    -1.3953217947
    3      N       9.5497570398    -0.0291793372    -0.5318831447
    4      C       7.2372736546     1.2524176618    -1.5318485068
    5      C       8.3496019593    -0.6736372095    -0.7026456514
    6      C       7.1436568179    -0.0983595936    -1.1120036616
    7      C       5.8111969028    -0.8235640484    -1.0498339461
    8      C       4.6701629376    -0.1496034144    -0.5360591374
    9      C       5.6362232113    -2.2027324805    -1.3801317561
   10      N       3.5602103598    -0.8128342713    -0.2158918288
   11      N       6.6561515795    -3.0092231185    -1.8213584263
   12      C       4.4863467626    -2.8401916875    -1.0820530553
   13      C       3.3832010154    -2.1349156990    -0.4668049423
   14      S       5.9754170769    -4.4900706872    -2.0208879105
   15      N       4.4930316683    -4.1587619069    -1.4175480457
   16      C       2.0789454035    -2.7598216106    -0.2338759824
   17      S       1.3862629980    -4.2920977549    -0.8339917236
   18      C       1.0425376638    -2.0505999026     0.4549959695
   19      C      -0.1731358191    -3.9870749654    -0.0188123403
   20      S       1.0476244380    -0.5649567111     1.3588280513
   21      C      -0.1510704900    -2.7548209849     0.6007054149
   22      C      -1.2672949885    -4.9816705935     0.0359986859
   23      C      -0.6156158634    -0.8829916348     1.7986342441
   24      C      -1.1147387307    -2.0636442269     1.3556254180
   25      N      -2.1540133923    -4.8611927136     1.0047399066
   26      S      -1.5903936519    -6.1817880983    -1.2311549071
   27      C      -3.1790234460    -5.7621658408     0.7784153301
   28      C      -3.0188180210    -6.5397933254    -0.3318295605
   29      C      10.9160631940     2.0166332028    -0.6970029330
   30      H       8.6125141019     2.8664465502    -1.8347981057
   31      H       6.3968713771     1.8430943887    -1.8840288813
   32      H       8.4404531332    -1.7401277293    -0.4997515034
   33      H       4.7336235093     0.9156997074    -0.3210149225
   34      H      -1.2043361909    -0.1105217637     2.2764288383
   35      H      -2.1300189498    -2.3918535853     1.5475985768
   36      H      -4.0184279733    -5.7158125673     1.4595301615
   37      H      -3.6253862936    -7.3472270189    -0.7194205320
   38      H      11.7830071909     1.3519253409    -0.6072000122
   39      C      10.8222076010     3.0018051196     0.4205226470
   40      H      11.1363959601     2.5792162819    -1.6127167263
   41      H      10.0340031840     3.7488276417     0.2687328304
   42      H      11.7900507294     3.5155469722     0.4424312686
   43      C      10.5203064152     2.4146365898     1.8191061417
   44      H      10.3009270163     3.2515011495     2.4933838205
   45      C      11.6260415855     1.5077133450     2.2948203007
   46      H       9.6282461273     1.8172517653     1.5963174208
   47      H      11.9083852888     0.8026471668     1.5027390438
   48      H      11.3223956257     0.8790157879     3.1406929346
   49      C      12.8640703708     2.2870432681     2.7713427008
   50      H      13.3595521722     2.8437687153     1.9657320251
   51      C      13.8565024599     1.3081885223     3.5019259850
   52      H      12.3936980259     2.9897362746     3.4703293930
   53      H      14.3274008073     0.5818121361     2.8284112546
   54      H      13.3552930548     0.7507766753     4.3015597542
   55      H      14.7565457466     1.8258887614     3.8562161833
   56      C      -3.0531202180     7.1540863848     0.3089690371
   57      C      -1.9023260475     6.4601725693    -0.1344025831
   58      N      -4.2015237075     6.6872522317     0.7754369340
   59      C      -2.1326932607     5.0719106560    -0.2245236533
   60      C      -4.2981417233     5.3453798280     0.7587812677
   61      C      -3.3173127402     4.4495214361     0.2720942560
   62      C      -3.5418732762     2.9454342394     0.2643308582
   63      C      -4.2714281418     2.4197020799     1.3221462459
   64      C      -3.2932754749     2.0408903795    -0.7798532916
   65      N      -4.6714346264     1.0738802057     1.4566389791
   66      N      -2.6560014634     2.4490627288    -1.8725962475
   67      C      -3.7208899093     0.6835137530    -0.7114384580
   68      C      -4.3585256789     0.1958165137     0.4344520377
   69      S      -2.6109901790     1.0978129552    -2.7429978983
   70      N      -3.5217537351     0.0747085077    -1.8579662411
   71      C      -4.8073033159    -1.2135924450     0.5368191210
   72      S      -4.8989534988    -2.4120473340    -0.7164119522
   73      C      -5.1837014331    -1.8034063649     1.7056022477
   74      C      -5.7972418229    -3.5558383459     0.2796112442
   75      S      -4.8834688461    -1.3733692235     3.3804167003
   76      C      -5.6838086552    -3.1107559357     1.5563244323
   77      C      -6.2367259090    -4.8971664942    -0.0448244761
   78      C      -5.6045619899    -2.9079329013     3.9357976477
   79      C      -5.9844237168    -3.7097388707     2.8459457055
   80      N      -6.4807031075    -5.7487275441     0.9228861754
   81      S      -6.4610471345    -5.2744163859    -1.7360392782
   82      C      -6.6898760707    -6.9971770482     0.2673623336
   83      C      -6.7687139182    -6.8822626859    -1.1566728777
   84      C      -2.9095909827     8.6630238671     0.4294639879
   85      H      -1.0001187420     6.9786667750    -0.4446601156
   86      H      -1.3682006496     4.4779649278    -0.7152501753
   87      H      -5.1727005912     4.8902418846     1.2194766542
   88      H      -4.5835909004     3.0099089652     2.1819265927
   89      H      -5.7806696805    -3.1513153818     4.9755885158
   90      H      -6.4470084701    -4.6765457605     3.0144472896
   91      H      -6.9323841320    -7.8811706534     0.8430385849
   92      H      -6.9611093127    -7.6907975775    -1.8505196484
   93      H      -3.4815075233     9.0830466302     1.2660853772
   94      C      -3.4557622897     9.3256185145    -0.8490489126
   95      H      -1.8740083743     8.9676065588     0.6268115112
   96      H      -4.5087720155     9.0450738348    -0.9804231872
   97      H      -2.8439800087     8.9742545449    -1.6882573501
   98      C      -3.2758190622    10.8396027637    -0.9283277122
   99      H      -2.5436331897    11.1848284567    -0.1877495131
  100      C      -4.5833940859    11.5878501154    -0.6866182623
  101      H      -2.9603385606    11.1397127789    -1.9348588999
  102      H      -4.9893781955    11.3483451881     0.3044817793
  103      H      -5.3211293073    11.1972084427    -1.3987606826
  104      C      -4.4615710833    13.1406071232    -0.9239594314
  105      H      -3.6848844828    13.6867500010    -0.3744151824
  106      C      -5.7362427589    13.9899700921    -0.7161911314
  107      H      -4.1738990241    13.2979175253    -1.9710980200
  108      H      -5.6129945936    15.0792396304    -0.7052475155
  109      H      -6.0954764382    13.6623950441     0.2671596461
  110      H      -6.4922891785    13.6656469905    -1.4424950190
 ----------------------------------------------------------------

    9   -5663.5213132114      6.03E-06 Convergence criterion met
 Total energy in the final basis set = -5663.5213132114

                    Orbital Energies (a.u.)
 --------------------------------------------------------------

 Alpha MOs
 -- Occupied --
-88.988 -88.988 -88.938 -88.928 -88.927 -88.926 -88.910 -88.907
-14.390 -14.388 -14.383 -14.378 -14.359 -14.359 -14.346 -14.343
-14.336 -14.325 -10.278 -10.270 -10.269 -10.266 -10.259 -10.258
-10.249 -10.249 -10.249 -10.245 -10.244 -10.244 -10.244 -10.242
-10.241 -10.239 -10.231 -10.231 -10.230 -10.229 -10.229 -10.228
-10.226 -10.224 -10.224 -10.223 -10.222 -10.220 -10.216 -10.216
-10.213 -10.213 -10.209 -10.206 -10.203 -10.199 -10.195 -10.187
-10.182 -10.180 -10.178 -10.178 -10.177 -10.176 -10.175 -10.175
-10.170 -10.169 -10.169 -10.164  -8.044  -8.043  -8.000  -7.988
 -7.988  -7.986  -7.969  -7.967  -6.009  -6.008  -6.004  -6.003
 -6.002  -6.001  -5.963  -5.960  -5.957  -5.952  -5.951  -5.950
 -5.948  -5.948  -5.946  -5.945  -5.944  -5.942  -5.934  -5.932
 -5.930  -5.928  -5.925  -5.924  -1.058  -1.032  -0.976  -0.967
 -0.954  -0.950  -0.946  -0.933  -0.926  -0.916  -0.909  -0.891
 -0.843  -0.843  -0.834  -0.828  -0.822  -0.813  -0.809  -0.808
 -0.806  -0.806  -0.800  -0.791  -0.785  -0.778  -0.769  -0.760
 -0.748  -0.744  -0.738  -0.738  -0.726  -0.722  -0.711  -0.708
 -0.695  -0.693  -0.675  -0.670  -0.653  -0.651  -0.651  -0.640
 -0.637  -0.634  -0.632  -0.622  -0.612  -0.608  -0.602  -0.596
 -0.595  -0.588  -0.584  -0.583  -0.578  -0.576  -0.568  -0.554
 -0.552  -0.547  -0.543  -0.537  -0.528  -0.521  -0.516  -0.512
 -0.506  -0.505  -0.500  -0.495  -0.493  -0.486  -0.482  -0.478
 -0.474  -0.474  -0.470  -0.468  -0.462  -0.461  -0.451  -0.448
 -0.446  -0.445  -0.441  -0.439  -0.435  -0.432  -0.429  -0.426
 -0.426  -0.424  -0.423  -0.418  -0.417  -0.414  -0.414  -0.413
 -0.413  -0.411  -0.407  -0.407  -0.400  -0.399  -0.398  -0.397
 -0.394  -0.393  -0.393  -0.389  -0.388  -0.386  -0.384  -0.382
 -0.380  -0.376  -0.372  -0.368  -0.367  -0.361  -0.359  -0.355
 -0.354  -0.354  -0.351  -0.348  -0.347  -0.344  -0.342  -0.341
 -0.338  -0.336  -0.336  -0.335  -0.326  -0.325  -0.323  -0.318
 -0.313  -0.312  -0.312  -0.307  -0.305  -0.303  -0.302  -0.301
 -0.300  -0.297  -0.295  -0.292  -0.289  -0.287  -0.286  -0.281
 -0.279  -0.271  -0.267  -0.264  -0.261  -0.253  -0.250  -0.247
 -0.246  -0.245  -0.237  -0.232  -0.200  -0.192

          Ground-State Mulliken Net Atomic Charges

     Atom                 Charge (a.u.)
  ----------------------------------------
      1 C                     0.285714
      2 C                    -0.121463
      3 N                    -0.485674
      4 C                    -0.088420
      5 C                     0.065302
      6 C                     0.049017
      7 C                    -0.012539
      8 C                     0.084444
      9 C                     0.238673
     10 N                    -0.535131
     11 N                    -0.550353
     12 C                     0.193476
     13 C                     0.322115
     14 S                     0.608926
     15 N                    -0.567516
     16 C                    -0.210855
     17 S                     0.320043
     18 C                    -0.128990
     19 C                    -0.255591
     20 S                     0.283417
     21 C                     0.174294
     22 C                     0.062321
     23 C                    -0.333734
     24 C                    -0.033465
     25 N                    -0.427404
     26 S                     0.268858
     27 C                     0.120865
     28 C                    -0.314985
     29 C                    -0.225084
     30 H                     0.079203
     31 H                     0.101286
     32 H                     0.117224
     33 H                     0.114596
     34 H                     0.130213
     35 H                     0.141386
     36 H                     0.134633
     37 H                     0.133250
     38 H                     0.118509
     39 C                    -0.179144
     40 H                     0.102634
     41 H                     0.089556
     42 H                     0.090452
     43 C                    -0.181749
     44 H                     0.084954
     45 C                    -0.164469
     46 H                     0.101466
     47 H                     0.103965
     48 H                     0.085821
     49 C                    -0.171603
     50 H                     0.091560
     51 C                    -0.324736
     52 H                     0.091975
     53 H                     0.103318
     54 H                     0.105631
     55 H                     0.095179
     56 C                     0.271080
     57 C                    -0.098577
     58 N                    -0.471075
     59 C                    -0.089165
     60 C                     0.076360
     61 C                     0.044651
     62 C                     0.062112
     63 C                     0.021065
     64 C                     0.190053
     65 N                    -0.526386
     66 N                    -0.528124
     67 C                     0.256773
     68 C                     0.294169
     69 S                     0.595396
     70 N                    -0.559060
     71 C                    -0.218298
     72 S                     0.327779
     73 C                    -0.109430
     74 C                    -0.245161
     75 S                     0.273187
     76 C                     0.134178
     77 C                     0.102783
     78 C                    -0.308411
     79 C                    -0.052522
     80 N                    -0.452142
     81 S                     0.291572
     82 C                     0.097245
     83 C                    -0.308237
     84 C                    -0.232754
     85 H                     0.107764
     86 H                     0.108465
     87 H                     0.096085
     88 H                     0.122375
     89 H                     0.135010
     90 H                     0.129745
     91 H                     0.121957
     92 H                     0.131590
     93 H                     0.112760
     94 C                    -0.177034
     95 H                     0.091182
     96 H                     0.112006
     97 H                     0.088150
     98 C                    -0.174366
     99 H                     0.092170
    100 C                    -0.177672
    101 H                     0.091328
    102 H                     0.093436
    103 H                     0.094106
    104 C                    -0.183899
    105 H                     0.091102
    106 C                    -0.320463
    107 H                     0.089228
    108 H                     0.102507
    109 H                     0.101357
    110 H                     0.100682
  ----------------------------------------
  Sum of atomic charges =     0.000000

                    Cartesian Multipole Moments
 -----------------------------------------------------------------
    Charge (ESU x 10^10)
                 0.0000
    Dipole Moment (Debye)
         X      -1.8429      Y      -1.7282      Z      -3.1285
       Tot       4.0212
    Quadrupole Moments (Debye-Ang)
        XX    -460.1645     XY      50.5914     YY    -404.7273
        XZ      -2.0967     YZ       3.9513     ZZ    -439.8403

 Total job time:  86.52s(wall), 1036.71s(cpu)
        *  Thank you very much for using Q-Chem.  Have a nice day.  *
