 Q-Chem 4.4, Q-Chem, Inc., Pleasanton, CA (2016)
 Q-Chem 4.4.2 for Intel X86 Linux

User input:
--------------------------------------------------------------
$comment
SP
$end

$rem
MEM_STATIC 5000
MEM_TOTAL 20000
JOBTYPE SP
EXCHANGE B3LYP
BASIS 6-31g(d,p)
$end

$molecule
0 1
C          10.847000     12.129000      7.680000
C          11.451000     13.260000      7.141000
N          10.173000     11.201000      6.940000
C          11.329000     13.539000      5.757000
C          10.234000     11.441000      5.602000
C          10.728000     12.588000      4.949000
C          10.380000     12.846000      3.530000
C           9.995000     14.115000      3.084000
C          10.515000     11.911000      2.464000
N           9.679000     14.398000      1.815000
N          10.848000     10.626000      2.651000
C          10.179000     12.240000      1.154000
C           9.831000     13.525000      0.803000
S          10.774000      9.970000      1.198000
N          10.270000     11.182000      0.276000
C           9.680000     13.928000     -0.617000
S           9.879000     12.956000     -2.025000
C           9.493000     15.257000     -1.030000
C           9.625000     14.347000     -3.184000
S           9.401000     16.645000      0.006000
C           9.461000     15.460000     -2.400000
C           9.948000     14.394000     -4.571000
C           9.414000     17.647000     -1.498000
C           9.451000     16.928000     -2.608000
N          10.299000     13.203000     -5.071000
S           9.273000     15.497000     -5.742000
C          10.254000     13.319000     -6.464000
C           9.973000     14.511000     -6.979000
C          11.085000     11.832000      9.149000
H          11.876000     13.960000      7.854000
H          11.730000     14.479000      5.390000
H           9.825000     10.640000      4.986000
H           9.858000     15.032000      3.657000
H           9.258000     18.716000     -1.443000
H           9.472000     17.317000     -3.619000
H          10.495000     12.439000     -7.046000
H           9.886000     14.803000     -8.017000
H          10.805000     10.797000      9.383000
C          10.240000     12.661000     10.157000
H          12.173000     11.723000      9.241000
H           9.476000     11.994000     10.576000
H           9.699000     13.509000      9.719000
C          11.258000     13.188000     11.202000
H          11.556000     12.354000     11.849000
C          10.649000     14.247000     12.105000
H          12.122000     13.624000     10.685000
H           9.915000     13.766000     12.762000
H          10.219000     15.040000     11.481000
C          11.751000     14.843000     13.004000
H          12.214000     13.993000     13.522000
C          11.314000     16.031000     13.959000
H          12.630000     15.151000     12.424000
H          12.054000     16.243000     14.740000
H          10.327000     15.782000     14.370000
H          11.218000     16.943000     13.356000
C           7.868000     20.591000     -3.209000
C           8.505000     21.313000     -2.172000
N           6.796000     19.814000     -3.171000
C           7.974000     20.987000     -0.907000
C           6.283000     19.643000     -1.939000
C           6.805000     20.185000     -0.741000
C           6.168000     19.899000      0.610000
C           4.785000     19.779000      0.633000
C           6.806000     19.528000      1.804000
N           4.009000     19.424000      1.756000
N           8.133000     19.544000      1.879000
C           6.067000     19.115000      2.950000
C           4.668000     19.121000      2.934000
S           8.376000     19.060000      3.393000
N           6.872000     18.667000      3.886000
C           3.873000     18.704000      4.114000
S           4.420000     17.917000      5.562000
C           2.538000     18.940000      4.247000
C           2.788000     17.584000      6.139000
S           1.467000     20.075000      3.444000
C           1.961000     18.357000      5.391000
C           2.369000     16.962000      7.378000
C           0.134000     19.647000      4.550000
C           0.559000     18.719000      5.516000
N           1.164000     17.194000      7.842000
S           3.507000     15.887000      8.154000
C           1.153000     16.607000      9.141000
C           2.317000     15.822000      9.417000
C           8.378000     20.865000     -4.615000
H           9.356000     21.961000     -2.359000
H           8.509000     21.359000     -0.039000
H           5.345000     19.099000     -1.847000
H           4.155000     19.983000     -0.231000
H          -0.880000     20.010000      4.443000
H          -0.137000     18.350000      6.262000
H           0.256000     16.639000      9.746000
H           2.503000     15.256000     10.321000
H           7.587000     20.824000     -5.374000
C           9.407000     19.785000     -4.998000
H           8.800000     21.873000     -4.715000
H           8.932000     18.797000     -4.943000
H          10.243000     19.863000     -4.293000
C          10.098000     19.989000     -6.344000
H           9.954000     21.015000     -6.705000
C           9.573000     19.033000     -7.411000
H          11.169000     19.766000     -6.267000
H           8.495000     19.174000     -7.561000
H           9.675000     18.014000     -7.017000
C          10.380000     19.109000     -8.762000
H          10.484000     20.088000     -9.246000
C           9.934000     18.170000     -9.906000
H          11.420000     18.833000     -8.547000
H          10.373000     18.346000    -10.895000
H           8.852000     18.342000     -9.961000
H          10.063000     17.132000     -9.574000
$end

--------------------------------------------------------------

             Standard Nuclear Orientation (Angstroms)
    I     Atom           X                Y                Z
 ----------------------------------------------------------------
    1      C      -5.7502324821     5.1430456769    -0.2765125351
    2      C      -4.9661600384     4.7936919577    -1.3708983820
    3      N      -5.2682631491     5.2730494823     0.9938671611
    4      C      -3.5953937719     4.4819891484    -1.1919508996
    5      C      -3.9180026074     5.1221985983     1.0687369159
    6      C      -3.0383316291     4.6792977140     0.0607330585
    7      C      -1.6732647090     4.2169093411     0.4128953738
    8      C      -1.1221755678     3.0559771974    -0.1403128296
    9      C      -0.7417739288     4.9324221034     1.2186077376
   10      N       0.1051622975     2.6031141515     0.1405124293
   11      N      -1.0506985985     6.0606286429     1.8734348543
   12      C       0.5288019684     4.4325164625     1.4887340778
   13      C       0.9954199697     3.2896676039     0.8790668512
   14      S       0.2637866116     6.4239116468     2.7023951016
   15      N       1.2522255176     5.2047373717     2.3712657974
   16      C       2.4140415633     2.8709641535     0.9965836370
   17      S       3.6847433815     3.6506022338     1.8593294588
   18      C       2.9736935625     1.8135517463     0.2614321963
   19      C       4.9706287966     2.4849318062     1.2845345794
   20      S       2.1422336205     0.8177353662    -0.8897967565
   21      C       4.3348039902     1.6197535860     0.4315899956
   22      C       6.3843976760     2.6558856464     1.3329013052
   23      C       3.7539186542     0.1052679109    -1.2911077046
   24      C       4.7427428455     0.6002985720    -0.5647459742
   25      N       6.7624811522     3.7170121948     2.0559126006
   26      S       7.5727147103     1.3815250656     1.2469784557
   27      C       8.1316910126     3.5729445358     2.3017557779
   28      C       8.7563194047     2.5388896349     1.7489268406
   29      C      -7.1875801729     5.5533692331    -0.5381997432
   30      H      -5.4945112584     4.6385221146    -2.3067195765
   31      H      -3.0393051924     4.1200540114    -2.0515196568
   32      H      -3.4959615658     5.3605241609     2.0451693434
   33      H      -1.5751162733     2.3401280999    -0.8261639700
   34      H       3.8250720508    -0.7405120424    -1.9617159842
   35      H       5.7881126415     0.3255659921    -0.6396258725
   36      H       8.6156149575     4.3388034237     2.8937716385
   37      H       9.7967674623     2.2515951072     1.8210842640
   38      H      -7.6073884719     6.0654347717     0.3369750257
   39      C      -8.1933395616     4.3931168507    -0.7823154154
   40      H      -7.1149942461     6.4212338266    -1.2057559809
   41      H      -8.8211154927     4.3049880709     0.1133835846
   42      H      -7.7347594312     3.4078764995    -0.9327637933
   43      C      -8.9733339987     4.7953426217    -2.0613389129
   44      H      -9.6737313524     5.5990797639    -1.8036197764
   45      C      -9.8056577357     3.6464246599    -2.6044739918
   46      H      -8.2660131242     5.1124654282    -2.8378769390
   47      H     -10.6347769401     3.4578831745    -1.9125350832
   48      H      -9.1550515390     2.7753861579    -2.7498304669
   49      C     -10.4196570862     4.0590376198    -3.9574619233
   50      H     -10.9693808190     4.9907684968    -3.7707150618
   51      C     -11.2565146668     2.9478180144    -4.7185127616
   52      H      -9.6663690960     4.4734721366    -4.6391555752
   53      H     -11.8684372220     3.3580994655    -5.5307472827
   54      H     -11.8541229249     2.4105272630    -3.9706665086
   55      H     -10.5551107508     2.2384063842    -5.1760460233
   56      C       5.5861615591    -3.0780305367    -1.9941510399
   57      C       4.7791581484    -3.0867927731    -3.1565153194
   58      N       5.2646370000    -3.3232651163    -0.7328663936
   59      C       3.4112993431    -3.2202712982    -2.8409083294
   60      C       3.9537426369    -3.5507817928    -0.5328010775
   61      C       2.9454208595    -3.5159500364    -1.5245298419
   62      C       1.4818919901    -3.7519803580    -1.1852085553
   63      C       1.2166070085    -4.6745301233    -0.1821413546
   64      C       0.3680211479    -3.0063441386    -1.6019091376
   65      N      -0.0566962483    -4.9694553245     0.3479981948
   66      N       0.5138344816    -2.0509002914    -2.5144197001
   67      C      -0.9298536860    -3.2340428912    -1.0599864555
   68      C      -1.1419487079    -4.2555833444    -0.1278041749
   69      S      -0.9929384204    -1.5075837014    -2.6556411744
   70      N      -1.7753364468    -2.3200363108    -1.4778092316
   71      C      -2.4827357328    -4.5204735801     0.4470325994
   72      S      -3.9180089011    -3.5497163910     0.3334394134
   73      C      -2.7975235851    -5.6499332603     1.1404584706
   74      C      -4.7949054331    -4.4944855506     1.5358144411
   75      S      -2.0287502291    -7.2257557677     1.2169172973
   76      C      -4.0908877969    -5.6432393428     1.6960826306
   77      C      -6.1607076563    -4.3439977579     1.9935301952
   78      C      -3.3867203936    -7.8759037604     2.1742749212
   79      C      -4.3910889689    -6.9080596968     2.3459916462
   80      N      -6.7780366293    -5.3686604077     2.5321547333
   81      S      -6.8837311213    -2.7612584980     1.8353578078
   82      C      -8.1308483142    -4.9442130246     2.6799247039
   83      C      -8.3205938802    -3.5529851968     2.4046452982
   84      C       7.0809608164    -2.9273460495    -2.2284187620
   85      H       5.1919304372    -2.9170896129    -4.1464112104
   86      H       2.7034331365    -3.0668432511    -3.6492512441
   87      H       3.6341498004    -3.8572701535     0.4612659743
   88      H       1.9860566482    -5.2922227408     0.2776576039
   89      H      -3.3968460056    -8.8646256535     2.6144345401
   90      H      -5.2851553319    -7.1438096003     2.9135833318
   91      H      -8.8636708082    -5.6044955395     3.1256333451
   92      H      -9.2525544437    -3.0087344277     2.4907185724
   93      H       7.6871183484    -3.4915548255    -1.5089158061
   94      C       7.4711753205    -1.4468303139    -2.0618780838
   95      H       7.3893217852    -3.3145959976    -3.2077547568
   96      H       7.2009102292    -1.1128617400    -1.0518207726
   97      H       6.9303038008    -0.8765296507    -2.8262210387
   98      C       8.9271113576    -1.1151544458    -2.3797685908
   99      H       9.4003964811    -1.9321813317    -2.9385183197
  100      C       9.7487971359    -0.8650658126    -1.1186824885
  101      H       8.9955339658    -0.1817556926    -2.9514189334
  102      H       9.7389818079    -1.7489429547    -0.4681981636
  103      H       9.2374106372    -0.0826243215    -0.5439911262
  104      C      11.2105649584    -0.3613305118    -1.4215216865
  105      H      11.8378650470    -0.9686124224    -2.0857628173
  106      C      12.1227378896    -0.0672311021    -0.2087483850
  107      H      11.1317135757     0.5890488499    -1.9642578364
  108      H      13.1849591705     0.1085948537    -0.4151198551
  109      H      12.0238626532    -0.9731255810     0.4019167284
  110      H      11.6736325605     0.7464652915     0.3747853179
 ----------------------------------------------------------------

    9   -5663.4880536216      9.98E-06 Convergence criterion met
 Total energy in the final basis set = -5663.4880536216

                    Orbital Energies (a.u.)
 --------------------------------------------------------------

 Alpha MOs
 -- Occupied --
-88.987 -88.987 -88.932 -88.925 -88.924 -88.917 -88.905 -88.900
-14.389 -14.388 -14.385 -14.378 -14.356 -14.353 -14.343 -14.339
-14.339 -14.333 -10.272 -10.267 -10.263 -10.258 -10.257 -10.256
-10.253 -10.247 -10.242 -10.241 -10.240 -10.237 -10.237 -10.236
-10.235 -10.234 -10.234 -10.234 -10.227 -10.227 -10.226 -10.225
-10.225 -10.224 -10.224 -10.222 -10.221 -10.220 -10.219 -10.214
-10.213 -10.211 -10.210 -10.204 -10.202 -10.197 -10.195 -10.192
-10.187 -10.184 -10.182 -10.182 -10.182 -10.181 -10.181 -10.181
-10.178 -10.178 -10.178 -10.176  -8.043  -8.043  -7.994  -7.985
 -7.985  -7.975  -7.965  -7.959  -6.008  -6.008  -6.003  -6.003
 -6.002  -6.001  -5.957  -5.954  -5.951  -5.949  -5.949  -5.946
 -5.945  -5.942  -5.941  -5.940  -5.936  -5.932  -5.929  -5.926
 -5.924  -5.921  -5.920  -5.915  -1.057  -1.048  -0.969  -0.965
 -0.959  -0.954  -0.943  -0.934  -0.925  -0.913  -0.911  -0.903
 -0.839  -0.836  -0.834  -0.834  -0.816  -0.812  -0.811  -0.810
 -0.806  -0.804  -0.801  -0.796  -0.787  -0.784  -0.769  -0.769
 -0.750  -0.747  -0.736  -0.734  -0.722  -0.720  -0.712  -0.708
 -0.694  -0.691  -0.674  -0.673  -0.655  -0.655  -0.653  -0.645
 -0.636  -0.635  -0.632  -0.628  -0.608  -0.607  -0.597  -0.596
 -0.595  -0.588  -0.583  -0.581  -0.578  -0.576  -0.573  -0.571
 -0.550  -0.543  -0.541  -0.539  -0.526  -0.520  -0.514  -0.513
 -0.508  -0.507  -0.500  -0.496  -0.495  -0.489  -0.481  -0.480
 -0.479  -0.477  -0.473  -0.469  -0.466  -0.465  -0.452  -0.447
 -0.446  -0.439  -0.437  -0.436  -0.433  -0.432  -0.430  -0.429
 -0.428  -0.425  -0.423  -0.422  -0.418  -0.417  -0.416  -0.414
 -0.413  -0.410  -0.410  -0.406  -0.404  -0.400  -0.397  -0.394
 -0.393  -0.391  -0.389  -0.388  -0.387  -0.384  -0.383  -0.381
 -0.380  -0.376  -0.375  -0.369  -0.365  -0.362  -0.360  -0.358
 -0.355  -0.351  -0.350  -0.349  -0.348  -0.345  -0.345  -0.338
 -0.337  -0.333  -0.332  -0.329  -0.329  -0.328  -0.327  -0.322
 -0.322  -0.320  -0.317  -0.312  -0.308  -0.307  -0.302  -0.302
 -0.297  -0.295  -0.294  -0.288  -0.288  -0.287  -0.286  -0.277
 -0.276  -0.272  -0.268  -0.267  -0.265  -0.255  -0.250  -0.248
 -0.244  -0.238  -0.235  -0.234  -0.195  -0.193

          Ground-State Mulliken Net Atomic Charges

     Atom                 Charge (a.u.)
  ----------------------------------------
      1 C                     0.254196
      2 C                    -0.108044
      3 N                    -0.469986
      4 C                    -0.085158
      5 C                     0.072689
      6 C                     0.061383
      7 C                     0.025217
      8 C                     0.044860
      9 C                     0.220255
     10 N                    -0.539303
     11 N                    -0.531373
     12 C                     0.174896
     13 C                     0.338540
     14 S                     0.614014
     15 N                    -0.545596
     16 C                    -0.215370
     17 S                     0.356756
     18 C                    -0.142489
     19 C                    -0.247385
     20 S                     0.271084
     21 C                     0.151664
     22 C                     0.042133
     23 C                    -0.318270
     24 C                    -0.035661
     25 N                    -0.422853
     26 S                     0.288392
     27 C                     0.108099
     28 C                    -0.299403
     29 C                    -0.246625
     30 H                     0.089434
     31 H                     0.101450
     32 H                     0.114044
     33 H                     0.113949
     34 H                     0.125098
     35 H                     0.091923
     36 H                     0.110973
     37 H                     0.140206
     38 H                     0.115914
     39 C                    -0.187033
     40 H                     0.113597
     41 H                     0.109076
     42 H                     0.100757
     43 C                    -0.172617
     44 H                     0.098010
     45 C                    -0.170933
     46 H                     0.095138
     47 H                     0.093954
     48 H                     0.088755
     49 C                    -0.183557
     50 H                     0.087867
     51 C                    -0.322284
     52 H                     0.086069
     53 H                     0.104765
     54 H                     0.104106
     55 H                     0.105236
     56 C                     0.268189
     57 C                    -0.100523
     58 N                    -0.466875
     59 C                    -0.110522
     60 C                     0.079842
     61 C                     0.053157
     62 C                     0.064431
     63 C                     0.024897
     64 C                     0.200459
     65 N                    -0.525243
     66 N                    -0.540051
     67 C                     0.252007
     68 C                     0.297452
     69 S                     0.592722
     70 N                    -0.556134
     71 C                    -0.220646
     72 S                     0.321460
     73 C                    -0.103596
     74 C                    -0.246950
     75 S                     0.271436
     76 C                     0.133934
     77 C                     0.099775
     78 C                    -0.312967
     79 C                    -0.045293
     80 N                    -0.444569
     81 S                     0.289148
     82 C                     0.102727
     83 C                    -0.303945
     84 C                    -0.232672
     85 H                     0.110105
     86 H                     0.109528
     87 H                     0.101164
     88 H                     0.121428
     89 H                     0.132512
     90 H                     0.129909
     91 H                     0.119214
     92 H                     0.130857
     93 H                     0.113756
     94 C                    -0.187538
     95 H                     0.092860
     96 H                     0.123433
     97 H                     0.091656
     98 C                    -0.174457
     99 H                     0.093070
    100 C                    -0.190898
    101 H                     0.094476
    102 H                     0.092467
    103 H                     0.103892
    104 C                    -0.183788
    105 H                     0.093165
    106 C                    -0.322885
    107 H                     0.091530
    108 H                     0.106166
    109 H                     0.103250
    110 H                     0.092920
  ----------------------------------------
  Sum of atomic charges =     0.000000

                    Cartesian Multipole Moments
 -----------------------------------------------------------------
    Charge (ESU x 10^10)
                 0.0000
    Dipole Moment (Debye)
         X      -1.1319      Y      -0.8436      Z      -3.7183
       Tot       3.9773
    Quadrupole Moments (Debye-Ang)
        XX    -385.4404     XY       0.7276     YY    -451.6891
        XZ      -7.0006     YZ      -4.0578     ZZ    -434.8825

 Total job time:  84.12s(wall), 1008.83s(cpu)
        *  Thank you very much for using Q-Chem.  Have a nice day.  *
