 Q-Chem 4.4, Q-Chem, Inc., Pleasanton, CA (2016)
 Q-Chem 4.4.2 for Intel X86 Linux

User input:
--------------------------------------------------------------
$comment
SP
$end

$rem
MEM_STATIC 5000
MEM_TOTAL 20000
JOBTYPE SP
EXCHANGE B3LYP
BASIS 6-31g(d,p)
$end

$molecule
0 1
C          10.404000     23.563000      2.597000
C          11.311000     23.987000      3.548000
N           9.295000     22.853000      2.887000
C          11.186000     23.472000      4.865000
C           9.156000     22.401000      4.212000
C          10.069000     22.712000      5.243000
C           9.967000     22.329000      6.729000
C          10.557000     23.159000      7.686000
C           9.207000     21.243000      7.188000
N          10.432000     22.887000      8.991000
N           8.476000     20.459000      6.376000
C           9.153000     20.929000      8.557000
C           9.818000     21.749000      9.456000
S           7.737000     19.400000      7.382000
N           8.497000     19.839000      8.815000
C           9.663000     21.599000     10.862000
S           8.195000     21.045000     11.685000
C          10.484000     22.199000     11.847000
C           8.987000     21.347000     13.300000
S          11.928000     23.130000     11.624000
C          10.084000     22.095000     13.184000
C           8.272000     21.179000     14.576000
C          11.945000     23.422000     13.359000
C          10.916000     22.801000     14.074000
N           8.831000     21.515000     15.673000
S           6.708000     20.347000     14.684000
C           7.944000     21.354000     16.693000
C           6.747000     20.773000     16.366000
C          10.648000     23.945000      1.175000
H          12.145000     24.561000      3.156000
H          11.988000     23.568000      5.590000
H           8.203000     21.899000      4.371000
H          11.234000     23.981000      7.454000
H          12.829000     23.955000     13.685000
H          10.766000     22.850000     15.146000
H           8.208000     21.655000     17.698000
H           5.875000     20.624000     16.989000
H          11.622000     24.434000      1.046000
C           9.466000     24.800000      0.538000
H          10.852000     23.028000      0.609000
H           9.405000     25.807000      0.970000
H           8.500000     24.329000      0.757000
C           9.518000     24.962000     -0.998000
H          10.321000     25.676000     -1.219000
C           8.110000     25.433000     -1.516000
H           9.902000     24.095000     -1.551000
H           7.834000     26.377000     -1.031000
H           7.358000     24.650000     -1.360000
C           8.071000     25.741000     -3.041000
H           7.183000     26.383000     -3.105000
C           7.970000     24.493000     -3.918000
H           8.918000     26.408000     -3.242000
H           7.962000     24.730000     -4.989000
H           7.126000     23.831000     -3.687000
H           8.837000     23.881000     -3.643000
C           7.868000     20.591000     -3.209000
C           8.505000     21.313000     -2.172000
N           6.796000     19.814000     -3.171000
C           7.974000     20.987000     -0.907000
C           6.283000     19.643000     -1.939000
C           6.805000     20.185000     -0.741000
C           6.168000     19.899000      0.610000
C           4.785000     19.779000      0.633000
C           6.806000     19.528000      1.804000
N           4.009000     19.424000      1.756000
N           8.133000     19.544000      1.879000
C           6.067000     19.115000      2.950000
C           4.668000     19.121000      2.934000
S           8.376000     19.060000      3.393000
N           6.872000     18.667000      3.886000
C           3.873000     18.704000      4.114000
S           4.420000     17.917000      5.562000
C           2.538000     18.940000      4.247000
C           2.788000     17.584000      6.139000
S           1.467000     20.075000      3.444000
C           1.961000     18.357000      5.391000
C           2.369000     16.962000      7.378000
C           0.134000     19.647000      4.550000
C           0.559000     18.719000      5.516000
N           1.164000     17.194000      7.842000
S           3.507000     15.887000      8.154000
C           1.153000     16.607000      9.141000
C           2.317000     15.822000      9.417000
C           8.378000     20.865000     -4.615000
H           9.356000     21.961000     -2.359000
H           8.509000     21.359000     -0.039000
H           5.345000     19.099000     -1.847000
H           4.155000     19.983000     -0.231000
H          -0.880000     20.010000      4.443000
H          -0.137000     18.350000      6.262000
H           0.256000     16.639000      9.746000
H           2.503000     15.256000     10.321000
H           7.587000     20.824000     -5.374000
C           9.407000     19.785000     -4.998000
H           8.800000     21.873000     -4.715000
H           8.932000     18.797000     -4.943000
H          10.243000     19.863000     -4.293000
C          10.098000     19.989000     -6.344000
H           9.954000     21.015000     -6.705000
C           9.573000     19.033000     -7.411000
H          11.169000     19.766000     -6.267000
H           8.495000     19.174000     -7.561000
H           9.675000     18.014000     -7.017000
C          10.380000     19.109000     -8.762000
H          10.484000     20.088000     -9.246000
C           9.934000     18.170000     -9.906000
H          11.420000     18.833000     -8.547000
H          10.373000     18.346000    -10.895000
H           8.852000     18.342000     -9.961000
H          10.063000     17.132000     -9.574000
$end

--------------------------------------------------------------

             Standard Nuclear Orientation (Angstroms)
    I     Atom           X                Y                Z
 ----------------------------------------------------------------
    1      C       2.2726498475    -4.0871974345     0.8096236926
    2      C       1.3490203396    -5.1020084171     0.6550494336
    3      N       1.9486347314    -2.7784239778     0.8240196515
    4      C       0.0261679613    -4.7482631616     0.2805299020
    5      C       0.6177699832    -2.4478661858     0.5097258908
    6      C      -0.3863186397    -3.4075694919     0.2566911075
    7      C      -1.8767215648    -3.1500104007    -0.0219689641
    8      C      -2.8125886600    -4.1238076706     0.3368076480
    9      C      -2.3623923974    -1.9299776461    -0.5152446679
   10      N      -4.1220430332    -3.9034632959     0.1653095400
   11      N      -1.5750220325    -0.8675514864    -0.7594977410
   12      C      -3.7341422143    -1.7474298582    -0.7615204176
   13      C      -4.6100585045    -2.7768243841    -0.4517728388
   14      S      -2.6067587390     0.3059939032    -1.2472974813
   15      N      -4.0160971965    -0.6068121832    -1.3133289962
   16      C      -6.0205822782    -2.6011764019    -0.5059158923
   17      S      -6.8862132117    -1.0923621940    -0.1691195547
   18      C      -6.9795114770    -3.6419318599    -0.4665602258
   19      C      -8.4774062198    -1.9611843243    -0.3689843017
   20      S      -6.7121243438    -5.3536297049    -0.4814131134
   21      C      -8.3274299920    -3.2853384384    -0.3468029354
   22      C      -9.7732467071    -1.3049022345    -0.1287422359
   23      C      -8.4443135664    -5.5732261365    -0.2644432893
   24      C      -9.1904859248    -4.3911513229    -0.2240335523
   25      N     -10.8527509047    -1.9846140413    -0.1668020174
   26      S      -9.9283557005     0.4554386005     0.0359555010
   27      C     -11.8973063176    -1.1820311946     0.1764977986
   28      C     -11.6061960967     0.1451142222     0.3532430441
   29      C       3.7029164325    -4.4643700988     1.0086771457
   30      H       1.7667652518    -6.1038023059     0.6794255034
   31      H      -0.6762844620    -5.4891321984    -0.0878702383
   32      H       0.4301292122    -1.3803646655     0.6132896167
   33      H      -2.5576020055    -5.1351559050     0.6530252228
   34      H      -8.7431762550    -6.6127031179    -0.3090493261
   35      H     -10.2658537041    -4.3205637804    -0.1113990190
   36      H     -12.8930354457    -1.5939042759     0.2724460573
   37      H     -12.2534282667     0.9388114067     0.7023122316
   38      H       3.8610622782    -5.5430185852     0.8824023095
   39      C       4.3126026232    -3.9319068942     2.3793279708
   40      H       4.2689301832    -4.1154576861     0.1364675595
   41      H       3.8849289696    -4.4462347737     3.2493601992
   42      H       4.0648117859    -2.8721602833     2.5153236393
   43      C       5.8503569249    -4.0248417872     2.5014705657
   44      H       6.0971360880    -5.0822068312     2.6580758280
   45      C       6.3327529190    -3.0955313557     3.6746309242
   46      H       6.4085380776    -3.8540055174     1.5718454963
   47      H       5.8459144385    -3.3971205241     4.6098150063
   48      H       6.1519314853    -2.0410879666     3.4330077706
   49      C       7.8578901689    -3.1931372270     3.9686368136
   50      H       7.9015271191    -2.8036188520     4.9939051941
   51      C       8.7246157545    -2.3995198583     2.9909905425
   52      H       8.0855970900    -4.2618788276     4.0615881400
   53      H       9.7963565909    -2.4956368710     3.2040799590
   54      H       8.4670304231    -1.3368068357     2.9002611169
   55      H       8.4696642311    -2.7934594972     2.0001982931
   56      C       7.9906032052    -0.1856032589    -0.2181351746
   57      C       6.9754160025    -1.1412628162     0.0237981923
   58      N       7.9191066094     1.1356541495    -0.2774992849
   59      C       5.6946414414    -0.5513248506     0.0309898879
   60      C       6.6727014465     1.6261316843    -0.1504561513
   61      C       5.4924231621     0.8613448643     0.0028288490
   62      C       4.1230423101     1.5155233759     0.1008724982
   63      C       4.0619113192     2.7352160718     0.7613501507
   64      C       2.9446335281     1.1564022741    -0.5719616393
   65      N       2.9162811327     3.5492503380     0.8805545515
   66      N       2.9056854926     0.0381462910    -1.2894549193
   67      C       1.7766792197     1.9708775812    -0.5217749107
   68      C       1.7548273282     3.1355982497     0.2531065378
   69      S       1.3960518076     0.0626204441    -1.8425445620
   70      N       0.8602489170     1.5213992269    -1.3481826244
   71      C       0.5513466655     3.9981356521     0.3304209855
   72      S      -0.8858299089     3.9373174326    -0.6422591460
   73      C       0.3836123678     4.9790428032     1.2606340612
   74      C      -1.5087201051     5.4677446337    -0.0282213740
   75      S       1.1638566203     5.2690757924     2.8056825302
   76      C      -0.7789375177     5.7519061713     1.0797640030
   77      C      -2.7621805574     6.1277508961    -0.3295428438
   78      C       0.0197168021     6.5885903795     3.1705583050
   79      C      -0.9397617484     6.7196067356     2.1521278334
   80      N      -3.2572910894     6.9938260510     0.5224691204
   81      S      -3.5132746939     5.7494807940    -1.8610826990
   82      C      -4.5594792029     7.2925085450     0.0252911996
   83      C      -4.8083871067     6.7458589524    -1.2733681392
   84      C       9.4114549620    -0.7257660755    -0.2557704862
   85      H       7.1891269283    -2.2032490947     0.0985429887
   86      H       4.8436074174    -1.2249105166     0.0385025778
   87      H       6.5521987200     2.7059521272    -0.0895389627
   88      H       4.9096992767     3.1710429717     1.2870140095
   89      H       0.1013152001     7.2378966821     4.0326238633
   90      H      -1.7064511093     7.4842969093     2.2194283695
   91      H      -5.1883504529     8.0079400127     0.5394281132
   92      H      -5.7102712915     6.8787542350    -1.8574158779
   93      H      10.1485096592    -0.0234646526     0.1528443505
   94      C       9.8159363452    -0.9804292254    -1.7198304203
   95      H       9.5286612374    -1.6300402177     0.3547202710
   96      H       9.7423931933    -0.0417657933    -2.2840080218
   97      H       9.1342929691    -1.7392546127    -2.1217649167
   98      C      11.1813079520    -1.6346848753    -1.9161029858
   99      H      11.5441926332    -2.0697484832    -0.9765459810
  100      C      12.2281655964    -0.6429692673    -2.4147403541
  101      H      11.1320495153    -2.4078247571    -2.6923293250
  102      H      12.3497332074     0.1830154337    -1.7023952203
  103      H      11.8311967446    -0.1775549513    -3.3256773690
  104      C      13.6009373705    -1.3234781859    -2.7816616916
  105      H      14.0932186564    -1.9364902116    -2.0165549069
  106      C      14.7270026892    -0.4050650438    -3.3087927934
  107      H      13.4125865327    -2.0451404553    -3.5864775282
  108      H      15.7285261755    -0.8427987773    -3.3933970781
  109      H      14.7536773404     0.4047508708    -2.5693202466
  110      H      14.3926314762     0.0498683308    -4.2498244170
 ----------------------------------------------------------------

   10   -5663.4990874186      6.67E-06 Convergence criterion met
 Total energy in the final basis set = -5663.4990874186

                    Orbital Energies (a.u.)
 --------------------------------------------------------------

 Alpha MOs
 -- Occupied --
-88.987 -88.980 -88.931 -88.926 -88.925 -88.923 -88.910 -88.903
-14.387 -14.385 -14.382 -14.380 -14.351 -14.351 -14.348 -14.344
-14.337 -14.330 -10.270 -10.270 -10.261 -10.259 -10.255 -10.250
-10.250 -10.250 -10.242 -10.242 -10.241 -10.240 -10.237 -10.235
-10.235 -10.234 -10.233 -10.232 -10.231 -10.230 -10.230 -10.229
-10.229 -10.225 -10.225 -10.224 -10.223 -10.222 -10.221 -10.218
-10.216 -10.208 -10.206 -10.203 -10.202 -10.201 -10.200 -10.193
-10.192 -10.185 -10.181 -10.180 -10.177 -10.176 -10.175 -10.174
-10.174 -10.174 -10.172 -10.167  -8.042  -8.036  -7.992  -7.986
 -7.985  -7.983  -7.970  -7.962  -6.008  -6.002  -6.001  -6.000
 -5.995  -5.993  -5.956  -5.953  -5.950  -5.949  -5.949  -5.948
 -5.947  -5.946  -5.944  -5.943  -5.941  -5.940  -5.935  -5.931
 -5.927  -5.927  -5.923  -5.918  -1.049  -1.042  -0.988  -0.967
 -0.957  -0.944  -0.938  -0.932  -0.918  -0.918  -0.913  -0.910
 -0.845  -0.837  -0.833  -0.826  -0.815  -0.814  -0.811  -0.804
 -0.802  -0.799  -0.799  -0.793  -0.786  -0.780  -0.767  -0.763
 -0.751  -0.746  -0.743  -0.731  -0.723  -0.720  -0.711  -0.705
 -0.695  -0.689  -0.679  -0.667  -0.660  -0.653  -0.647  -0.645
 -0.641  -0.632  -0.630  -0.625  -0.611  -0.601  -0.598  -0.596
 -0.594  -0.591  -0.589  -0.581  -0.576  -0.575  -0.567  -0.564
 -0.556  -0.546  -0.543  -0.536  -0.530  -0.520  -0.515  -0.509
 -0.508  -0.500  -0.500  -0.497  -0.487  -0.486  -0.481  -0.476
 -0.474  -0.472  -0.468  -0.467  -0.460  -0.457  -0.454  -0.445
 -0.441  -0.441  -0.441  -0.438  -0.436  -0.436  -0.434  -0.433
 -0.428  -0.426  -0.426  -0.421  -0.418  -0.416  -0.416  -0.412
 -0.409  -0.409  -0.407  -0.405  -0.403  -0.401  -0.399  -0.396
 -0.395  -0.391  -0.390  -0.387  -0.386  -0.382  -0.381  -0.380
 -0.377  -0.376  -0.375  -0.366  -0.362  -0.360  -0.358  -0.357
 -0.353  -0.351  -0.350  -0.349  -0.347  -0.346  -0.342  -0.339
 -0.338  -0.336  -0.333  -0.331  -0.330  -0.322  -0.320  -0.318
 -0.315  -0.315  -0.313  -0.310  -0.309  -0.305  -0.302  -0.299
 -0.299  -0.297  -0.295  -0.290  -0.288  -0.285  -0.283  -0.278
 -0.274  -0.271  -0.267  -0.264  -0.260  -0.258  -0.253  -0.245
 -0.245  -0.241  -0.237  -0.230  -0.196  -0.192

          Ground-State Mulliken Net Atomic Charges

     Atom                 Charge (a.u.)
  ----------------------------------------
      1 C                     0.292230
      2 C                    -0.113351
      3 N                    -0.498890
      4 C                    -0.103241
      5 C                     0.053640
      6 C                     0.065761
      7 C                     0.033835
      8 C                     0.063062
      9 C                     0.234833
     10 N                    -0.513166
     11 N                    -0.578531
     12 C                     0.239151
     13 C                     0.275896
     14 S                     0.610425
     15 N                    -0.581881
     16 C                    -0.186089
     17 S                     0.311920
     18 C                    -0.126014
     19 C                    -0.267441
     20 S                     0.281101
     21 C                     0.193536
     22 C                     0.081719
     23 C                    -0.316689
     24 C                    -0.041195
     25 N                    -0.432908
     26 S                     0.255987
     27 C                     0.122616
     28 C                    -0.307998
     29 C                    -0.239914
     30 H                     0.092727
     31 H                     0.103651
     32 H                     0.127399
     33 H                     0.116297
     34 H                     0.132123
     35 H                     0.132466
     36 H                     0.110756
     37 H                     0.135762
     38 H                     0.091307
     39 C                    -0.176279
     40 H                     0.116762
     41 H                     0.097771
     42 H                     0.126512
     43 C                    -0.182536
     44 H                     0.087175
     45 C                    -0.183475
     46 H                     0.084546
     47 H                     0.092281
     48 H                     0.102973
     49 C                    -0.184726
     50 H                     0.089570
     51 C                    -0.314085
     52 H                     0.091423
     53 H                     0.103732
     54 H                     0.116022
     55 H                     0.098369
     56 C                     0.272107
     57 C                    -0.098685
     58 N                    -0.475331
     59 C                    -0.106989
     60 C                     0.075575
     61 C                     0.041105
     62 C                     0.068418
     63 C                     0.021117
     64 C                     0.188760
     65 N                    -0.524985
     66 N                    -0.523706
     67 C                     0.248009
     68 C                     0.294546
     69 S                     0.618252
     70 N                    -0.579960
     71 C                    -0.221284
     72 S                     0.314117
     73 C                    -0.103952
     74 C                    -0.252613
     75 S                     0.271976
     76 C                     0.134439
     77 C                     0.099777
     78 C                    -0.312704
     79 C                    -0.046818
     80 N                    -0.444746
     81 S                     0.283530
     82 C                     0.103625
     83 C                    -0.306194
     84 C                    -0.236635
     85 H                     0.103169
     86 H                     0.131257
     87 H                     0.094762
     88 H                     0.119557
     89 H                     0.131866
     90 H                     0.129070
     91 H                     0.118044
     92 H                     0.129754
     93 H                     0.109921
     94 C                    -0.177870
     95 H                     0.097307
     96 H                     0.111534
     97 H                     0.086896
     98 C                    -0.173728
     99 H                     0.091893
    100 C                    -0.177297
    101 H                     0.089976
    102 H                     0.093416
    103 H                     0.093859
    104 C                    -0.183151
    105 H                     0.090391
    106 C                    -0.320510
    107 H                     0.088620
    108 H                     0.101784
    109 H                     0.101288
    110 H                     0.100517
  ----------------------------------------
  Sum of atomic charges =     0.000000

                    Cartesian Multipole Moments
 -----------------------------------------------------------------
    Charge (ESU x 10^10)
                 0.0000
    Dipole Moment (Debye)
         X      -4.8427      Y      -2.7514      Z       0.0902
       Tot       5.5704
    Quadrupole Moments (Debye-Ang)
        XX    -412.6807     XY     -37.0720     YY    -416.1962
        XZ       1.3905     YZ       0.0212     ZZ    -447.7883

 Total job time:  93.94s(wall), 1126.61s(cpu)
        *  Thank you very much for using Q-Chem.  Have a nice day.  *
