 Q-Chem 4.4, Q-Chem, Inc., Pleasanton, CA (2016)
 Q-Chem 4.4.2 for Intel X86 Linux

User input:
--------------------------------------------------------------
$comment
SP
$end

$rem
MEM_STATIC 5000
MEM_TOTAL 20000
JOBTYPE SP
EXCHANGE B3LYP
BASIS 6-31g(d,p)
$end

$molecule
0 1
C           5.971000    -10.574000      6.082000
C           7.032000    -10.569000      7.006000
N           6.065000    -10.341000      4.752000
C           8.309000    -10.419000      6.482000
C           7.296000    -10.209000      4.248000
C           8.495000    -10.183000      5.085000
C           9.822000     -9.918000      4.505000
C          10.611000     -8.807000      4.919000
C          10.454000    -10.622000      3.417000
N          11.799000     -8.430000      4.396000
N           9.840000    -11.685000      2.861000
C          11.728000    -10.268000      2.887000
C          12.382000     -9.143000      3.408000
S          10.859000    -12.132000      1.669000
N          12.082000    -11.030000      1.861000
C          13.686000     -8.691000      2.835000
S          14.494000     -9.184000      1.349000
C          14.394000     -7.558000      3.333000
C          15.712000     -7.978000      1.476000
S          14.096000     -6.501000      4.721000
C          15.503000     -7.211000      2.612000
C          16.666000     -7.706000      0.503000
C          15.547000     -5.597000      4.335000
C          16.205000     -6.110000      3.231000
N          16.272000     -7.991000     -0.746000
S          18.272000     -7.328000      0.776000
C          17.324000     -7.806000     -1.649000
C          18.455000     -7.501000     -0.987000
C           4.553000    -10.814000      6.618000
H           6.807000    -10.698000      8.061000
H           9.200000    -10.249000      7.080000
H           7.334000     -9.877000      3.212000
H          10.248000     -8.156000      5.713000
H          15.826000     -4.710000      4.888000
H          17.074000     -5.650000      2.775000
H          17.152000     -7.972000     -2.704000
H          19.409000     -7.172000     -1.379000
H           4.010000    -11.293000      5.794000
C           3.886000     -9.530000      7.214000
H           4.532000    -11.593000      7.390000
H           2.843000     -9.797000      7.421000
H           3.935000     -8.637000      6.578000
C           4.512000     -9.013000      8.596000
H           5.502000     -8.549000      8.504000
C           4.332000    -10.042000      9.751000
H           3.867000     -8.146000      8.781000
H           4.659000     -9.496000     10.644000
H           5.060000    -10.851000      9.616000
C           2.900000    -10.715000      9.847000
H           2.737000    -11.458000      9.057000
C           1.690000     -9.740000      9.998000
H           2.907000    -11.302000     10.774000
H           2.020000     -8.877000     10.589000
H           0.846000    -10.126000     10.584000
H           1.260000     -9.410000      9.044000
C          27.509000    -15.483000     -1.622000
C          26.515000    -16.018000     -2.400000
N          27.689000    -14.131000     -1.519000
C          25.673000    -15.098000     -3.110000
C          26.778000    -13.293000     -2.086000
C          25.671000    -13.688000     -2.877000
C          24.724000    -12.696000     -3.470000
C          24.404000    -11.467000     -2.728000
C          24.296000    -12.706000     -4.805000
N          23.676000    -10.487000     -3.261000
N          24.613000    -13.743000     -5.656000
C          23.477000    -11.751000     -5.362000
C          23.174000    -10.573000     -4.503000
S          23.957000    -13.311000     -7.077000
N          23.250000    -11.822000     -6.666000
C          22.375000     -9.447000     -4.972000
S          22.011000     -9.134000     -6.700000
C          21.976000     -8.353000     -4.235000
C          21.298000     -7.568000     -6.336000
S          22.189000     -7.908000     -2.505000
C          21.517000     -7.297000     -5.010000
C          20.710000     -6.672000     -7.273000
C          21.564000     -6.280000     -2.904000
C          21.207000     -6.131000     -4.251000
N          19.666000     -6.022000     -6.868000
S          21.129000     -6.497000     -8.989000
C          19.192000     -5.212000     -7.859000
C          19.870000     -5.309000     -9.040000
C          28.514000    -16.312000     -0.908000
H          26.347000    -17.089000     -2.466000
H          24.853000    -15.466000     -3.721000
H          26.923000    -12.220000     -1.969000
H          24.678000    -11.402000     -1.676000
H          21.248000     -5.588000     -2.135000
H          20.731000     -5.264000     -4.695000
H          18.328000     -4.579000     -7.702000
H          19.715000     -4.809000     -9.987000
H          28.322000    -17.349000     -1.209000
C          28.724000    -16.121000      0.603000
H          29.473000    -16.118000     -1.404000
H          28.825000    -15.040000      0.753000
H          29.697000    -16.553000      0.867000
C          27.586000    -16.660000      1.469000
H          27.526000    -17.748000      1.341000
C          26.220000    -15.936000      1.177000
H          27.857000    -16.322000      2.477000
H          25.706000    -16.383000      0.317000
H          26.264000    -14.857000      0.984000
C          25.269000    -16.128000      2.423000
H          24.277000    -15.775000      2.118000
C          25.728000    -15.444000      3.737000
H          25.178000    -17.175000      2.738000
H          26.636000    -15.951000      4.086000
H          24.878000    -15.578000      4.417000
H          25.869000    -14.370000      3.567000
$end

--------------------------------------------------------------

             Standard Nuclear Orientation (Angstroms)
    I     Atom           X                Y                Z
 ----------------------------------------------------------------
    1      C     -12.8451830057     0.8550911518     1.6877451666
    2      C     -12.4030629105     1.7428698765     0.6897968927
    3      N     -12.1178380990    -0.1305751357     2.2634676312
    4      C     -11.0602337726     1.6679796575     0.3448239059
    5      C     -10.8226207534    -0.1930239254     1.9389477145
    6      C     -10.2205595774     0.6639175082     0.9181540430
    7      C      -8.8187389221     0.4853179694     0.5051709257
    8      C      -8.4687537782     0.1782054812    -0.8407229478
    9      C      -7.6538758989     0.4792124613     1.3547831077
   10      N      -7.2265999073    -0.0842454398    -1.3045928380
   11      N      -7.7873003295     0.7117652647     2.6754716081
   12      C      -6.3320809227     0.2534295535     0.8739794893
   13      C      -6.1532494432    -0.0343573184    -0.4861602161
   14      S      -6.2654364859     0.5661804201     3.2427189039
   15      N      -5.4305929182     0.2486866567     1.8465702988
   16      C      -4.7943699475    -0.3491281354    -1.0222710712
   17      S      -3.3000393107    -0.7090979421    -0.1611632462
   18      C      -4.5585044212    -0.6418047451    -2.3976491485
   19      C      -2.4476261309    -1.1438923699    -1.5889008189
   20      S      -5.6258209426    -0.6023134950    -3.8089864166
   21      C      -3.2809309205    -1.0312651578    -2.6913454836
   22      C      -1.1677505820    -1.6842089256    -1.6172838963
   23      C      -4.2830062087    -1.0800631814    -4.8288966221
   24      C      -3.1079128604    -1.2257948242    -4.1127493530
   25      N      -0.8448353879    -2.3868743169    -0.5225468844
   26      S       0.0306361562    -1.3215685992    -2.7258912296
   27      C       0.4928376991    -2.7922581718    -0.5738561660
   28      C       1.0955786699    -2.2660309387    -1.6556224168
   29      C     -14.3053958180     0.9617322803     2.1482082080
   30      H     -13.1147913352     2.4416316740     0.2591397206
   31      H     -10.6165952770     2.1815361102    -0.5036038489
   32      H     -10.3020911200    -1.0787703884     2.2987617001
   33      H      -9.2491502106     0.1124299697    -1.5974666233
   34      H      -4.4165517746    -1.2843280476    -5.8828702680
   35      H      -2.1816416164    -1.5965108303    -4.5361737563
   36      H       0.8954976678    -3.3932891298     0.2303774674
   37      H       2.0761733849    -2.4778151424    -2.0625652335
   38      H     -14.3042347550     0.6256459494     3.1923876131
   39      C     -15.3130022460     0.2292895663     1.2010978886
   40      H     -14.6310049918     2.0048934391     2.2433894180
   41      H     -16.2830000677     0.2535233229     1.7114937653
   42      H     -15.0440629584    -0.8010960616     0.9359128263
   43      C     -15.5287184110     0.9166774737    -0.2307028660
   44      H     -14.6829351394     0.8091760690    -0.9213215057
   45      C     -16.1575491510     2.3369891442    -0.1186642166
   46      H     -16.2660787905     0.2281193454    -0.6598023588
   47      H     -16.3856666764     2.6070524234    -1.1567018941
   48      H     -15.3804241215     3.0395379615     0.2056687108
   49      C     -17.3620363662     2.4702339059     0.9032092502
   50      H     -17.0246413261     2.4538318751     1.9465757056
   51      C     -18.5777026800     1.5208161556     0.6617815205
   52      H     -17.7621238904     3.4823432371     0.7635250533
   53      H     -18.6842046397     1.3725210480    -0.4197062943
   54      H     -19.5559713330     1.9283040651     0.9475647360
   55      H     -18.4993348271     0.5545876180     1.1757629334
   56      C      10.0144918300     5.6447569694     0.3350778910
   57      C       9.6119178088     5.2488747952     1.5843802810
   58      N       9.9742830730     4.7927422684    -0.7342056099
   59      C       9.1519603605     3.8968794822     1.7258434190
   60      C       9.3916626340     3.5706738379    -0.5901355744
   61      C       8.8840830038     3.0338137094     0.6187064837
   62      C       8.2675174184     1.6745227270     0.6872404465
   63      C       7.4893164180     1.1737168363    -0.4560012877
   64      C       8.5757397310     0.7103331340     1.6572128352
   65      N       7.0313668872    -0.0760980299    -0.5081359920
   66      N       9.3861628896     1.0033622030     2.7330414781
   67      C       8.0545702516    -0.5628866406     1.6753451101
   68      C       7.2372489597    -0.9478823922     0.4916482837
   69      S       9.4958795049    -0.3976177668     3.5463178079
   70      N       8.5257872218    -1.4060722923     2.5830777380
   71      C       6.6707792919    -2.2819907021     0.3319450189
   72      S       7.1981843568    -3.7092228594     1.2813138969
   73      C       5.8416381911    -2.7118411054    -0.6814451655
   74      C       6.2385634856    -4.8044679802     0.2950142928
   75      S       5.1039881536    -1.8698912976    -2.0897373736
   76      C       5.7283160280    -4.0929383246    -0.7599980680
   77      C       6.1133453065    -6.2108295739     0.4766636121
   78      C       4.5983784159    -3.4694689161    -2.7109621603
   79      C       4.9567391488    -4.5349158856    -1.8740276703
   80      N       4.9459341823    -6.7182655086     0.2397648163
   81      S       7.3201036916    -7.3072446472     1.1784115633
   82      C       4.9547093117    -8.0646648649     0.4633465023
   83      C       6.1419787272    -8.5517943936     0.9291255887
   84      C      10.6025006840     6.9807585486     0.0586590639
   85      H       9.6141265878     5.9264413599     2.4332145827
   86      H       8.7965768252     3.5373126402     2.6879033075
   87      H       9.3437931849     2.9175105828    -1.4602673334
   88      H       7.1862048853     1.8744489703    -1.2325982715
   89      H       3.8665512919    -3.5670637656    -3.5015222819
   90      H       4.6816822785    -5.5749722361    -2.0082942186
   91      H       4.0684973541    -8.6660316039     0.3058015515
   92      H       6.4345218090    -9.5566530310     1.2039194460
   93      H      10.6991869334     7.4776729356     1.0315731717
   94      C       9.9995866692     7.8646701157    -1.0453776348
   95      H      11.6540991531     6.8010478747    -0.1966402379
   96      H       9.8965176843     7.2141505578    -1.9214273418
   97      H      10.7455018418     8.6208522773    -1.3189614317
   98      C       8.6442015411     8.4756296177    -0.6915688707
   99      H       8.7720315674     9.1568972721     0.1588791685
  100      C       7.5449354314     7.3797849969    -0.4344024125
  101      H       8.3319678827     8.9518531288    -1.6293696544
  102      H       7.5857442117     7.0061808366     0.5963058754
  103      H       7.5663783611     6.4963002303    -1.0843415388
  104      C       6.1213976708     8.0371878279    -0.6218664408
  105      H       5.3882222843     7.3061204667    -0.2617381776
  106      C       5.7793270494     8.5138102130    -2.0574679844
  107      H       5.9947311168     8.9618391261    -0.0450730975
  108      H       6.4345460134     9.3591724894    -2.3011167707
  109      H       4.7219190745     8.7987196341    -1.9977101699
  110      H       5.8727961362     7.6763159122    -2.7589833626
 ----------------------------------------------------------------

   10   -5663.5264270961      3.35E-06 Convergence criterion met
 Total energy in the final basis set = -5663.5264270961

                    Orbital Energies (a.u.)
 --------------------------------------------------------------

 Alpha MOs
 -- Occupied --
-88.990 -88.980 -88.933 -88.928 -88.928 -88.923 -88.918 -88.906
-14.395 -14.391 -14.382 -14.379 -14.354 -14.350 -14.346 -14.334
-14.329 -14.329 -10.273 -10.271 -10.261 -10.260 -10.258 -10.255
-10.253 -10.249 -10.249 -10.246 -10.243 -10.238 -10.236 -10.236
-10.235 -10.235 -10.232 -10.230 -10.230 -10.229 -10.229 -10.227
-10.227 -10.225 -10.224 -10.223 -10.222 -10.221 -10.219 -10.217
-10.215 -10.211 -10.209 -10.205 -10.201 -10.201 -10.200 -10.198
-10.189 -10.187 -10.184 -10.181 -10.181 -10.181 -10.178 -10.177
-10.176 -10.175 -10.174 -10.170  -8.045  -8.035  -7.995  -7.990
 -7.987  -7.982  -7.976  -7.965  -6.010  -6.005  -6.003  -6.001
 -5.995  -5.993  -5.958  -5.955  -5.953  -5.952  -5.951  -5.950
 -5.948  -5.947  -5.946  -5.944  -5.942  -5.940  -5.939  -5.937
 -5.932  -5.930  -5.926  -5.922  -1.038  -1.033  -0.988  -0.965
 -0.961  -0.949  -0.935  -0.931  -0.916  -0.910  -0.909  -0.905
 -0.844  -0.843  -0.834  -0.824  -0.818  -0.808  -0.806  -0.805
 -0.801  -0.799  -0.793  -0.792  -0.781  -0.778  -0.766  -0.762
 -0.751  -0.743  -0.740  -0.733  -0.728  -0.723  -0.710  -0.707
 -0.693  -0.690  -0.677  -0.671  -0.658  -0.656  -0.648  -0.641
 -0.637  -0.636  -0.626  -0.625  -0.617  -0.615  -0.599  -0.598
 -0.596  -0.593  -0.585  -0.584  -0.574  -0.574  -0.562  -0.555
 -0.547  -0.541  -0.539  -0.537  -0.530  -0.521  -0.519  -0.514
 -0.502  -0.501  -0.498  -0.496  -0.490  -0.485  -0.477  -0.474
 -0.473  -0.469  -0.467  -0.464  -0.463  -0.459  -0.454  -0.453
 -0.446  -0.444  -0.444  -0.441  -0.437  -0.435  -0.432  -0.430
 -0.429  -0.426  -0.422  -0.421  -0.419  -0.417  -0.412  -0.412
 -0.410  -0.405  -0.404  -0.403  -0.402  -0.400  -0.396  -0.395
 -0.392  -0.391  -0.389  -0.387  -0.386  -0.385  -0.384  -0.380
 -0.380  -0.377  -0.375  -0.375  -0.366  -0.362  -0.361  -0.356
 -0.353  -0.352  -0.350  -0.349  -0.347  -0.345  -0.344  -0.341
 -0.339  -0.338  -0.335  -0.332  -0.332  -0.327  -0.321  -0.317
 -0.315  -0.315  -0.313  -0.312  -0.308  -0.305  -0.298  -0.296
 -0.296  -0.294  -0.292  -0.289  -0.285  -0.283  -0.277  -0.274
 -0.273  -0.272  -0.266  -0.261  -0.258  -0.254  -0.253  -0.252
 -0.250  -0.243  -0.235  -0.230  -0.199  -0.192

          Ground-State Mulliken Net Atomic Charges

     Atom                 Charge (a.u.)
  ----------------------------------------
      1 C                     0.258637
      2 C                    -0.093225
      3 N                    -0.464813
      4 C                    -0.078166
      5 C                     0.101005
      6 C                     0.011447
      7 C                     0.020314
      8 C                     0.054746
      9 C                     0.182421
     10 N                    -0.526979
     11 N                    -0.531507
     12 C                     0.255654
     13 C                     0.323095
     14 S                     0.589375
     15 N                    -0.580383
     16 C                    -0.239590
     17 S                     0.378065
     18 C                    -0.134477
     19 C                    -0.220244
     20 S                     0.285188
     21 C                     0.152791
     22 C                     0.054442
     23 C                    -0.311855
     24 C                    -0.077277
     25 N                    -0.440047
     26 S                     0.276124
     27 C                     0.134755
     28 C                    -0.304666
     29 C                    -0.229380
     30 H                     0.100290
     31 H                     0.096727
     32 H                     0.105894
     33 H                     0.109242
     34 H                     0.131203
     35 H                     0.100801
     36 H                     0.130497
     37 H                     0.123563
     38 H                     0.112130
     39 C                    -0.178055
     40 H                     0.097638
     41 H                     0.102111
     42 H                     0.102134
     43 C                    -0.195329
     44 H                     0.094837
     45 C                    -0.180247
     46 H                     0.096911
     47 H                     0.093077
     48 H                     0.091233
     49 C                    -0.186844
     50 H                     0.102941
     51 C                    -0.325120
     52 H                     0.097797
     53 H                     0.107397
     54 H                     0.102609
     55 H                     0.109123
     56 C                     0.295700
     57 C                    -0.118417
     58 N                    -0.494416
     59 C                    -0.083489
     60 C                     0.069488
     61 C                     0.049922
     62 C                    -0.004735
     63 C                     0.064046
     64 C                     0.218239
     65 N                    -0.512053
     66 N                    -0.529219
     67 C                     0.233235
     68 C                     0.299795
     69 S                     0.595334
     70 N                    -0.563814
     71 C                    -0.234948
     72 S                     0.327270
     73 C                    -0.100084
     74 C                    -0.206897
     75 S                     0.277376
     76 C                     0.145203
     77 C                     0.024673
     78 C                    -0.329131
     79 C                    -0.039281
     80 N                    -0.407395
     81 S                     0.274233
     82 C                     0.121841
     83 C                    -0.301176
     84 C                    -0.224440
     85 H                     0.097031
     86 H                     0.102421
     87 H                     0.097810
     88 H                     0.122990
     89 H                     0.127262
     90 H                     0.119620
     91 H                     0.118100
     92 H                     0.137894
     93 H                     0.082358
     94 C                    -0.184154
     95 H                     0.120091
     96 H                     0.119218
     97 H                     0.085680
     98 C                    -0.168905
     99 H                     0.092216
    100 C                    -0.177815
    101 H                     0.096627
    102 H                     0.092479
    103 H                     0.103778
    104 C                    -0.190832
    105 H                     0.084874
    106 C                    -0.312795
    107 H                     0.088885
    108 H                     0.107067
    109 H                     0.102249
    110 H                     0.100979
  ----------------------------------------
  Sum of atomic charges =     0.000000

                    Cartesian Multipole Moments
 -----------------------------------------------------------------
    Charge (ESU x 10^10)
                 0.0000
    Dipole Moment (Debye)
         X       2.0782      Y      -1.3851      Z      -0.2379
       Tot       2.5088
    Quadrupole Moments (Debye-Ang)
        XX    -423.0338     XY     -35.7462     YY    -401.7069
        XZ      36.4788     YZ       8.7450     ZZ    -432.9470

 Total job time:  87.86s(wall), 1031.36s(cpu)
        *  Thank you very much for using Q-Chem.  Have a nice day.  *
