 Q-Chem 4.4, Q-Chem, Inc., Pleasanton, CA (2016)
 Q-Chem 4.4.2 for Intel X86 Linux

User input:
--------------------------------------------------------------
$comment
SP
$end

$rem
MEM_STATIC 5000
MEM_TOTAL 20000
JOBTYPE SP
EXCHANGE B3LYP
BASIS 6-31g(d,p)
$end

$molecule
0 1
C          14.797000     19.737000     15.106000
C          13.550000     20.192000     14.737000
N          15.827000     19.583000     14.242000
C          13.196000     20.298000     13.342000
C          15.517000     19.770000     12.917000
C          14.204000     19.946000     12.422000
C          13.881000     19.999000     10.958000
C          12.660000     19.451000     10.467000
C          14.756000     20.575000      9.991000
N          12.414000     19.309000      9.210000
N          15.794000     21.416000     10.216000
C          14.463000     20.424000      8.646000
C          13.276000     19.761000      8.266000
S          16.277000     22.016000      8.808000
N          15.282000     21.227000      7.896000
C          12.842000     19.701000      6.873000
S          13.502000     20.457000      5.416000
C          11.930000     18.730000      6.468000
C          12.542000     19.392000      4.329000
S          11.290000     17.447000      7.406000
C          11.725000     18.595000      5.084000
C          12.620000     19.383000      2.828000
C          10.524000     16.757000      5.901000
C          10.860000     17.467000      4.759000
N          11.477000     19.537000      2.166000
S          14.092000     19.321000      1.930000
C          11.727000     19.591000      0.841000
C          13.057000     19.584000      0.507000
C          15.154000     19.424000     16.547000
H          12.798000     20.334000     15.508000
H          12.168000     20.429000     13.019000
H          16.298000     19.437000     12.235000
H          11.902000     19.022000     11.121000
H           9.876000     15.892000      5.955000
H          10.588000     17.164000      3.755000
H          10.909000     19.647000      0.134000
H          13.554000     19.584000     -0.454000
H          15.685000     20.257000     17.023000
C          15.951000     18.110000     16.745000
H          14.167000     19.246000     16.991000
H          16.920000     18.383000     16.307000
H          15.589000     17.309000     16.089000
C          16.037000     17.490000     18.183000
H          16.096000     18.306000     18.913000
C          17.279000     16.611000     18.249000
H          15.059000     17.037000     18.386000
H          18.169000     17.159000     17.918000
H          17.106000     15.770000     17.566000
C          17.432000     15.970000     19.659000
H          17.634000     16.811000     20.333000
C          18.601000     14.960000     19.775000
H          16.496000     15.509000     19.998000
H          18.545000     14.097000     19.100000
H          18.570000     14.578000     20.803000
H          19.582000     15.447000     19.717000
C          19.714000     25.989000      7.822000
C          18.454000     26.552000      7.637000
N          20.158000     25.417000      8.963000
C          17.517000     26.459000      8.693000
C          19.305000     25.409000      9.993000
C          17.963000     25.884000      9.915000
C          17.011000     25.798000     11.064000
C          16.083000     26.847000     11.310000
C          16.896000     24.619000     11.848000
N          15.277000     26.800000     12.394000
N          17.632000     23.495000     11.707000
C          16.035000     24.589000     12.908000
C          15.286000     25.710000     13.151000
S          17.130000     22.492000     12.899000
N          16.085000     23.466000     13.657000
C          14.601000     25.883000     14.434000
S          14.905000     24.966000     15.916000
C          13.357000     26.545000     14.475000
C          13.274000     25.316000     16.427000
S          12.465000     27.461000     13.230000
C          12.624000     26.196000     15.617000
C          12.661000     24.561000     17.545000
C          11.024000     27.331000     14.310000
C          11.278000     26.636000     15.522000
N          11.493000     24.899000     18.076000
S          13.303000     23.092000     18.125000
C          11.082000     24.072000     19.053000
C          11.973000     23.066000     19.271000
C          20.741000     26.044000      6.725000
H          18.205000     27.000000      6.679000
H          16.497000     26.804000      8.552000
H          19.634000     24.832000     10.856000
H          15.969000     27.722000     10.672000
H          10.088000     27.635000     13.860000
H          10.515000     26.424000     16.263000
H          10.145000     24.329000     19.531000
H          11.830000     22.252000     19.968000
H          20.332000     26.415000      5.777000
C          21.487000     24.718000      6.524000
H          21.478000     26.823000      6.959000
H          20.797000     23.924000      6.212000
H          21.925000     24.403000      7.479000
C          22.633000     24.807000      5.433000
H          23.486000     25.330000      5.883000
C          22.212000     25.545000      4.159000
H          22.924000     23.782000      5.172000
H          22.280000     26.629000      4.318000
H          21.271000     25.107000      3.802000
C          23.341000     25.256000      3.079000
H          24.261000     25.463000      3.640000
C          23.258000     26.200000      1.901000
H          23.394000     24.213000      2.745000
H          22.379000     25.952000      1.292000
H          24.182000     25.877000      1.406000
H          23.352000     27.258000      2.177000
$end

--------------------------------------------------------------

             Standard Nuclear Orientation (Angstroms)
    I     Atom           X                Y                Z
 ----------------------------------------------------------------
    1      C      -4.2331303021    -1.9535835357     1.8177333465
    2      C      -4.0509637945    -2.4024247855     0.5279458074
    3      N      -3.2357966771    -1.4674216321     2.5923843931
    4      C      -2.7203483062    -2.6104433142     0.0095176889
    5      C      -1.9723234869    -1.5815143506     2.0657798458
    6      C      -1.6616978790    -2.2944977626     0.8846209293
    7      C      -0.2563483123    -2.5275066868     0.4143726579
    8      C       0.0942919976    -3.7443401782    -0.2402979670
    9      C       0.7905105380    -1.5772544483     0.5976681319
   10      N       1.3133057653    -4.0702261335    -0.5020856255
   11      N       0.6664429435    -0.2609982818     0.8933485950
   12      C       2.0909256264    -1.9439475967     0.2941360369
   13      C       2.3411527796    -3.2232665530    -0.2477748228
   14      S       2.0977046966     0.4400057187     0.7040441172
   15      N       2.9055219351    -0.8422008852     0.3197687809
   16      C       3.6666376155    -3.6103191039    -0.7228382634
   17      S       5.1627174974    -2.6793342386    -0.8809431892
   18      C       3.9912067062    -4.9569806034    -0.8634359559
   19      C       6.1606123269    -4.1622290532    -1.0873962786
   20      S       3.0350145476    -6.3095795911    -0.4255940503
   21      C       5.3410610926    -5.2578190462    -1.1146238672
   22      C       7.6578312389    -4.1930220635    -1.2160559853
   23      C       4.4557560923    -7.3997503602    -0.7733039254
   24      C       5.5994740431    -6.6928926137    -1.1100848264
   25      N       8.1570787613    -4.8242970477    -2.2746648865
   26      S       8.7426371327    -3.3592019359    -0.1648794218
   27      C       9.4997200854    -4.6895090033    -2.2883564076
   28      C      10.0049190789    -3.8749129527    -1.3076871202
   29      C      -5.5997818879    -1.9020968329     2.4746287435
   30      H      -4.9192704689    -2.7276206323    -0.0380932199
   31      H      -2.5407837452    -3.1708086538    -0.9026343020
   32      H      -1.1799431533    -1.3819983516     2.7857109348
   33      H      -0.6337361144    -4.5221346460    -0.4668632646
   34      H       4.3556061280    -8.4758784366    -0.7188672842
   35      H       6.5716109904    -7.1477973195    -1.2578023419
   36      H      10.0904000386    -5.1946807057    -3.0420192925
   37      H      11.0217627038    -3.6090655097    -1.0510079825
   38      H      -6.0384549679    -0.8986440862     2.4191804423
   39      C      -5.6336023313    -2.4111546873     3.9377505014
   40      H      -6.1608691929    -2.6392690279     1.8874769820
   41      H      -5.0850038668    -1.6112802336     4.4521186409
   42      H      -4.9959446571    -3.2922498368     4.0793309664
   43      C      -7.0192144793    -2.7684649184     4.5796604436
   44      H      -7.7704859557    -2.0626485013     4.2059608929
   45      C      -6.8832382663    -2.6665357522     6.0931603328
   46      H      -7.3283042479    -3.7251000693     4.1412374710
   47      H      -6.4630845332    -1.6977146079     6.3878150984
   48      H      -6.1923357335    -3.4611509440     6.4012826903
   49      C      -8.2314225113    -2.9993765126     6.7960161288
   50      H      -8.9096153271    -2.1869643448     6.5089586885
   51      C      -8.1487443368    -3.0425872775     8.3424359131
   52      H      -8.6693581437    -3.9292120889     6.4124067144
   53      H      -7.4494799071    -3.7803242659     8.7551142301
   54      H      -9.1540990304    -3.3086512252     8.6919225593
   55      H      -7.9843716302    -2.0506412510     8.7805211717
   56      C       3.3489036599     5.6365754003     0.7117056232
   57      C       3.3423686414     5.2723085421    -0.6321920475
   58      N       2.3021882359     5.5271956422     1.5594224920
   59      C       2.1779433679     4.6622449133    -1.1553460891
   60      C       1.1707598626     5.0346528941     1.0438214084
   61      C       1.0513984908     4.5557257098    -0.2937340539
   62      C      -0.2074075189     3.9461771830    -0.8207625384
   63      C      -0.6187899493     4.1887541623    -2.1601735676
   64      C      -0.9469425926     2.9969116843    -0.0658420870
   65      N      -1.7958283871     3.6981160903    -2.6082313745
   66      N      -0.6613776576     2.5805038318     1.1871583792
   67      C      -2.1081601997     2.4837209851    -0.5698559510
   68      C      -2.4963167322     2.8945773533    -1.8177431858
   69      S      -1.8634215503     1.5443056556     1.5874842707
   70      N      -2.7939029376     1.6799617970     0.2717841532
   71      C      -3.8643128876     2.6604164877    -2.2857156295
   72      S      -5.2518679552     2.2118107825    -1.2841803801
   73      C      -4.0969538821     2.3940114619    -3.6504015017
   74      C      -5.9868989438     1.4827501951    -2.6884531833
   75      S      -3.0210498362     2.4836380303    -5.0713668645
   76      C      -5.3085604389     1.7177080040    -3.8450221180
   77      C      -7.1411203274     0.5656394215    -2.5387908075
   78      C      -4.2735847122     1.5291332083    -5.9544625157
   79      C      -5.4100645832     1.2082775628    -5.1658243493
   80      N      -7.8348254151     0.1193483320    -3.5780340488
   81      S      -7.5667312953    -0.1426285733    -1.0475709205
   82      C      -8.8197816027    -0.7334765767    -3.2464771403
   83      C      -8.8746912477    -0.9434253069    -1.9024728764
   84      C       4.5673926640     6.2717452939     1.3224484112
   85      H       4.2388323123     5.4169415024    -1.2287682737
   86      H       2.1688606421     4.2818262413    -2.1724523462
   87      H       0.3845471335     4.8355935900     1.7705840506
   88      H      -0.0404218730     4.7651902474    -2.8805046083
   89      H      -3.9638256961     1.1547126833    -6.9213495941
   90      H      -6.2344845842     0.5999734552    -5.5214811708
   91      H      -9.4271850079    -1.0999617575    -4.0645552024
   92      H      -9.5478246394    -1.6312454324    -1.4098788123
   93      H       5.4364051003     6.2565044340     0.6529627118
   94      C       4.9226011648     5.7019426328     2.7024284286
   95      H       4.3977462839     7.3510665160     1.4275759777
   96      H       5.1763136013     4.6367456532     2.6326760506
   97      H       4.0479817880     5.7792180806     3.3598198271
   98      C       6.1492246601     6.4386122171     3.3837732197
   99      H       5.7921242644     7.4026730195     3.7667929014
  100      C       7.3233539476     6.6848291044     2.4320596805
  101      H       6.4910239033     5.8134187589     4.2178795782
  102      H       7.1269663285     7.5765830748     1.8228242914
  103      H       7.5730777968     5.7359195939     1.9401422688
  104      C       8.5535303312     7.1179816823     3.3395875916
  105      H       8.1092019822     7.8843116738     3.9871064426
  106      C       9.6677365487     7.7412504703     2.5297792668
  107      H       8.9372704907     6.3256327298     3.9931475565
  108      H      10.1667799428     6.9665499118     1.9332721542
  109      H      10.2931864526     8.0475148340     3.3772133688
  110      H       9.3600205392     8.6348522067     1.9719595879
 ----------------------------------------------------------------

    9   -5663.5125054936      8.79E-06 Convergence criterion met
 Total energy in the final basis set = -5663.5125054936

                    Orbital Energies (a.u.)
 --------------------------------------------------------------

 Alpha MOs
 -- Occupied --
-88.996 -88.983 -88.935 -88.925 -88.925 -88.922 -88.907 -88.905
-14.378 -14.377 -14.371 -14.371 -14.347 -14.347 -14.342 -14.336
-14.331 -14.327 -10.275 -10.264 -10.264 -10.253 -10.250 -10.247
-10.245 -10.245 -10.240 -10.238 -10.238 -10.236 -10.235 -10.234
-10.233 -10.231 -10.231 -10.228 -10.227 -10.226 -10.226 -10.226
-10.226 -10.225 -10.224 -10.224 -10.223 -10.220 -10.220 -10.219
-10.215 -10.214 -10.210 -10.204 -10.204 -10.202 -10.199 -10.198
-10.185 -10.179 -10.179 -10.178 -10.176 -10.175 -10.175 -10.174
-10.173 -10.172 -10.171 -10.170  -8.052  -8.038  -7.996  -7.987
 -7.984  -7.982  -7.966  -7.965  -6.017  -6.011  -6.010  -6.003
 -5.997  -5.996  -5.960  -5.957  -5.953  -5.951  -5.948  -5.947
 -5.946  -5.944  -5.944  -5.942  -5.940  -5.938  -5.930  -5.930
 -5.927  -5.926  -5.922  -5.921  -1.049  -1.035  -0.976  -0.971
 -0.971  -0.959  -0.938  -0.937  -0.909  -0.906  -0.896  -0.895
 -0.837  -0.835  -0.834  -0.827  -0.818  -0.810  -0.809  -0.802
 -0.801  -0.801  -0.797  -0.791  -0.784  -0.782  -0.765  -0.763
 -0.749  -0.746  -0.739  -0.736  -0.720  -0.720  -0.713  -0.705
 -0.694  -0.686  -0.677  -0.670  -0.654  -0.653  -0.645  -0.641
 -0.637  -0.632  -0.628  -0.623  -0.608  -0.604  -0.596  -0.592
 -0.588  -0.587  -0.578  -0.577  -0.575  -0.574  -0.573  -0.555
 -0.551  -0.547  -0.546  -0.536  -0.524  -0.517  -0.516  -0.508
 -0.508  -0.506  -0.502  -0.498  -0.486  -0.483  -0.480  -0.475
 -0.474  -0.474  -0.472  -0.466  -0.464  -0.463  -0.453  -0.448
 -0.446  -0.440  -0.439  -0.433  -0.432  -0.430  -0.428  -0.426
 -0.424  -0.423  -0.420  -0.418  -0.418  -0.417  -0.416  -0.413
 -0.412  -0.409  -0.409  -0.407  -0.405  -0.400  -0.399  -0.396
 -0.395  -0.391  -0.388  -0.387  -0.386  -0.385  -0.384  -0.383
 -0.382  -0.378  -0.373  -0.369  -0.364  -0.363  -0.357  -0.353
 -0.352  -0.352  -0.347  -0.345  -0.342  -0.341  -0.338  -0.336
 -0.335  -0.334  -0.328  -0.328  -0.326  -0.324  -0.320  -0.318
 -0.314  -0.309  -0.306  -0.305  -0.303  -0.300  -0.297  -0.294
 -0.290  -0.290  -0.288  -0.287  -0.285  -0.283  -0.281  -0.275
 -0.274  -0.269  -0.266  -0.264  -0.260  -0.256  -0.251  -0.250
 -0.243  -0.241  -0.234  -0.225  -0.197  -0.189

          Ground-State Mulliken Net Atomic Charges

     Atom                 Charge (a.u.)
  ----------------------------------------
      1 C                     0.280269
      2 C                    -0.111750
      3 N                    -0.477982
      4 C                    -0.082040
      5 C                     0.053105
      6 C                     0.050952
      7 C                     0.003167
      8 C                     0.073357
      9 C                     0.236959
     10 N                    -0.493154
     11 N                    -0.581918
     12 C                     0.182003
     13 C                     0.266488
     14 S                     0.649262
     15 N                    -0.539190
     16 C                    -0.183840
     17 S                     0.317731
     18 C                    -0.132152
     19 C                    -0.251753
     20 S                     0.278702
     21 C                     0.180660
     22 C                     0.012464
     23 C                    -0.315410
     24 C                    -0.048778
     25 N                    -0.389451
     26 S                     0.284753
     27 C                     0.130993
     28 C                    -0.309538
     29 C                    -0.234885
     30 H                     0.097056
     31 H                     0.108905
     32 H                     0.110293
     33 H                     0.112253
     34 H                     0.126915
     35 H                     0.115108
     36 H                     0.117842
     37 H                     0.132604
     38 H                     0.123903
     39 C                    -0.181903
     40 H                     0.086609
     41 H                     0.114886
     42 H                     0.092579
     43 C                    -0.182426
     44 H                     0.086687
     45 C                    -0.161819
     46 H                     0.092578
     47 H                     0.099670
     48 H                     0.092958
     49 C                    -0.179809
     50 H                     0.092416
     51 C                    -0.322060
     52 H                     0.093230
     53 H                     0.103769
     54 H                     0.098060
     55 H                     0.103900
     56 C                     0.282941
     57 C                    -0.123809
     58 N                    -0.479856
     59 C                    -0.081788
     60 C                     0.084812
     61 C                     0.021098
     62 C                    -0.012795
     63 C                     0.063391
     64 C                     0.259874
     65 N                    -0.509676
     66 N                    -0.577717
     67 C                     0.212784
     68 C                     0.271864
     69 S                     0.658986
     70 N                    -0.562624
     71 C                    -0.205808
     72 S                     0.322078
     73 C                    -0.123833
     74 C                    -0.231463
     75 S                     0.265880
     76 C                     0.175663
     77 C                     0.062537
     78 C                    -0.314984
     79 C                    -0.057544
     80 N                    -0.436415
     81 S                     0.264240
     82 C                     0.140349
     83 C                    -0.327949
     84 C                    -0.226091
     85 H                     0.092779
     86 H                     0.102418
     87 H                     0.118321
     88 H                     0.115379
     89 H                     0.131531
     90 H                     0.126435
     91 H                     0.116897
     92 H                     0.122672
     93 H                     0.094368
     94 C                    -0.182850
     95 H                     0.113386
     96 H                     0.084408
     97 H                     0.121829
     98 C                    -0.186340
     99 H                     0.090867
    100 C                    -0.162544
    101 H                     0.089911
    102 H                     0.093950
    103 H                     0.091349
    104 C                    -0.192344
    105 H                     0.091618
    106 C                    -0.308259
    107 H                     0.092287
    108 H                     0.102917
    109 H                     0.099681
    110 H                     0.101963
  ----------------------------------------
  Sum of atomic charges =     0.000000

                    Cartesian Multipole Moments
 -----------------------------------------------------------------
    Charge (ESU x 10^10)
                 0.0000
    Dipole Moment (Debye)
         X       2.4936      Y      -3.4468      Z       0.0179
       Tot       4.2543
    Quadrupole Moments (Debye-Ang)
        XX    -382.5845     XY      15.2968     YY    -439.8362
        XZ      -4.5429     YZ      -0.5006     ZZ    -452.0117

 Total job time:  84.76s(wall), 1006.86s(cpu)
        *  Thank you very much for using Q-Chem.  Have a nice day.  *
