 Q-Chem 4.4, Q-Chem, Inc., Pleasanton, CA (2016)
 Q-Chem 4.4.2 for Intel X86 Linux

User input:
--------------------------------------------------------------
$comment
SP
$end

$rem
MEM_STATIC 5000
MEM_TOTAL 20000
JOBTYPE SP
EXCHANGE B3LYP
BASIS 6-31g(d,p)
$end

$molecule
0 1
C          10.404000     23.563000      2.597000
C          11.311000     23.987000      3.548000
N           9.295000     22.853000      2.887000
C          11.186000     23.472000      4.865000
C           9.156000     22.401000      4.212000
C          10.069000     22.712000      5.243000
C           9.967000     22.329000      6.729000
C          10.557000     23.159000      7.686000
C           9.207000     21.243000      7.188000
N          10.432000     22.887000      8.991000
N           8.476000     20.459000      6.376000
C           9.153000     20.929000      8.557000
C           9.818000     21.749000      9.456000
S           7.737000     19.400000      7.382000
N           8.497000     19.839000      8.815000
C           9.663000     21.599000     10.862000
S           8.195000     21.045000     11.685000
C          10.484000     22.199000     11.847000
C           8.987000     21.347000     13.300000
S          11.928000     23.130000     11.624000
C          10.084000     22.095000     13.184000
C           8.272000     21.179000     14.576000
C          11.945000     23.422000     13.359000
C          10.916000     22.801000     14.074000
N           8.831000     21.515000     15.673000
S           6.708000     20.347000     14.684000
C           7.944000     21.354000     16.693000
C           6.747000     20.773000     16.366000
C          10.648000     23.945000      1.175000
H          12.145000     24.561000      3.156000
H          11.988000     23.568000      5.590000
H           8.203000     21.899000      4.371000
H          11.234000     23.981000      7.454000
H          12.829000     23.955000     13.685000
H          10.766000     22.850000     15.146000
H           8.208000     21.655000     17.698000
H           5.875000     20.624000     16.989000
H          11.622000     24.434000      1.046000
C           9.466000     24.800000      0.538000
H          10.852000     23.028000      0.609000
H           9.405000     25.807000      0.970000
H           8.500000     24.329000      0.757000
C           9.518000     24.962000     -0.998000
H          10.321000     25.676000     -1.219000
C           8.110000     25.433000     -1.516000
H           9.902000     24.095000     -1.551000
H           7.834000     26.377000     -1.031000
H           7.358000     24.650000     -1.360000
C           8.071000     25.741000     -3.041000
H           7.183000     26.383000     -3.105000
C           7.970000     24.493000     -3.918000
H           8.918000     26.408000     -3.242000
H           7.962000     24.730000     -4.989000
H           7.126000     23.831000     -3.687000
H           8.837000     23.881000     -3.643000
C          19.714000     25.989000      7.822000
C          18.454000     26.552000      7.637000
N          20.158000     25.417000      8.963000
C          17.517000     26.459000      8.693000
C          19.305000     25.409000      9.993000
C          17.963000     25.884000      9.915000
C          17.011000     25.798000     11.064000
C          16.083000     26.847000     11.310000
C          16.896000     24.619000     11.848000
N          15.277000     26.800000     12.394000
N          17.632000     23.495000     11.707000
C          16.035000     24.589000     12.908000
C          15.286000     25.710000     13.151000
S          17.130000     22.492000     12.899000
N          16.085000     23.466000     13.657000
C          14.601000     25.883000     14.434000
S          14.905000     24.966000     15.916000
C          13.357000     26.545000     14.475000
C          13.274000     25.316000     16.427000
S          12.465000     27.461000     13.230000
C          12.624000     26.196000     15.617000
C          12.661000     24.561000     17.545000
C          11.024000     27.331000     14.310000
C          11.278000     26.636000     15.522000
N          11.493000     24.899000     18.076000
S          13.303000     23.092000     18.125000
C          11.082000     24.072000     19.053000
C          11.973000     23.066000     19.271000
C          20.741000     26.044000      6.725000
H          18.205000     27.000000      6.679000
H          16.497000     26.804000      8.552000
H          19.634000     24.832000     10.856000
H          15.969000     27.722000     10.672000
H          10.088000     27.635000     13.860000
H          10.515000     26.424000     16.263000
H          10.145000     24.329000     19.531000
H          11.830000     22.252000     19.968000
H          20.332000     26.415000      5.777000
C          21.487000     24.718000      6.524000
H          21.478000     26.823000      6.959000
H          20.797000     23.924000      6.212000
H          21.925000     24.403000      7.479000
C          22.633000     24.807000      5.433000
H          23.486000     25.330000      5.883000
C          22.212000     25.545000      4.159000
H          22.924000     23.782000      5.172000
H          22.280000     26.629000      4.318000
H          21.271000     25.107000      3.802000
C          23.341000     25.256000      3.079000
H          24.261000     25.463000      3.640000
C          23.258000     26.200000      1.901000
H          23.394000     24.213000      2.745000
H          22.379000     25.952000      1.292000
H          24.182000     25.877000      1.406000
H          23.352000     27.258000      2.177000
$end

--------------------------------------------------------------

             Standard Nuclear Orientation (Angstroms)
    I     Atom           X                Y                Z
 ----------------------------------------------------------------
    1      C       6.9918826910    -3.4254735485    -0.2629791146
    2      C       6.2008092096    -2.3053920001    -0.4256015976
    3      N       6.5083111000    -4.6391515564     0.0705253222
    4      C       4.8437939772    -2.3822828186    -0.0158010838
    5      C       5.1463035051    -4.7096320577     0.4158046445
    6      C       4.2684239635    -3.6053359827     0.3600490260
    7      C       2.7571975440    -3.5971304805     0.6453845810
    8      C       1.9496425960    -2.6566576520     0.0002374157
    9      C       2.1234712332    -4.5666290625     1.4366749591
   10      N       0.6227348749    -2.6640556900     0.1788296009
   11      N       2.7728625471    -5.6056776777     1.9907777444
   12      C       0.7393202456    -4.5099161747     1.6745461257
   13      C      -0.0019312955    -3.5099760478     1.0634062928
   14      S       1.6030387330    -6.4675879103     2.7446086240
   15      N       0.3174914143    -5.4116574293     2.5075666218
   16      C      -1.4234260418    -3.4952107943     1.1133630117
   17      S      -2.4687507097    -4.9245660189     1.1725996617
   18      C      -2.2460347766    -2.3998237185     0.7560004177
   19      C      -3.9403925079    -3.8520052223     1.0697563080
   20      S      -1.7687598707    -0.7950485430     0.3104319042
   21      C      -3.6275625755    -2.6131304020     0.6906842659
   22      C      -5.3071811688    -4.3906062713     0.9726858884
   23      C      -3.4601075946    -0.4401658987    -0.0199908334
   24      C      -4.3468593502    -1.4901368233     0.2387356271
   25      N      -6.2942581497    -3.6038255495     0.7844277425
   26      S      -5.6788497176    -6.0965215466     1.2915895783
   27      C      -7.4296645618    -4.3402498845     0.6373853059
   28      C      -7.3048869619    -5.6893002658     0.8418177377
   29      C       8.4581331403    -3.2904631095    -0.5067531934
   30      H       6.7394302747    -1.4063073217    -0.7088507624
   31      H       4.2379628166    -1.4905584404     0.1100608963
   32      H       4.8280629449    -5.7340491937     0.6023159773
   33      H       2.3283626738    -1.8098537566    -0.5718912984
   34      H      -3.6280106245     0.5989273293    -0.2728046704
   35      H      -5.4225273851    -1.4610481403     0.1115462903
   36      H      -8.3665857285    -3.8558883442     0.3967722853
   37      H      -8.0449201215    -6.4659727300     0.7009461437
   38      H       8.7484534389    -2.2456372477    -0.6755460922
   39      C       8.9991664591    -4.2495684098    -1.6562391528
   40      H       8.9753234263    -3.4491680713     0.4472845119
   41      H       8.6397323358    -3.9489193587    -2.6486157240
   42      H       8.6222460097    -5.2684233125    -1.5051641315
   43      C      10.5367676697    -4.3771075776    -1.7443315922
   44      H      10.9128115750    -3.4413111532    -2.1759819524
   45      C      10.9020622298    -5.6449652721    -2.5997412898
   46      H      11.0681548037    -4.3491828647    -0.7842264290
   47      H      10.4576683281    -5.5581948904    -3.5985015018
   48      H      10.5917074088    -6.5622903616    -2.0848397795
   49      C      12.4279699682    -5.8140754075    -2.8547262615
   50      H      12.4245146991    -6.4742181171    -3.7316548014
   51      C      13.1883350843    -6.4033923596    -1.6667092498
   52      H      12.7864054046    -4.8475664210    -3.2290034543
   53      H      14.2640355953    -6.4977704611    -1.8596734554
   54      H      12.8010010010    -7.3612225950    -1.2972846322
   55      H      12.9826997797    -5.7235021119    -0.8316515436
   56      C       3.2127928580     6.8449045161     0.0532730718
   57      C       3.2748978741     5.7924566195    -0.8562819798
   58      N       2.0991613163     7.2632363780     0.6943847956
   59      C       2.1025302798     5.0339802864    -1.0843650260
   60      C       0.9697540754     6.6052537836     0.4114162640
   61      C       0.9088441910     5.4651436247    -0.4424641793
   62      C      -0.3568924039     4.7081194680    -0.6847992746
   63      C      -0.6414806233     4.1747513776    -1.9719002907
   64      C      -1.2354614173     4.3682146722     0.3784519744
   65      N      -1.8211247347     3.5576234225    -2.2053394848
   66      N      -1.0851716575     4.7135064382     1.6758106697
   67      C      -2.3972179587     3.7006014601     0.1130554078
   68      C      -2.6502672761     3.3570331978    -1.1887194929
   69      S      -2.4040233831     4.1190895188     2.4414317586
   70      N      -3.2156214323     3.5279074567     1.1737262029
   71      C      -3.9944946326     2.9477755426    -1.6020038813
   72      S      -5.4893073235     3.1824456213    -0.6854374770
   73      C      -4.1463425349     1.9724536026    -2.6085575698
   74      C      -6.1793753397     1.8185854351    -1.5265519315
   75      S      -2.9620401739     1.2165064002    -3.7088833147
   76      C      -5.3965574264     1.3442223775    -2.5341112618
   77      C      -7.4208085387     1.1812003572    -1.0282529500
   78      C      -4.2261465624    -0.0255199915    -4.0541172657
   79      C      -5.4438039225     0.1875903008    -3.3552756837
   80      N      -8.0716275144     0.2542067183    -1.7193003102
   81      S      -8.0214686243     1.4417515753     0.5458644295
   82      C      -9.1529088779    -0.2340057282    -1.0869568749
   83      C      -9.3286581078     0.3447271172     0.1327240268
   84      C       4.4344946078     7.6712927346     0.3460022078
   85      H       4.2235187598     5.5487231102    -1.3265812374
   86      H       2.1358273340     4.1508035988    -1.7153929531
   87      H       0.1157336073     6.8728898974     1.0318668669
   88      H       0.0402710812     4.2304645145    -2.8191167092
   89      H      -3.8795340053    -0.8864460085    -4.6106045777
   90      H      -6.2911307602    -0.4873429156    -3.4072023953
   91      H      -9.7275076676    -0.9742218042    -1.6295602215
   92      H     -10.0974290103     0.0726822392     0.8425387094
   93      H       5.3467391442     7.2552672314    -0.0993725630
   94      C       4.6302385935     7.9580529857     1.8408753966
   95      H       4.3569979566     8.6301898412    -0.1824640712
   96      H       4.7898141896     7.0277825797     2.4003506873
   97      H       3.7190302982     8.4189191498     2.2413698674
   98      C       5.8639621777     8.9077224138     2.1368012236
   99      H       5.5686920484     9.9326902641     1.8801020674
  100      C       7.1245353844     8.5403805878     1.3487808092
  101      H       6.0827381865     8.8440678539     3.2098865673
  102      H       7.0575047813     8.9456484162     0.3308290002
  103      H       7.3228439790     7.4707592776     1.4949244168
  104      C       8.3168051637     9.3647687799     1.9995026254
  105      H       7.8967332981    10.3765946027     2.0604791115
  106      C       9.5416703333     9.3911932191     1.1136606161
  107      H       8.5756044479     9.0603085940     3.0205515594
  108      H      10.0114304080     8.3990804386     1.1056792037
  109      H      10.1264404224    10.0972949680     1.7158186212
  110      H       9.3603700209     9.8304796008     0.1244520073
 ----------------------------------------------------------------

   10   -5663.5080499651      7.41E-06 Convergence criterion met
 Total energy in the final basis set = -5663.5080499651

                    Orbital Energies (a.u.)
 --------------------------------------------------------------

 Alpha MOs
 -- Occupied --
-88.995 -88.985 -88.929 -88.929 -88.922 -88.922 -88.911 -88.904
-14.390 -14.384 -14.384 -14.383 -14.350 -14.345 -14.341 -14.336
-14.330 -14.329 -10.268 -10.267 -10.256 -10.255 -10.255 -10.252
-10.249 -10.248 -10.245 -10.241 -10.239 -10.237 -10.237 -10.237
-10.233 -10.230 -10.229 -10.228 -10.228 -10.228 -10.227 -10.227
-10.227 -10.227 -10.226 -10.225 -10.222 -10.222 -10.217 -10.217
-10.217 -10.212 -10.207 -10.202 -10.201 -10.201 -10.197 -10.194
-10.186 -10.180 -10.180 -10.177 -10.176 -10.175 -10.175 -10.174
-10.173 -10.172 -10.171 -10.170  -8.050  -8.040  -7.990  -7.989
 -7.983  -7.981  -7.970  -7.965  -6.015  -6.010  -6.008  -6.005
 -6.000  -5.998  -5.954  -5.953  -5.951  -5.949  -5.948  -5.947
 -5.945  -5.945  -5.944  -5.942  -5.940  -5.937  -5.935  -5.931
 -5.929  -5.926  -5.925  -5.921  -1.047  -1.039  -0.985  -0.975
 -0.967  -0.953  -0.940  -0.925  -0.914  -0.914  -0.909  -0.906
 -0.840  -0.840  -0.834  -0.829  -0.817  -0.811  -0.808  -0.806
 -0.802  -0.798  -0.796  -0.794  -0.784  -0.781  -0.767  -0.763
 -0.749  -0.746  -0.741  -0.740  -0.725  -0.718  -0.709  -0.707
 -0.691  -0.690  -0.678  -0.675  -0.657  -0.656  -0.648  -0.648
 -0.638  -0.637  -0.627  -0.627  -0.608  -0.606  -0.597  -0.594
 -0.592  -0.590  -0.584  -0.582  -0.577  -0.575  -0.563  -0.556
 -0.553  -0.552  -0.544  -0.539  -0.526  -0.523  -0.514  -0.512
 -0.509  -0.504  -0.504  -0.496  -0.487  -0.481  -0.480  -0.478
 -0.477  -0.473  -0.471  -0.467  -0.463  -0.455  -0.452  -0.450
 -0.441  -0.440  -0.438  -0.436  -0.436  -0.434  -0.431  -0.430
 -0.427  -0.426  -0.422  -0.420  -0.420  -0.416  -0.415  -0.413
 -0.412  -0.411  -0.409  -0.403  -0.401  -0.401  -0.399  -0.397
 -0.393  -0.391  -0.391  -0.390  -0.388  -0.386  -0.385  -0.383
 -0.377  -0.376  -0.375  -0.373  -0.365  -0.362  -0.358  -0.355
 -0.354  -0.352  -0.352  -0.348  -0.348  -0.346  -0.342  -0.341
 -0.338  -0.336  -0.334  -0.332  -0.329  -0.327  -0.321  -0.316
 -0.314  -0.312  -0.310  -0.309  -0.307  -0.304  -0.298  -0.296
 -0.293  -0.292  -0.292  -0.288  -0.284  -0.283  -0.280  -0.279
 -0.273  -0.269  -0.268  -0.262  -0.256  -0.253  -0.253  -0.249
 -0.246  -0.240  -0.231  -0.231  -0.195  -0.191

          Ground-State Mulliken Net Atomic Charges

     Atom                 Charge (a.u.)
  ----------------------------------------
      1 C                     0.292841
      2 C                    -0.114505
      3 N                    -0.498248
      4 C                    -0.104232
      5 C                     0.061612
      6 C                     0.065407
      7 C                     0.032459
      8 C                     0.062000
      9 C                     0.224975
     10 N                    -0.511879
     11 N                    -0.555580
     12 C                     0.243132
     13 C                     0.274761
     14 S                     0.585055
     15 N                    -0.580289
     16 C                    -0.187579
     17 S                     0.305764
     18 C                    -0.124450
     19 C                    -0.268283
     20 S                     0.274481
     21 C                     0.191261
     22 C                     0.080954
     23 C                    -0.309167
     24 C                    -0.048810
     25 N                    -0.430668
     26 S                     0.254035
     27 C                     0.122953
     28 C                    -0.309254
     29 C                    -0.236261
     30 H                     0.088627
     31 H                     0.100408
     32 H                     0.123820
     33 H                     0.114635
     34 H                     0.138325
     35 H                     0.139041
     36 H                     0.106268
     37 H                     0.133774
     38 H                     0.088296
     39 C                    -0.173905
     40 H                     0.118037
     41 H                     0.094271
     42 H                     0.124946
     43 C                    -0.181607
     44 H                     0.085076
     45 C                    -0.181096
     46 H                     0.090749
     47 H                     0.090397
     48 H                     0.097740
     49 C                    -0.177855
     50 H                     0.086847
     51 C                    -0.316084
     52 H                     0.091407
     53 H                     0.102874
     54 H                     0.104523
     55 H                     0.104861
     56 C                     0.285403
     57 C                    -0.122963
     58 N                    -0.479402
     59 C                    -0.076979
     60 C                     0.087671
     61 C                     0.026087
     62 C                    -0.010044
     63 C                     0.065927
     64 C                     0.260291
     65 N                    -0.505355
     66 N                    -0.557731
     67 C                     0.222660
     68 C                     0.266414
     69 S                     0.617189
     70 N                    -0.558732
     71 C                    -0.218167
     72 S                     0.313814
     73 C                    -0.124918
     74 C                    -0.232065
     75 S                     0.272604
     76 C                     0.177113
     77 C                     0.065758
     78 C                    -0.309499
     79 C                    -0.055023
     80 N                    -0.438272
     81 S                     0.276058
     82 C                     0.140655
     83 C                    -0.325018
     84 C                    -0.226372
     85 H                     0.092589
     86 H                     0.101753
     87 H                     0.116146
     88 H                     0.119131
     89 H                     0.136444
     90 H                     0.129326
     91 H                     0.116862
     92 H                     0.125082
     93 H                     0.094408
     94 C                    -0.182687
     95 H                     0.113427
     96 H                     0.086653
     97 H                     0.121570
     98 C                    -0.186933
     99 H                     0.090623
    100 C                    -0.162406
    101 H                     0.090576
    102 H                     0.093574
    103 H                     0.091335
    104 C                    -0.192105
    105 H                     0.091481
    106 C                    -0.308404
    107 H                     0.092780
    108 H                     0.103087
    109 H                     0.099987
    110 H                     0.101737
  ----------------------------------------
  Sum of atomic charges =     0.000000

                    Cartesian Multipole Moments
 -----------------------------------------------------------------
    Charge (ESU x 10^10)
                 0.0000
    Dipole Moment (Debye)
         X      -1.8142      Y      -0.7154      Z       0.0634
       Tot       1.9512
    Quadrupole Moments (Debye-Ang)
        XX    -402.6593     XY      33.0620     YY    -448.3706
        XZ     -15.8692     YZ       2.7664     ZZ    -448.9411

 Total job time:  92.91s(wall), 1108.44s(cpu)
        *  Thank you very much for using Q-Chem.  Have a nice day.  *
