 Q-Chem 4.4, Q-Chem, Inc., Pleasanton, CA (2016)
 Q-Chem 4.4.2 for Intel X86 Linux

User input:
--------------------------------------------------------------
$comment
SP
$end

$rem
MEM_STATIC 5000
MEM_TOTAL 20000
JOBTYPE SP
EXCHANGE B3LYP
BASIS 6-31g(d,p)
$end

$molecule
0 1
C          -3.156000     -9.386000      1.158000
C          -2.421000     -8.866000      0.031000
N          -4.273000     -8.823000      1.557000
C          -2.874000     -7.755000     -0.686000
C          -4.648000     -7.659000      0.944000
C          -3.999000     -7.038000     -0.191000
C          -4.539000     -5.783000     -0.858000
C          -5.885000     -5.488000     -0.832000
C          -3.718000     -4.826000     -1.481000
N          -6.425000     -4.401000     -1.479000
N          -2.390000     -4.834000     -1.470000
C          -4.229000     -3.691000     -2.094000
C          -5.635000     -3.462000     -2.062000
S          -1.911000     -3.524000     -2.349000
N          -3.338000     -2.910000     -2.769000
C          -6.305000     -2.357000     -2.712000
S          -5.548000     -1.034000     -3.675000
C          -7.649000     -2.015000     -2.664000
C          -7.084000     -0.173000     -3.956000
S          -8.902000     -2.946000     -1.903000
C          -8.021000     -0.827000     -3.262000
C          -7.303000      0.995000     -4.691000
C          -9.944000     -1.549000     -2.291000
C          -9.351000     -0.556000     -3.030000
N          -8.421000      1.149000     -5.374000
S          -6.178000      2.331000     -4.749000
C          -8.533000      2.460000     -5.860000
C          -7.378000      3.161000     -5.665000
C          -2.753000    -10.680000      1.919000
H          -1.564000     -9.449000     -0.292000
H          -2.380000     -7.572000     -1.636000
H          -5.524000     -7.199000      1.399000
H          -6.615000     -6.215000     -0.480000
H         -10.971000     -1.607000     -1.955000
H          -9.867000      0.328000     -3.387000
H          -9.457000      2.719000     -6.361000
H          -7.119000      4.182000     -5.912000
H          -1.717000    -10.852000      1.600000
C          -3.714000    -11.919000      1.698000
H          -2.718000    -10.508000      3.002000
H          -3.110000    -12.801000      1.946000
H          -3.923000    -12.009000      0.625000
C          -5.037000    -11.825000      2.447000
H          -4.701000    -11.652000      3.477000
C          -5.842000    -13.160000      2.401000
H          -5.657000    -11.045000      1.987000
H          -5.500000    -13.846000      3.186000
H          -5.480000    -13.717000      1.528000
C          -7.376000    -13.046000      2.484000
H          -7.665000    -12.302000      1.731000
C          -7.855000    -12.565000      3.844000
H          -7.782000    -14.003000      2.135000
H          -7.945000    -13.433000      4.509000
H          -8.853000    -12.111000      3.867000
H          -7.228000    -11.818000      4.347000
C         -12.095000     -4.437000     -3.492000
C         -11.539000     -5.317000     -2.550000
N         -12.951000     -3.505000     -3.078000
C         -11.915000     -5.250000     -1.193000
C         -13.397000     -3.483000     -1.767000
C         -12.782000     -4.221000     -0.784000
C         -13.180000     -4.100000      0.607000
C         -12.199000     -3.988000      1.580000
C         -14.534000     -3.953000      1.103000
N         -12.511000     -3.803000      2.876000
N         -15.613000     -3.950000      0.244000
C         -14.773000     -3.814000      2.438000
C         -13.720000     -3.782000      3.348000
S         -16.861000     -3.938000      1.267000
N         -16.118000     -3.765000      2.710000
C         -13.892000     -3.776000      4.828000
S         -15.291000     -3.107000      5.734000
C         -13.054000     -4.383000      5.650000
C         -14.621000     -3.732000      7.237000
S         -11.552000     -5.205000      5.211000
C         -13.460000     -4.401000      7.001000
C         -15.124000     -3.426000      8.554000
C         -11.323000     -5.360000      6.977000
C         -12.364000     -4.908000      7.811000
N         -14.808000     -4.248000      9.544000
S         -16.227000     -2.128000      8.961000
C         -15.243000     -3.748000     10.767000
C         -15.920000     -2.582000     10.587000
C         -11.633000     -4.452000     -5.045000
H         -10.975000     -6.163000     -2.930000
H         -11.424000     -5.863000     -0.443000
H         -14.249000     -2.868000     -1.481000
H         -11.184000     -4.143000      1.218000
H         -10.373000     -5.799000      7.249000
H         -12.297000     -4.807000      8.888000
H         -14.967000     -4.184000     11.718000
H         -16.497000     -2.009000     11.301000
H         -11.959000     -5.371000     -5.549000
C         -10.131000     -4.369000     -5.288000
H         -12.154000     -3.659000     -5.595000
H          -9.597000     -5.207000     -4.823000
H          -9.689000     -3.503000     -4.780000
C          -9.762000     -4.347000     -6.775000
H         -10.448000     -3.653000     -7.274000
C          -9.581000     -5.688000     -7.469000
H          -8.793000     -3.838000     -6.849000
H         -10.514000     -6.263000     -7.435000
H          -8.970000     -6.310000     -6.803000
C          -9.036000     -5.695000     -8.906000
H          -9.560000     -5.003000     -9.576000
C          -9.203000     -7.083000     -9.464000
H          -8.028000     -5.301000     -8.730000
H         -10.233000     -7.427000     -9.308000
H          -8.556000     -7.839000     -9.002000
H          -8.993000     -7.196000    -10.535000
$end

--------------------------------------------------------------

             Standard Nuclear Orientation (Angstroms)
    I     Atom           X                Y                Z
 ----------------------------------------------------------------
    1      C      -3.1811036978    -7.4311578310    -0.6171476018
    2      C      -4.5324271640    -6.9662217257    -0.8133956788
    3      N      -2.1742650100    -6.5896059770    -0.5732689766
    4      C      -4.8236308595    -5.6060814803    -0.9506469827
    5      C      -2.4380507994    -5.2742441884    -0.8407206962
    6      C      -3.7432804226    -4.6856955098    -1.0529778129
    7      C      -3.9448377420    -3.1934852019    -1.2632087430
    8      C      -3.0665508086    -2.2759213415    -0.7283203203
    9      C      -4.9808018455    -2.6579277684    -2.0493229916
   10      N      -3.2474265722    -0.9167092217    -0.8360439081
   11      N      -5.8284661806    -3.3682406132    -2.7846391395
   12      C      -5.1559583983    -1.2924272041    -2.2220753892
   13      C      -4.2322755342    -0.3947258644    -1.6127780305
   14      S      -6.8507615287    -2.2844867911    -3.4907353614
   15      N      -6.2711040542    -0.9029109946    -2.9033934418
   16      C      -4.3321950300     1.0475974242    -1.6590881318
   17      S      -5.5983161446     2.0292520272    -2.4861543707
   18      C      -3.4399103953     1.9898997366    -1.1676631805
   19      C      -4.8501767914     3.5941425127    -2.0726531292
   20      S      -2.0208362512     1.6442112867    -0.2281850972
   21      C      -3.6949484505     3.3152933104    -1.4602712200
   22      C      -5.3078493731     4.8807339844    -2.3686737243
   23      C      -1.6902050530     3.3909703033    -0.3938140465
   24      C      -2.6688929894     4.1213909709    -1.0202919563
   25      N      -5.1134740880     5.8667624546    -1.5142176959
   26      S      -6.1205748742     5.3037383190    -3.8567696866
   27      C      -5.4545959076     7.1001273135    -2.0885939045
   28      C      -6.0730185613     6.9312332236    -3.2937823577
   29      C      -2.8181667757    -8.9190118045    -0.3515664577
   30      H      -5.3129307524    -7.7170473892    -0.7376198803
   31      H      -5.8735363970    -5.3375564143    -0.8756959892
   32      H      -1.5405333378    -4.6593272299    -0.8890998275
   33      H      -2.3036204548    -2.5765738828    -0.0121650825
   34      H      -0.7695186002     3.7501198272     0.0470227432
   35      H      -2.6372491619     5.1972812856    -1.1492093674
   36      H      -5.2497108516     7.9865869165    -1.5020195391
   37      H      -6.4615192514     7.6549236315    -3.9979630215
   38      H      -3.7242700525    -9.4606906318    -0.6519027691
   39      C      -2.3273745034    -9.2410114512     1.1191211954
   40      H      -2.0192338539    -9.2577701899    -1.0228688804
   41      H      -2.4990653979   -10.3167003402     1.2520108145
   42      H      -3.0091118794    -8.7538185660     1.8269257184
   43      C      -0.9053247272    -8.7838783085     1.4173991258
   44      H      -0.3409888145    -9.2585891366     0.6050570752
   45      C      -0.3783942602    -9.3317502580     2.7792165181
   46      H      -0.8819279584    -7.6877847132     1.4667085743
   47      H       0.0226310398   -10.3460022279     2.6598153020
   48      H      -1.2605590555    -9.5749000001     3.3842664969
   49      C       0.6704743120    -8.4730704780     3.5110530801
   50      H       0.2578432801    -7.4569260327     3.5464380744
   51      C       2.0024300374    -8.4261467988     2.7802356515
   52      H       0.6965646485    -8.8252318274     4.5492186153
   53      H       2.5962384394    -9.2982230491     3.0812731830
   54      H       2.6489096400    -7.5726862791     3.0175503471
   55      H       1.9581977928    -8.4100586251     1.6839092042
   56      C      -1.1273718481     2.8772389788     3.3249283363
   57      C      -0.7381988340     1.5412401833     3.1390477739
   58      N      -0.2892558367     3.8489941075     2.9699501379
   59      C       0.5383773346     1.2277690987     2.6297314038
   60      C       0.9987783310     3.5580318759     2.5523020054
   61      C       1.3766453641     2.2794029981     2.2184117564
   62      C       2.6916334481     2.0035505509     1.6682865286
   63      C       2.7984953313     1.1672331221     0.5679285431
   64      C       3.9387616015     2.6210270473     2.0736692434
   65      N       3.9834211922     0.9328739785    -0.0255455473
   66      N       3.9784466744     3.5472062893     3.0948196273
   67      C       5.1078789876     2.2979146204     1.4512305740
   68      C       5.1227789258     1.3903236930     0.3957734691
   69      S       5.5640163217     3.7905921577     3.2706297886
   70      N       6.1812998558     2.9305551614     2.0282432129
   71      C       6.3637050444     0.8731808396    -0.2466326622
   72      S       7.9361440618     1.7323025174    -0.3688761863
   73      C       6.4706111969    -0.3591064798    -0.7118380330
   74      C       8.6720089667     0.2934719018    -1.0665890939
   75      S       5.1933082843    -1.5792808010    -0.7757199193
   76      C       7.7646864746    -0.7173910303    -1.1446917687
   77      C       9.9922370058     0.2409093786    -1.6456997102
   78      C       6.3992497996    -2.5455792640    -1.6741598684
   79      C       7.6928456686    -2.0064329845    -1.8137020370
   80      N      10.5709552848    -0.9454119656    -1.7613146829
   81      S      10.9724954922     1.6174448145    -2.1053794828
   82      C      11.7693064242    -0.8508961322    -2.4612970426
   83      C      12.0308549627     0.4459763010    -2.7775236290
   84      C      -2.6107531243     3.2650755010     3.8489901850
   85      H      -1.3648314805     0.7731441041     3.5812829371
   86      H       0.8142462877     0.2036722502     2.3963391039
   87      H       1.7467723826     4.3452856777     2.4706849102
   88      H       1.8725488241     0.6670296972     0.2891569529
   89      H       6.0085170636    -3.4846425726    -2.0411653608
   90      H       8.4688481029    -2.4122835765    -2.4522351363
   91      H      12.3316084245    -1.7134353124    -2.7937359440
   92      H      12.9297199316     0.8800783870    -3.1954364747
   93      H      -2.7558383924     2.9630870936     4.8942682661
   94      C      -3.7675143513     2.6357012951     3.0823523483
   95      H      -2.7203411226     4.3558804931     3.8794030090
   96      H      -3.7297710478     1.5397994821     3.1169884463
   97      H      -3.6924674440     2.8355581985     2.0063369302
   98      C      -5.1417171735     3.0727131880     3.6004268689
   99      H      -5.1027761823     4.1558732498     3.7631563370
  100      C      -5.7452356495     2.2688497136     4.7415872273
  101      H      -5.8394453879     2.9705721896     2.7600337731
  102      H      -5.0991424577     2.3195675547     5.6260425898
  103      H      -5.6106025196     1.2095827409     4.4894198212
  104      C      -7.1938105673     2.5709004128     5.1568450781
  105      H      -7.3898512525     3.6379438626     5.3159875491
  106      C      -7.4675611663     1.8592714885     6.4547055804
  107      H      -7.7220707177     2.2594119208     4.2478939612
  108      H      -6.6731909988     2.0821342237     7.1778101637
  109      H      -7.5076134223     0.7659400299     6.3733966734
  110      H      -8.4172107259     2.1077589797     6.9449398923
 ----------------------------------------------------------------

   10   -5663.5101905808      4.63E-06 Convergence criterion met
 Total energy in the final basis set = -5663.5101905808

                    Orbital Energies (a.u.)
 --------------------------------------------------------------

 Alpha MOs
 -- Occupied --
-88.992 -88.989 -88.927 -88.924 -88.919 -88.918 -88.905 -88.904
-14.391 -14.389 -14.388 -14.381 -14.350 -14.346 -14.344 -14.338
-14.330 -14.329 -10.265 -10.265 -10.264 -10.262 -10.258 -10.256
-10.254 -10.252 -10.241 -10.240 -10.238 -10.235 -10.234 -10.234
-10.233 -10.232 -10.232 -10.231 -10.231 -10.228 -10.226 -10.226
-10.226 -10.224 -10.223 -10.222 -10.222 -10.221 -10.214 -10.214
-10.214 -10.209 -10.206 -10.201 -10.200 -10.200 -10.196 -10.190
-10.188 -10.187 -10.182 -10.178 -10.176 -10.173 -10.172 -10.171
-10.170 -10.170 -10.170 -10.168  -8.048  -8.045  -7.989  -7.986
 -7.979  -7.977  -7.964  -7.964  -6.013  -6.010  -6.007  -6.006
 -6.004  -6.002  -5.953  -5.949  -5.949  -5.946  -5.946  -5.943
 -5.943  -5.941  -5.940  -5.938  -5.935  -5.934  -5.928  -5.928
 -5.925  -5.925  -5.921  -5.920  -1.045  -1.042  -0.972  -0.970
 -0.965  -0.952  -0.939  -0.933  -0.917  -0.910  -0.910  -0.902
 -0.841  -0.841  -0.833  -0.831  -0.812  -0.810  -0.809  -0.807
 -0.805  -0.801  -0.797  -0.797  -0.780  -0.780  -0.769  -0.769
 -0.753  -0.751  -0.741  -0.740  -0.721  -0.714  -0.708  -0.706
 -0.694  -0.693  -0.675  -0.673  -0.654  -0.654  -0.649  -0.647
 -0.640  -0.636  -0.629  -0.626  -0.611  -0.610  -0.597  -0.594
 -0.592  -0.588  -0.583  -0.580  -0.579  -0.578  -0.565  -0.559
 -0.558  -0.550  -0.545  -0.539  -0.528  -0.525  -0.518  -0.511
 -0.510  -0.505  -0.500  -0.499  -0.488  -0.486  -0.481  -0.477
 -0.474  -0.472  -0.470  -0.469  -0.461  -0.452  -0.448  -0.447
 -0.446  -0.440  -0.438  -0.437  -0.434  -0.431  -0.428  -0.426
 -0.425  -0.422  -0.422  -0.416  -0.416  -0.415  -0.414  -0.413
 -0.412  -0.409  -0.404  -0.404  -0.400  -0.396  -0.395  -0.393
 -0.393  -0.392  -0.391  -0.390  -0.390  -0.389  -0.386  -0.385
 -0.382  -0.381  -0.377  -0.372  -0.363  -0.361  -0.359  -0.358
 -0.356  -0.355  -0.352  -0.347  -0.347  -0.344  -0.340  -0.338
 -0.338  -0.331  -0.331  -0.329  -0.328  -0.327  -0.319  -0.316
 -0.314  -0.313  -0.306  -0.306  -0.304  -0.303  -0.302  -0.300
 -0.299  -0.295  -0.293  -0.289  -0.286  -0.284  -0.281  -0.275
 -0.270  -0.268  -0.267  -0.267  -0.255  -0.251  -0.248  -0.246
 -0.243  -0.240  -0.235  -0.231  -0.196  -0.194

          Ground-State Mulliken Net Atomic Charges

     Atom                 Charge (a.u.)
  ----------------------------------------
      1 C                     0.269559
      2 C                    -0.127037
      3 N                    -0.464762
      4 C                    -0.053298
      5 C                     0.053473
      6 C                     0.033038
      7 C                     0.060314
      8 C                     0.044500
      9 C                     0.249804
     10 N                    -0.549603
     11 N                    -0.558729
     12 C                     0.170010
     13 C                     0.322294
     14 S                     0.600116
     15 N                    -0.540420
     16 C                    -0.219857
     17 S                     0.295369
     18 C                    -0.129811
     19 C                    -0.227553
     20 S                     0.284116
     21 C                     0.212412
     22 C                     0.027662
     23 C                    -0.320027
     24 C                    -0.050228
     25 N                    -0.419864
     26 S                     0.277997
     27 C                     0.113690
     28 C                    -0.301706
     29 C                    -0.227527
     30 H                     0.087972
     31 H                     0.111351
     32 H                     0.100368
     33 H                     0.117606
     34 H                     0.127828
     35 H                     0.114424
     36 H                     0.122508
     37 H                     0.132733
     38 H                     0.086083
     39 C                    -0.187719
     40 H                     0.115442
     41 H                     0.094612
     42 H                     0.092110
     43 C                    -0.147343
     44 H                     0.092447
     45 C                    -0.188572
     46 H                     0.117726
     47 H                     0.085066
     48 H                     0.082318
     49 C                    -0.175309
     50 H                     0.091765
     51 C                    -0.320372
     52 H                     0.093413
     53 H                     0.101580
     54 H                     0.098938
     55 H                     0.113363
     56 C                     0.274328
     57 C                    -0.102066
     58 N                    -0.490354
     59 C                    -0.084495
     60 C                     0.065007
     61 C                     0.040488
     62 C                     0.019579
     63 C                     0.065227
     64 C                     0.203631
     65 N                    -0.531321
     66 N                    -0.538670
     67 C                     0.204763
     68 C                     0.299978
     69 S                     0.618059
     70 N                    -0.556296
     71 C                    -0.193904
     72 S                     0.297057
     73 C                    -0.092999
     74 C                    -0.233247
     75 S                     0.271506
     76 C                     0.166377
     77 C                     0.056196
     78 C                    -0.299566
     79 C                    -0.055960
     80 N                    -0.438176
     81 S                     0.270761
     82 C                     0.120081
     83 C                    -0.300538
     84 C                    -0.220793
     85 H                     0.090662
     86 H                     0.103379
     87 H                     0.121498
     88 H                     0.121490
     89 H                     0.123120
     90 H                     0.119521
     91 H                     0.120854
     92 H                     0.123263
     93 H                     0.107650
     94 C                    -0.188845
     95 H                     0.118786
     96 H                     0.088950
     97 H                     0.122883
     98 C                    -0.184877
     99 H                     0.090920
    100 C                    -0.173165
    101 H                     0.090905
    102 H                     0.081224
    103 H                     0.089056
    104 C                    -0.165175
    105 H                     0.098006
    106 C                    -0.320123
    107 H                     0.098157
    108 H                     0.105552
    109 H                     0.101848
    110 H                     0.095540
  ----------------------------------------
  Sum of atomic charges =     0.000000

                    Cartesian Multipole Moments
 -----------------------------------------------------------------
    Charge (ESU x 10^10)
                 0.0000
    Dipole Moment (Debye)
         X      -1.3969      Y       0.3380      Z      -1.3280
       Tot       1.9569
    Quadrupole Moments (Debye-Ang)
        XX    -399.6787     XY       8.2857     YY    -417.4741
        XZ      -2.1223     YZ     -11.1998     ZZ    -435.7531

 Total job time:  90.38s(wall), 1067.21s(cpu)
        *  Thank you very much for using Q-Chem.  Have a nice day.  *
