 Q-Chem 4.4, Q-Chem, Inc., Pleasanton, CA (2016)
 Q-Chem 4.4.2 for Intel X86 Linux

User input:
--------------------------------------------------------------
$comment
SP
$end

$rem
MEM_STATIC 5000
MEM_TOTAL 20000
JOBTYPE SP
EXCHANGE B3LYP
BASIS 6-31g(d,p)
$end

$molecule
0 1
C         -27.509000     -0.549000     -4.751000
C         -26.807000     -1.660000     -4.230000
N         -26.897000      0.612000     -5.137000
C         -25.397000     -1.594000     -4.208000
C         -25.542000      0.662000     -5.067000
C         -24.730000     -0.414000     -4.629000
C         -23.228000     -0.400000     -4.736000
C         -22.595000      0.822000     -4.394000
C         -22.376000     -1.496000     -5.093000
N         -21.273000      0.956000     -4.481000
N         -22.809000     -2.680000     -5.371000
C         -21.048000     -1.287000     -5.289000
C         -20.467000      0.005000     -5.000000
S         -21.506000     -3.477000     -5.919000
N         -20.333000     -2.269000     -5.838000
C         -19.019000      0.241000     -5.186000
S         -17.790000     -1.058000     -5.292000
C         -18.462000      1.505000     -5.077000
C         -16.499000      0.180000     -5.497000
S         -19.179000      3.087000     -4.820000
C         -17.085000      1.442000     -5.426000
C         -15.081000     -0.140000     -5.713000
C         -17.625000      3.795000     -5.303000
C         -16.638000      2.814000     -5.516000
N         -14.296000      0.908000     -5.863000
S         -14.317000     -1.713000     -5.596000
C         -12.955000      0.463000     -5.745000
C         -12.855000     -0.861000     -5.687000
C         -28.907000     -0.563000     -5.106000
H         -27.271000     -2.592000     -3.920000
H         -24.864000     -2.397000     -3.708000
H         -25.041000      1.512000     -5.528000
H         -23.179000      1.670000     -4.040000
H         -17.641000      4.877000     -5.304000
H         -15.612000      3.118000     -5.688000
H         -12.180000      1.219000     -5.741000
H         -11.951000     -1.442000     -5.813000
H         -29.191000      0.497000     -5.111000
C         -29.961000     -1.208000     -4.160000
H         -29.045000     -0.974000     -6.114000
H         -29.728000     -2.254000     -3.924000
H         -30.928000     -1.133000     -4.671000
C         -30.004000     -0.414000     -2.849000
H         -29.105000     -0.561000     -2.237000
C         -31.228000     -0.858000     -2.042000
H         -30.162000      0.652000     -3.054000
H         -31.180000     -1.949000     -1.942000
H         -32.118000     -0.714000     -2.666000
C         -31.291000     -0.187000     -0.637000
H         -31.930000     -0.768000      0.040000
C         -31.797000      1.311000     -0.883000
H         -30.273000     -0.133000     -0.232000
H         -32.860000      1.285000     -1.156000
H         -31.198000      1.823000     -1.646000
H         -31.715000      1.861000      0.062000
C         -12.095000     -4.437000     -3.492000
C         -11.539000     -5.317000     -2.550000
N         -12.951000     -3.505000     -3.078000
C         -11.915000     -5.250000     -1.193000
C         -13.397000     -3.483000     -1.767000
C         -12.782000     -4.221000     -0.784000
C         -13.180000     -4.100000      0.607000
C         -12.199000     -3.988000      1.580000
C         -14.534000     -3.953000      1.103000
N         -12.511000     -3.803000      2.876000
N         -15.613000     -3.950000      0.244000
C         -14.773000     -3.814000      2.438000
C         -13.720000     -3.782000      3.348000
S         -16.861000     -3.938000      1.267000
N         -16.118000     -3.765000      2.710000
C         -13.892000     -3.776000      4.828000
S         -15.291000     -3.107000      5.734000
C         -13.054000     -4.383000      5.650000
C         -14.621000     -3.732000      7.237000
S         -11.552000     -5.205000      5.211000
C         -13.460000     -4.401000      7.001000
C         -15.124000     -3.426000      8.554000
C         -11.323000     -5.360000      6.977000
C         -12.364000     -4.908000      7.811000
N         -14.808000     -4.248000      9.544000
S         -16.227000     -2.128000      8.961000
C         -15.243000     -3.748000     10.767000
C         -15.920000     -2.582000     10.587000
C         -11.633000     -4.452000     -5.045000
H         -10.975000     -6.163000     -2.930000
H         -11.424000     -5.863000     -0.443000
H         -14.249000     -2.868000     -1.481000
H         -11.184000     -4.143000      1.218000
H         -10.373000     -5.799000      7.249000
H         -12.297000     -4.807000      8.888000
H         -14.967000     -4.184000     11.718000
H         -16.497000     -2.009000     11.301000
H         -11.959000     -5.371000     -5.549000
C         -10.131000     -4.369000     -5.288000
H         -12.154000     -3.659000     -5.595000
H          -9.597000     -5.207000     -4.823000
H          -9.689000     -3.503000     -4.780000
C          -9.762000     -4.347000     -6.775000
H         -10.448000     -3.653000     -7.274000
C          -9.581000     -5.688000     -7.469000
H          -8.793000     -3.838000     -6.849000
H         -10.514000     -6.263000     -7.435000
H          -8.970000     -6.310000     -6.803000
C          -9.036000     -5.695000     -8.906000
H          -9.560000     -5.003000     -9.576000
C          -9.203000     -7.083000     -9.464000
H          -8.028000     -5.301000     -8.730000
H         -10.233000     -7.427000     -9.308000
H          -8.556000     -7.839000     -9.002000
H          -8.993000     -7.196000    -10.535000
$end

--------------------------------------------------------------

             Standard Nuclear Orientation (Angstroms)
    I     Atom           X                Y                Z
 ----------------------------------------------------------------
    1      C     -10.4172719577    -2.0280184582    -1.1257351045
    2      C      -9.2898400026    -2.1242183520    -1.9732070905
    3      N     -10.3907632287    -1.4032374748     0.0909846702
    4      C      -8.1134836300    -1.4502027142    -1.5797244295
    5      C      -9.2334616009    -0.7978994949     0.4619885413
    6      C      -8.0624942241    -0.7680921912    -0.3360784529
    7      C      -6.8569922083     0.0640427364     0.0131569292
    8      C      -6.4811177396     0.0648051720     1.3805101397
    9      C      -6.0268919565     0.8057710218    -0.8898058179
   10      N      -5.4483758778     0.7896709565     1.8062129014
   11      N      -6.2143007666     0.8473143385    -2.1664346170
   12      C      -5.0607190239     1.6276702719    -0.4033158518
   13      C      -4.7720326277     1.6482310536     1.0132233884
   14      S      -5.1749457632     1.9740516286    -2.6989064529
   15      N      -4.4669738563     2.4678935697    -1.2509251283
   16      C      -3.7074372679     2.5201902702     1.5548134956
   17      S      -2.3882347803     3.2311211737     0.5733044292
   18      C      -3.5175455912     2.6859238117     2.9172743371
   19      C      -1.7256518632     4.0316658403     2.0434956123
   20      S      -4.4088224646     2.0924905714     4.3087931203
   21      C      -2.5124156873     3.6680207446     3.1342962034
   22      C      -0.5556117938     4.9209092418     2.0378027304
   23      C      -3.5201614516     3.2701056428     5.2951872340
   24      C      -2.5380034740     3.9516934914     4.5517474505
   25      N      -0.2417913114     5.4265997181     3.2137376125
   26      S       0.5513533175     5.2118198380     0.7105072594
   27      C       1.0557258035     5.9885480083     3.1093658931
   28      C       1.5124779423     6.0014003602     1.8613465420
   29      C     -11.7561356883    -2.4068173702    -1.5059722611
   30      H      -9.2881601435    -2.6124556252    -2.9435892540
   31      H      -7.2181706256    -1.6145755496    -2.1715809958
   32      H      -9.2548285996    -0.1591383221     1.3437762796
   33      H      -7.0231355763    -0.5397806349     2.1058849855
   34      H      -3.8161276189     3.2515559572     6.3358797616
   35      H      -1.8385270585     4.6030715021     5.0627420017
   36      H       1.5108174290     6.3583811559     4.0194714120
   37      H       2.3622658475     6.5621439537     1.4951769932
   38      H     -12.2731414104    -2.5535349707    -0.5491755068
   39      C     -12.0205965272    -3.7420788493    -2.2602893343
   40      H     -12.2461399224    -1.5929088307    -2.0550421472
   41      H     -11.4397205261    -3.8216865495    -3.1878380852
   42      H     -13.0955282333    -3.7739363294    -2.4732257757
   43      C     -11.6376090414    -4.9128980975    -1.3473222627
   44      H     -10.5527316711    -5.0016529488    -1.2076166159
   45      C     -12.1634838038    -6.2129673789    -1.9636311121
   46      H     -12.1459666073    -4.8235803876    -0.3793656873
   47      H     -11.7910456868    -6.2647507254    -2.9937734974
   48      H     -13.2457581474    -6.1093059196    -2.1055766897
   49      C     -11.7203241135    -7.4741403145    -1.1628269442
   50      H     -11.7817222873    -8.3717042233    -1.7911742160
   51      C     -12.6528660092    -7.5249964864     0.1365326144
   52      H     -10.6868487443    -7.3262922367    -0.8261748880
   53      H     -13.6683627104    -7.8101901397    -0.1677781313
   54      H     -12.6481105392    -6.5715201335     0.6787265188
   55      H     -12.2761688529    -8.3131067368     0.7992772752
   56      C       4.1305679959     4.5028816147    -1.1525292087
   57      C       5.2763238288     3.9659013879    -1.7606375933
   58      N       3.3670839765     3.7113182475    -0.4020123281
   59      C       5.5913953151     2.5989271533    -1.6212625578
   60      C       3.6131863785     2.3504183642    -0.3278091243
   61      C       4.7910074033     1.8052678362    -0.7802541875
   62      C       5.0897790294     0.3972950368    -0.5897965499
   63      C       6.3483314027     0.0318895270    -0.1379572674
   64      C       4.1522475425    -0.7023388654    -0.7028495995
   65      N       6.6572109344    -1.2517504686     0.1229005418
   66      N       2.8359288620    -0.4856205395    -1.0528057377
   67      C       4.5529930956    -1.9835125088    -0.4648073819
   68      C       5.8627269382    -2.2577930515    -0.0810099805
   69      S       2.2741916926    -1.9903879575    -1.2087011201
   70      N       3.5415918832    -2.8826864763    -0.6971084011
   71      C       6.4236030779    -3.6307943427     0.0614870733
   72      S       5.5080262074    -5.1150360242     0.4908396384
   73      C       7.6774978386    -3.9274574587    -0.2319680760
   74      C       6.9508568979    -6.0869707228     0.2222944090
   75      S       8.9423919788    -2.7974053547    -0.7293955144
   76      C       7.9866911323    -5.3030650048    -0.1823254916
   77      C       7.0779636119    -7.4841741748     0.5581521124
   78      C      10.0182724323    -4.2203081027    -0.6151544561
   79      C       9.4252607463    -5.4633861277    -0.3208159368
   80      N       8.0301501767    -8.1816614604    -0.0439211659
   81      S       6.0084806530    -8.3951003115     1.6038489012
   82      C       8.1188501171    -9.4656477781     0.4837770969
   83      C       7.1608969908    -9.6545622622     1.4308368234
   84      C       3.7805013227     6.0822341341    -1.2451409997
   85      H       5.7886233664     4.5832559286    -2.4918246794
   86      H       6.5213222411     2.1942408894    -2.0096115506
   87      H       2.8745716158     1.6756263579     0.1023408270
   88      H       7.0675016408     0.8481417499    -0.0952902165
   89      H      11.0596990034    -3.9848898246    -0.7860752896
   90      H       9.9694559134    -6.3689885007    -0.0792482192
   91      H       8.9182254511   -10.1529901732     0.2403998027
   92      H       6.8683552412   -10.5661377265     1.9353202202
   93      H       3.5058647275     6.3703310529    -2.2680915878
   94      C       4.9030707267     7.0320165939    -0.8455246683
   95      H       2.8739868521     6.2961424398    -0.6661204894
   96      H       5.7916330090     6.8989757980    -1.4751135953
   97      H       5.2907633344     6.7980877442     0.1536528611
   98      C       4.4968447794     8.5077573694    -0.9161195917
   99      H       3.5020500992     8.5971306104    -0.4648669264
  100      C       4.6668827832     9.2152448681    -2.2514946388
  101      H       5.1418533200     9.0435916532    -0.2087557512
  102      H       4.0501837791     8.7326495152    -3.0189932145
  103      H       5.6597283105     8.9428268785    -2.6307138339
  104      C       4.4397659030    10.7343823950    -2.3032836040
  105      H       3.4997591650    11.0523485377    -1.8367808016
  106      C       4.3950131261    11.1527345004    -3.7485433401
  107      H       5.2668608408    11.0730186590    -1.6680549486
  108      H       3.6949674152    10.5137424320    -4.3009898434
  109      H       5.3555787011    11.0770381025    -4.2731125267
  110      H       4.0892273858    12.1895556360    -3.9367108558
 ----------------------------------------------------------------

   10   -5663.4982063990      6.07E-06 Convergence criterion met
 Total energy in the final basis set = -5663.4982063990

                    Orbital Energies (a.u.)
 --------------------------------------------------------------

 Alpha MOs
 -- Occupied --
-88.995 -88.980 -88.925 -88.922 -88.920 -88.919 -88.907 -88.904
-14.391 -14.391 -14.390 -14.381 -14.349 -14.340 -14.339 -14.337
-14.334 -14.329 -10.267 -10.265 -10.261 -10.261 -10.256 -10.255
-10.248 -10.246 -10.244 -10.242 -10.241 -10.236 -10.236 -10.235
-10.233 -10.231 -10.229 -10.226 -10.225 -10.225 -10.225 -10.225
-10.224 -10.223 -10.220 -10.220 -10.218 -10.218 -10.214 -10.214
-10.212 -10.208 -10.207 -10.207 -10.206 -10.203 -10.202 -10.198
-10.195 -10.191 -10.186 -10.185 -10.183 -10.181 -10.181 -10.177
-10.173 -10.173 -10.172 -10.171  -8.050  -8.036  -7.987  -7.981
 -7.980  -7.978  -7.967  -7.964  -6.015  -6.010  -6.009  -6.001
 -5.996  -5.993  -5.951  -5.948  -5.945  -5.944  -5.944  -5.943
 -5.942  -5.940  -5.939  -5.937  -5.937  -5.935  -5.931  -5.928
 -5.928  -5.925  -5.923  -5.920  -1.049  -1.045  -0.975  -0.967
 -0.960  -0.950  -0.940  -0.930  -0.917  -0.913  -0.905  -0.896
 -0.845  -0.836  -0.831  -0.825  -0.817  -0.813  -0.809  -0.808
 -0.807  -0.800  -0.798  -0.789  -0.785  -0.780  -0.775  -0.760
 -0.758  -0.742  -0.741  -0.731  -0.723  -0.717  -0.716  -0.703
 -0.698  -0.684  -0.676  -0.670  -0.661  -0.653  -0.651  -0.643
 -0.639  -0.635  -0.632  -0.619  -0.616  -0.607  -0.600  -0.597
 -0.591  -0.589  -0.582  -0.581  -0.578  -0.577  -0.571  -0.566
 -0.553  -0.549  -0.546  -0.533  -0.527  -0.519  -0.516  -0.513
 -0.506  -0.503  -0.497  -0.492  -0.490  -0.484  -0.484  -0.478
 -0.477  -0.473  -0.470  -0.470  -0.460  -0.459  -0.458  -0.450
 -0.450  -0.443  -0.439  -0.437  -0.433  -0.429  -0.427  -0.426
 -0.426  -0.425  -0.424  -0.423  -0.418  -0.417  -0.415  -0.414
 -0.412  -0.411  -0.408  -0.402  -0.400  -0.400  -0.397  -0.394
 -0.393  -0.390  -0.388  -0.387  -0.385  -0.385  -0.381  -0.381
 -0.379  -0.377  -0.372  -0.371  -0.368  -0.365  -0.360  -0.360
 -0.356  -0.353  -0.350  -0.350  -0.347  -0.344  -0.344  -0.342
 -0.341  -0.337  -0.336  -0.333  -0.331  -0.331  -0.328  -0.326
 -0.320  -0.317  -0.317  -0.313  -0.307  -0.306  -0.302  -0.301
 -0.297  -0.294  -0.293  -0.288  -0.283  -0.278  -0.277  -0.276
 -0.272  -0.269  -0.262  -0.255  -0.255  -0.251  -0.249  -0.247
 -0.245  -0.240  -0.238  -0.223  -0.196  -0.187

          Ground-State Mulliken Net Atomic Charges

     Atom                 Charge (a.u.)
  ----------------------------------------
      1 C                     0.279656
      2 C                    -0.112822
      3 N                    -0.487952
      4 C                    -0.071622
      5 C                     0.072084
      6 C                     0.034505
      7 C                     0.010546
      8 C                     0.065025
      9 C                     0.272662
     10 N                    -0.532352
     11 N                    -0.545838
     12 C                     0.190676
     13 C                     0.317397
     14 S                     0.565759
     15 N                    -0.568758
     16 C                    -0.214372
     17 S                     0.315531
     18 C                    -0.123061
     19 C                    -0.237570
     20 S                     0.283496
     21 C                     0.175284
     22 C                     0.061557
     23 C                    -0.308847
     24 C                    -0.072334
     25 N                    -0.445056
     26 S                     0.315996
     27 C                     0.109639
     28 C                    -0.297822
     29 C                    -0.246801
     30 H                     0.093328
     31 H                     0.105828
     32 H                     0.104783
     33 H                     0.119999
     34 H                     0.135083
     35 H                     0.119111
     36 H                     0.112264
     37 H                     0.130741
     38 H                     0.123386
     39 C                    -0.186065
     40 H                     0.114703
     41 H                     0.090088
     42 H                     0.096229
     43 C                    -0.168587
     44 H                     0.097384
     45 C                    -0.172034
     46 H                     0.097936
     47 H                     0.077676
     48 H                     0.087115
     49 C                    -0.182752
     50 H                     0.091982
     51 C                    -0.321090
     52 H                     0.095749
     53 H                     0.105763
     54 H                     0.110388
     55 H                     0.097088
     56 C                     0.283564
     57 C                    -0.114891
     58 N                    -0.497736
     59 C                    -0.081816
     60 C                     0.081908
     61 C                     0.040016
     62 C                     0.018484
     63 C                     0.069791
     64 C                     0.204363
     65 N                    -0.532021
     66 N                    -0.538643
     67 C                     0.205730
     68 C                     0.300660
     69 S                     0.621005
     70 N                    -0.555672
     71 C                    -0.194719
     72 S                     0.299375
     73 C                    -0.092514
     74 C                    -0.232635
     75 S                     0.269878
     76 C                     0.165576
     77 C                     0.056240
     78 C                    -0.300078
     79 C                    -0.055297
     80 N                    -0.438304
     81 S                     0.272539
     82 C                     0.119992
     83 C                    -0.300340
     84 C                    -0.224587
     85 H                     0.090312
     86 H                     0.103248
     87 H                     0.127669
     88 H                     0.114179
     89 H                     0.122354
     90 H                     0.120017
     91 H                     0.121218
     92 H                     0.124097
     93 H                     0.115539
     94 C                    -0.185934
     95 H                     0.106607
     96 H                     0.092865
     97 H                     0.100323
     98 C                    -0.184674
     99 H                     0.089492
    100 C                    -0.173450
    101 H                     0.089058
    102 H                     0.084644
    103 H                     0.090961
    104 C                    -0.165797
    105 H                     0.100335
    106 C                    -0.321624
    107 H                     0.098377
    108 H                     0.106883
    109 H                     0.103619
    110 H                     0.099117
  ----------------------------------------
  Sum of atomic charges =     0.000000

                    Cartesian Multipole Moments
 -----------------------------------------------------------------
    Charge (ESU x 10^10)
                 0.0000
    Dipole Moment (Debye)
         X       4.4347      Y       0.0061      Z      -2.6854
       Tot       5.1844
    Quadrupole Moments (Debye-Ang)
        XX    -439.8488     XY      20.0176     YY    -402.6380
        XZ      12.5946     YZ     -12.5232     ZZ    -435.2768

 Total job time:  87.96s(wall), 1037.64s(cpu)
        *  Thank you very much for using Q-Chem.  Have a nice day.  *
