 Q-Chem 4.4, Q-Chem, Inc., Pleasanton, CA (2016)
 Q-Chem 4.4.2 for Intel X86 Linux

User input:
--------------------------------------------------------------
$comment
SP
$end

$rem
MEM_STATIC 5000
MEM_TOTAL 20000
JOBTYPE SP
EXCHANGE B3LYP
BASIS 6-31g(d,p)
$end

$molecule
0 1
C         -27.509000     -0.549000     -4.751000
C         -26.807000     -1.660000     -4.230000
N         -26.897000      0.612000     -5.137000
C         -25.397000     -1.594000     -4.208000
C         -25.542000      0.662000     -5.067000
C         -24.730000     -0.414000     -4.629000
C         -23.228000     -0.400000     -4.736000
C         -22.595000      0.822000     -4.394000
C         -22.376000     -1.496000     -5.093000
N         -21.273000      0.956000     -4.481000
N         -22.809000     -2.680000     -5.371000
C         -21.048000     -1.287000     -5.289000
C         -20.467000      0.005000     -5.000000
S         -21.506000     -3.477000     -5.919000
N         -20.333000     -2.269000     -5.838000
C         -19.019000      0.241000     -5.186000
S         -17.790000     -1.058000     -5.292000
C         -18.462000      1.505000     -5.077000
C         -16.499000      0.180000     -5.497000
S         -19.179000      3.087000     -4.820000
C         -17.085000      1.442000     -5.426000
C         -15.081000     -0.140000     -5.713000
C         -17.625000      3.795000     -5.303000
C         -16.638000      2.814000     -5.516000
N         -14.296000      0.908000     -5.863000
S         -14.317000     -1.713000     -5.596000
C         -12.955000      0.463000     -5.745000
C         -12.855000     -0.861000     -5.687000
C         -28.907000     -0.563000     -5.106000
H         -27.271000     -2.592000     -3.920000
H         -24.864000     -2.397000     -3.708000
H         -25.041000      1.512000     -5.528000
H         -23.179000      1.670000     -4.040000
H         -17.641000      4.877000     -5.304000
H         -15.612000      3.118000     -5.688000
H         -12.180000      1.219000     -5.741000
H         -11.951000     -1.442000     -5.813000
H         -29.191000      0.497000     -5.111000
C         -29.961000     -1.208000     -4.160000
H         -29.045000     -0.974000     -6.114000
H         -29.728000     -2.254000     -3.924000
H         -30.928000     -1.133000     -4.671000
C         -30.004000     -0.414000     -2.849000
H         -29.105000     -0.561000     -2.237000
C         -31.228000     -0.858000     -2.042000
H         -30.162000      0.652000     -3.054000
H         -31.180000     -1.949000     -1.942000
H         -32.118000     -0.714000     -2.666000
C         -31.291000     -0.187000     -0.637000
H         -31.930000     -0.768000      0.040000
C         -31.797000      1.311000     -0.883000
H         -30.273000     -0.133000     -0.232000
H         -32.860000      1.285000     -1.156000
H         -31.198000      1.823000     -1.646000
H         -31.715000      1.861000      0.062000
C         -14.388000     -3.633000    -10.427000
C         -14.822000     -2.951000     -9.238000
N         -15.320000     -3.662000    -11.421000
C         -16.111000     -2.391000     -9.155000
C         -16.508000     -3.089000    -11.401000
C         -17.003000     -2.467000    -10.195000
C         -18.456000     -2.227000     -9.892000
C         -18.835000     -1.136000     -9.103000
C         -19.489000     -3.113000    -10.251000
N         -20.090000     -0.817000     -8.747000
N         -19.403000     -4.157000    -11.069000
C         -20.808000     -2.850000     -9.838000
C         -21.069000     -1.623000     -9.134000
S         -20.851000     -4.937000    -10.977000
N         -21.676000     -3.728000    -10.313000
C         -22.488000     -1.216000     -8.838000
S         -23.954000     -2.146000     -8.946000
C         -22.827000      0.045000     -8.380000
C         -25.018000     -0.790000     -8.588000
S         -21.764000      1.432000     -7.988000
C         -24.184000      0.258000     -8.350000
C         -26.485000     -0.754000     -8.506000
C         -23.329000      2.189000     -7.567000
C         -24.519000      1.534000     -7.902000
N         -26.978000     -1.976000     -8.586000
S         -27.616000      0.575000     -8.715000
C         -28.321000     -1.910000     -8.795000
C         -28.874000     -0.596000     -8.816000
C         -13.046000     -4.318000    -10.526000
H         -14.245000     -2.901000     -8.319000
H         -16.265000     -1.877000     -8.211000
H         -17.148000     -3.183000    -12.277000
H         -18.084000     -0.382000     -8.869000
H         -23.308000      3.110000     -6.999000
H         -25.507000      1.932000     -7.698000
H         -28.832000     -2.851000     -8.952000
H         -29.899000     -0.389000     -9.096000
H         -12.273000     -3.599000    -10.227000
C         -12.750000     -4.957000    -11.927000
H         -13.071000     -5.193000     -9.865000
H         -12.854000     -4.181000    -12.695000
H         -13.424000     -5.749000    -12.277000
C         -11.384000     -5.651000    -11.863000
H         -10.625000     -4.875000    -12.020000
C         -11.298000     -6.818000    -12.861000
H         -11.282000     -5.976000    -10.820000
H         -12.081000     -7.535000    -12.586000
H         -10.376000     -7.399000    -12.737000
C         -11.484000     -6.450000    -14.353000
H         -11.449000     -7.269000    -15.082000
C         -10.312000     -5.496000    -14.829000
H         -12.482000     -6.002000    -14.430000
H         -10.454000     -4.622000    -14.182000
H         -10.481000     -5.325000    -15.900000
H          -9.343000     -5.996000    -14.706000
$end

--------------------------------------------------------------

             Standard Nuclear Orientation (Angstroms)
    I     Atom           X                Y                Z
 ----------------------------------------------------------------
    1      C      -7.1074233571     0.4068601938    -0.6780361601
    2      C      -6.4147138480     0.3784223907    -1.9100713980
    3      N      -6.6555504122    -0.2180249811     0.4519153255
    4      C      -5.1464879414    -0.2411547395    -1.9359021871
    5      C      -5.4509366064    -0.8410160193     0.3870096613
    6      C      -4.6361338969    -0.8736839025    -0.7722976120
    7      C      -3.2282216035    -1.4079088122    -0.7663209839
    8      C      -3.0222049623    -2.5999235271    -0.0263243197
    9      C      -2.0970804059    -0.8729097836    -1.4655095354
   10      N      -1.8108335649    -3.1441484280     0.0716940185
   11      N      -2.1502723797     0.1711815464    -2.2229215160
   12      C      -0.8580479109    -1.3835028308    -1.2424081763
   13      C      -0.6957890843    -2.5560792745    -0.4122982097
   14      S      -0.6026735656     0.4933450192    -2.5896238576
   15      N       0.1906202724    -0.7197368228    -1.7288850288
   16      C       0.6439089579    -3.1373543953    -0.1792222783
   17      S       2.0751015345    -2.8196477462    -1.2087019011
   18      C       0.8524437708    -4.1548418680     0.7378701242
   19      C       3.0692172740    -3.8911794592    -0.1575579126
   20      S      -0.2217260190    -4.9470809192     1.8786499228
   21      C       2.2459495704    -4.4210376297     0.8336845437
   22      C       4.5076136701    -4.1241786596    -0.3486264357
   23      C       1.2196253085    -5.6241804482     2.6619197222
   24      C       2.4003812091    -5.3121684928     1.9616604538
   25      N       5.0594243500    -4.9245386402     0.5412937152
   26      S       5.4932472120    -3.6252002096    -1.7092369705
   27      C       6.3376332912    -5.2963607112     0.0532770656
   28      C       6.6845910530    -4.6290778287    -1.0424847088
   29      C      -8.2600620309     1.2319589149    -0.4110882474
   30      H      -6.7525482311     0.8689939152    -2.8184917351
   31      H      -4.6651798359    -0.3608740845    -2.9017737034
   32      H      -5.0098478136    -1.1913255132     1.3190750749
   33      H      -3.8555688633    -3.1000805186     0.4644134845
   34      H       0.9801095173    -6.2293060490     3.5264636441
   35      H       3.3351085572    -5.7724881153     2.2601007824
   36      H       6.8876956144    -6.0383526755     0.6181278117
   37      H       7.6760119563    -4.5727156399    -1.4720902211
   38      H      -8.7387254120     0.7498166768     0.4507129070
   39      C      -9.4177272089     1.3391912834    -1.4455782449
   40      H      -7.9512948857     2.2457477342    -0.1266166674
   41      H      -9.0687002699     1.6675727233    -2.4327189774
   42      H     -10.1406197429     2.0531205477    -1.0337938477
   43      C     -10.0767993720    -0.0367861268    -1.5982741859
   44      H      -9.4361245844    -0.7553796303    -2.1250693958
   45      C     -11.3836021156     0.1250771844    -2.3809796592
   46      H     -10.3721405678    -0.4289327480    -0.6172850903
   47      H     -11.1472644753     0.6511592553    -3.3136999680
   48      H     -12.0112611266     0.8503933125    -1.8497803742
   49      C     -12.0679483262    -1.2409462099    -2.6873868232
   50      H     -12.7661249509    -1.1429469514    -3.5283128282
   51      C     -12.7572836351    -1.7082386752    -1.3210008661
   52      H     -11.2885181294    -1.9720369846    -2.9348940909
   53      H     -13.6294579903    -1.0699589136    -1.1284266206
   54      H     -12.0515157528    -1.6892031702    -0.4815704963
   55      H     -13.1243634724    -2.7328273474    -1.4541152754
   56      C       7.5026699082     0.9682178720    -0.3334707276
   57      C       6.5515936571    -0.0994767822    -0.4840797905
   58      N       7.0008717303     2.0747089335     0.2840866540
   59      C       5.2273279664     0.0416576156    -0.0275587479
   60      C       5.7881142115     2.2132772351     0.7841776721
   61      C       4.7878435873     1.1917978492     0.5783050350
   62      C       3.3039298140     1.4214841685     0.6548694394
   63      C       2.4566816538     0.3882636498     1.0684742203
   64      C       2.6680232779     2.5962842722     0.2116611433
   65      N       1.1190420044     0.4555494892     1.1670378246
   66      N       3.2475621314     3.7414859384    -0.1334531292
   67      C       1.2637465846     2.6799261096     0.2342445810
   68      C       0.5255776342     1.5835489986     0.8019855706
   69      S       2.0536885850     4.6982770810    -0.7440140720
   70      N       0.8172963835     3.8674421808    -0.1404830515
   71      C      -0.9595757022     1.7101173542     1.0144144260
   72      S      -2.0693570478     2.9030240327     0.4052518685
   73      C      -1.6908838882     0.8029581269     1.7607765858
   74      C      -3.4488623540     2.3053376669     1.3210750602
   75      S      -1.1432668893    -0.6911550414     2.5824477259
   76      C      -2.9867384553     1.2059262338     1.9754755515
   77      C      -4.8265051228     2.8152102500     1.3683968380
   78      C      -2.8781401664    -0.7939969640     3.0057127156
   79      C      -3.7140440675     0.2958723767     2.7396309830
   80      N      -4.9953010327     3.7623420552     0.4644154863
   81      S      -6.0651148562     2.6679682481     2.6066410471
   82      C      -6.1649010014     4.4149547093     0.7048705483
   83      C      -6.9369187855     3.9086573133     1.7913775607
   84      C       8.9069760325     0.8880479278    -0.8825491274
   85      H       6.7503354213    -1.0212479892    -1.0233659420
   86      H       4.6522421189    -0.8670397828    -0.1778694466
   87      H       5.5260052681     3.1542925941     1.2654270834
   88      H       2.9054790389    -0.5085609000     1.4945723709
   89      H      -3.2475489222    -1.7325723372     3.3980383966
   90      H      -4.7712375686     0.3206452719     2.9802389729
   91      H      -6.3819601714     5.2657488545     0.0721892390
   92      H      -7.8204128300     4.4048648285     2.1722848661
   93      H       9.3606476727    -0.0446098159    -0.5244673267
   94      C       9.7963771152     2.1394885517    -0.5638014543
   95      H       8.8371113672     0.9172933119    -1.9768226928
   96      H       9.8059578880     2.2951253302     0.5217865900
   97      H       9.4661263073     3.1104082582    -0.9540441062
   98      C      11.1680023063     1.9374072432    -1.2191605007
   99      H      11.7550793227     1.3064484601    -0.5408260767
  100      C      11.8355428000     3.2818149864    -1.5541926024
  101      H      10.9673820293     1.3293599311    -2.1101756358
  102      H      11.1733285247     3.8040654675    -2.2552843856
  103      H      12.7567626799     3.1509412468    -2.1349223133
  104      C      12.1060338584     4.2225619152    -0.3550621661
  105      H      12.5612396609     5.1968470250    -0.5718182555
  106      C      13.1443727928     3.5546651700     0.6379344075
  107      H      11.1266965453     4.4253842923     0.0948250536
  108      H      12.6082813921     2.6512802241     0.9528163689
  109      H      13.3254775869     4.2969307952     1.4260243739
  110      H      14.0920647551     3.3597962395     0.1202510636
 ----------------------------------------------------------------

   10   -5663.4783513204      4.32E-06 Convergence criterion met
 Total energy in the final basis set = -5663.4783513204

                    Orbital Energies (a.u.)
 --------------------------------------------------------------

 Alpha MOs
 -- Occupied --
-88.984 -88.979 -88.934 -88.933 -88.926 -88.916 -88.911 -88.909
-14.388 -14.380 -14.379 -14.371 -14.349 -14.345 -14.340 -14.340
-14.329 -14.320 -10.273 -10.267 -10.264 -10.257 -10.250 -10.248
-10.247 -10.246 -10.245 -10.241 -10.234 -10.233 -10.233 -10.233
-10.233 -10.232 -10.230 -10.230 -10.229 -10.226 -10.226 -10.225
-10.223 -10.223 -10.222 -10.221 -10.220 -10.218 -10.214 -10.211
-10.208 -10.206 -10.200 -10.199 -10.196 -10.196 -10.194 -10.194
-10.193 -10.182 -10.181 -10.176 -10.175 -10.175 -10.174 -10.174
-10.173 -10.171 -10.171 -10.170  -8.040  -8.035  -7.995  -7.994
 -7.984  -7.975  -7.969  -7.969  -6.005  -6.000  -6.000  -5.997
 -5.995  -5.992  -5.959  -5.958  -5.955  -5.955  -5.952  -5.951
 -5.948  -5.945  -5.940  -5.939  -5.935  -5.933  -5.933  -5.932
 -5.930  -5.930  -5.925  -5.925  -1.048  -1.042  -0.971  -0.971
 -0.962  -0.951  -0.929  -0.929  -0.916  -0.914  -0.902  -0.901
 -0.838  -0.836  -0.829  -0.824  -0.820  -0.811  -0.808  -0.807
 -0.803  -0.799  -0.792  -0.788  -0.780  -0.778  -0.762  -0.762
 -0.746  -0.743  -0.738  -0.734  -0.723  -0.713  -0.706  -0.704
 -0.691  -0.687  -0.673  -0.672  -0.654  -0.652  -0.639  -0.638
 -0.634  -0.632  -0.619  -0.618  -0.609  -0.609  -0.601  -0.600
 -0.591  -0.589  -0.584  -0.580  -0.573  -0.570  -0.566  -0.551
 -0.550  -0.542  -0.541  -0.535  -0.525  -0.521  -0.518  -0.512
 -0.503  -0.498  -0.495  -0.494  -0.485  -0.481  -0.480  -0.477
 -0.474  -0.470  -0.466  -0.463  -0.463  -0.458  -0.451  -0.449
 -0.445  -0.442  -0.438  -0.437  -0.435  -0.435  -0.431  -0.427
 -0.424  -0.424  -0.421  -0.417  -0.417  -0.414  -0.413  -0.409
 -0.409  -0.404  -0.401  -0.400  -0.398  -0.394  -0.393  -0.392
 -0.391  -0.390  -0.389  -0.388  -0.385  -0.381  -0.381  -0.378
 -0.377  -0.375  -0.371  -0.370  -0.369  -0.363  -0.359  -0.353
 -0.353  -0.352  -0.350  -0.348  -0.346  -0.345  -0.339  -0.337
 -0.337  -0.333  -0.331  -0.331  -0.326  -0.326  -0.319  -0.317
 -0.316  -0.309  -0.307  -0.306  -0.303  -0.301  -0.296  -0.294
 -0.294  -0.292  -0.291  -0.289  -0.287  -0.286  -0.283  -0.277
 -0.276  -0.264  -0.257  -0.257  -0.256  -0.255  -0.247  -0.243
 -0.237  -0.228  -0.226  -0.224  -0.193  -0.190

          Ground-State Mulliken Net Atomic Charges

     Atom                 Charge (a.u.)
  ----------------------------------------
      1 C                     0.281236
      2 C                    -0.110489
      3 N                    -0.498787
      4 C                    -0.066710
      5 C                     0.082717
      6 C                     0.032557
      7 C                     0.024858
      8 C                     0.065389
      9 C                     0.273877
     10 N                    -0.535084
     11 N                    -0.546443
     12 C                     0.211833
     13 C                     0.332129
     14 S                     0.567296
     15 N                    -0.579342
     16 C                    -0.203361
     17 S                     0.312410
     18 C                    -0.123765
     19 C                    -0.249013
     20 S                     0.285282
     21 C                     0.176480
     22 C                     0.071934
     23 C                    -0.306531
     24 C                    -0.074204
     25 N                    -0.437927
     26 S                     0.270579
     27 C                     0.119779
     28 C                    -0.304499
     29 C                    -0.253089
     30 H                     0.094118
     31 H                     0.105856
     32 H                     0.094712
     33 H                     0.116519
     34 H                     0.137038
     35 H                     0.118995
     36 H                     0.118958
     37 H                     0.132556
     38 H                     0.116808
     39 C                    -0.186807
     40 H                     0.124765
     41 H                     0.090931
     42 H                     0.092721
     43 C                    -0.167725
     44 H                     0.097522
     45 C                    -0.171773
     46 H                     0.096282
     47 H                     0.077999
     48 H                     0.085831
     49 C                    -0.182278
     50 H                     0.092019
     51 C                    -0.321273
     52 H                     0.095941
     53 H                     0.105458
     54 H                     0.109715
     55 H                     0.097201
     56 C                     0.286041
     57 C                    -0.136137
     58 N                    -0.497491
     59 C                    -0.057691
     60 C                     0.110392
     61 C                    -0.013255
     62 C                     0.033110
     63 C                     0.059417
     64 C                     0.248411
     65 N                    -0.532245
     66 N                    -0.566305
     67 C                     0.213532
     68 C                     0.324913
     69 S                     0.591500
     70 N                    -0.551093
     71 C                    -0.252684
     72 S                     0.342523
     73 C                    -0.116152
     74 C                    -0.215052
     75 S                     0.301208
     76 C                     0.156036
     77 C                     0.052292
     78 C                    -0.308581
     79 C                    -0.107858
     80 N                    -0.406980
     81 S                     0.317649
     82 C                     0.103545
     83 C                    -0.321802
     84 C                    -0.246185
     85 H                     0.079049
     86 H                     0.102855
     87 H                     0.115546
     88 H                     0.120423
     89 H                     0.115168
     90 H                     0.130541
     91 H                     0.113043
     92 H                     0.138047
     93 H                     0.117796
     94 C                    -0.169007
     95 H                     0.123328
     96 H                     0.108312
     97 H                     0.110776
     98 C                    -0.178005
     99 H                     0.093017
    100 C                    -0.186218
    101 H                     0.085972
    102 H                     0.088504
    103 H                     0.083811
    104 C                    -0.185994
    105 H                     0.090091
    106 C                    -0.314113
    107 H                     0.101523
    108 H                     0.109845
    109 H                     0.099487
    110 H                     0.103945
  ----------------------------------------
  Sum of atomic charges =     0.000000

                    Cartesian Multipole Moments
 -----------------------------------------------------------------
    Charge (ESU x 10^10)
                 0.0000
    Dipole Moment (Debye)
         X      -0.5670      Y      -0.7618      Z      -1.5990
       Tot       1.8597
    Quadrupole Moments (Debye-Ang)
        XX    -409.2692     XY     -33.0423     YY    -435.9643
        XZ     -12.6304     YZ      -5.9596     ZZ    -434.6762

 Total job time:  107.99s(wall), 1282.81s(cpu)
        *  Thank you very much for using Q-Chem.  Have a nice day.  *
