 Q-Chem 4.4, Q-Chem, Inc., Pleasanton, CA (2016)
 Q-Chem 4.4.2 for Intel X86 Linux

User input:
--------------------------------------------------------------
$comment
SP
$end

$rem
MEM_STATIC 5000
MEM_TOTAL 20000
JOBTYPE SP
EXCHANGE B3LYP
BASIS 6-31g(d,p)
$end

$molecule
0 1
C         -16.969000     14.748000      4.105000
C         -16.592000     13.799000      3.162000
N         -16.559000     16.015000      4.143000
C         -15.487000     14.180000      2.310000
C         -15.642000     16.421000      3.288000
C         -15.054000     15.561000      2.345000
C         -13.950000     15.987000      1.407000
C         -12.699000     16.278000      1.985000
C         -14.063000     16.049000     -0.004000
N         -11.550000     16.497000      1.259000
N         -15.143000     15.770000     -0.755000
C         -12.906000     16.437000     -0.733000
C         -11.649000     16.636000     -0.092000
S         -14.694000     16.102000     -2.268000
N         -13.140000     16.388000     -2.036000
C         -10.434000     16.965000     -0.876000
S         -10.440000     17.463000     -2.529000
C          -9.158000     17.006000     -0.365000
C          -8.773000     17.981000     -2.498000
S          -8.597000     16.811000      1.222000
C          -8.272000     17.681000     -1.235000
C          -7.964000     18.443000     -3.600000
C          -6.946000     17.172000      0.647000
C          -6.949000     17.799000     -0.634000
N          -6.664000     18.615000     -3.535000
S          -8.696000     18.872000     -5.171000
C          -6.193000     19.066000     -4.726000
C          -7.081000     19.143000     -5.747000
C         -18.020000     14.475000      5.125000
H         -17.055000     12.818000      3.112000
H         -15.141000     13.494000      1.542000
H         -15.319000     17.461000      3.322000
H         -12.576000     16.217000      3.065000
H          -6.136000     16.999000      1.344000
H          -6.052000     18.170000     -1.116000
H          -5.157000     19.377000     -4.683000
H          -6.878000     19.463000     -6.760000
H         -18.704000     15.328000      5.205000
C         -17.511000     13.937000      6.415000
H         -18.710000     13.789000      4.618000
H         -16.615000     14.465000      6.763000
H         -17.176000     12.895000      6.347000
C         -18.551000     14.052000      7.541000
H         -18.406000     15.046000      7.983000
C         -18.337000     12.991000      8.624000
H         -19.571000     13.981000      7.142000
H         -17.281000     12.890000      8.904000
H         -18.596000     12.000000      8.232000
C         -19.275000     13.354000      9.782000
H         -19.226000     12.582000     10.561000
C         -20.744000     13.447000      9.273000
H         -18.982000     14.260000     10.326000
H         -20.975000     14.463000      8.929000
H         -21.467000     13.276000     10.080000
H         -20.952000     12.722000      8.477000
C          -4.132000      2.537000      2.659000
C          -3.105000      3.190000      1.897000
N          -5.351000      3.079000      2.732000
C          -3.392000      4.465000      1.393000
C          -5.561000      4.318000      2.251000
C          -4.645000      5.079000      1.474000
C          -5.066000      6.372000      0.943000
C          -6.472000      6.573000      0.593000
C          -4.217000      7.479000      0.741000
N          -6.961000      7.762000      0.156000
N          -2.836000      7.427000      0.903000
C          -4.806000      8.710000      0.314000
C          -6.177000      8.841000     -0.063000
S          -2.401000      8.966000      0.460000
N          -3.874000      9.604000      0.198000
C          -6.828000     10.044000     -0.574000
S          -8.331000      9.922000     -1.595000
C          -6.613000     11.352000     -0.249000
C          -8.547000     11.657000     -1.547000
S          -5.397000     12.077000      0.699000
C          -7.544000     12.254000     -0.807000
C          -9.797000     12.308000     -1.951000
C          -6.171000     13.632000      0.354000
C          -7.274000     13.568000     -0.412000
N         -10.476000     11.587000     -2.720000
S         -10.393000     13.828000     -1.554000
C         -11.696000     12.091000     -2.958000
C         -11.845000     13.375000     -2.447000
C          -3.901000      1.275000      3.485000
H          -2.083000      2.833000      1.812000
H          -2.599000      4.995000      0.873000
H          -6.582000      4.664000      2.404000
H          -7.208000      5.779000      0.708000
H          -5.769000     14.520000      0.823000
H          -7.930000     14.400000     -0.642000
H         -12.431000     11.450000     -3.426000
H         -12.716000     14.015000     -2.426000
H          -3.657000      1.452000      4.540000
C          -2.772000      0.470000      2.808000
H          -4.837000      0.725000      3.331000
H          -1.813000      0.955000      3.029000
H          -3.021000      0.353000      1.746000
C          -2.652000     -1.023000      3.329000
H          -2.176000     -1.050000      4.317000
C          -1.783000     -1.803000      2.325000
H          -3.648000     -1.474000      3.239000
H          -0.768000     -1.387000      2.322000
H          -2.199000     -1.661000      1.320000
C          -1.619000     -3.382000      2.490000
H          -0.733000     -3.766000      1.970000
C          -2.937000     -4.124000      2.172000
H          -1.484000     -3.602000      3.557000
H          -3.719000     -3.714000      2.823000
H          -2.798000     -5.190000      2.390000
H          -3.183000     -3.872000      1.133000
$end

--------------------------------------------------------------

             Standard Nuclear Orientation (Angstroms)
    I     Atom           X                Y                Z
 ----------------------------------------------------------------
    1      C      -6.7844598933    -5.8359311498    -0.2670949635
    2      C      -5.8369375843    -5.3673095832    -1.1696326641
    3      N      -7.5565494200    -5.0822287391     0.5143418151
    4      C      -5.5208530883    -3.9602556833    -1.0583676009
    5      C      -7.3724389320    -3.7774680692     0.5356237891
    6      C      -6.3709341885    -3.1428953838    -0.2186299848
    7      C      -6.0951073265    -1.6597737561    -0.1522539368
    8      C      -5.5612906231    -1.1637514390     1.0530541517
    9      C      -6.2699556829    -0.7530802298    -1.2269022056
   10      N      -5.0837897952     0.1177035919     1.2114964540
   11      N      -6.7188364351    -1.0232667769    -2.4653477232
   12      C      -5.9235302815     0.6058418330    -0.9946216238
   13      C      -5.3096851206     1.0247056954     0.2212230139
   14      S      -6.7805435852     0.4078545586    -3.2063456655
   15      N      -6.0767551833     1.3196349305    -2.1000570780
   16      C      -4.8836541362     2.4314165699     0.4181598462
   17      S      -5.3549246022     3.7483651223    -0.5937688362
   18      C      -4.1369692598     2.8834121438     1.4807696978
   19      C      -4.7784950821     4.9612860794     0.5219039475
   20      S      -3.5817421235     2.0761651611     2.8633000360
   21      C      -4.1879149874     4.2916667972     1.5891411136
   22      C      -4.7136963681     6.3897699874     0.3280899873
   23      C      -2.9136101012     3.6216793901     3.4563703259
   24      C      -3.4714263187     4.7439197036     2.7755496842
   25      N      -4.0762309750     7.2113262030     1.1296461346
   26      S      -5.5578399858     7.1795771269    -1.0326202078
   27      C      -4.2072082268     8.4888172947     0.6885288371
   28      C      -4.8388818880     8.6662120572    -0.4974026466
   29      C      -7.1482726050    -7.2780149713    -0.1801204696
   30      H      -5.3265125301    -6.0258674936    -1.8660504573
   31      H      -4.7957753795    -3.5185390429    -1.7360730868
   32      H      -8.0141351223    -3.1689581676     1.1720408686
   33      H      -5.3948769502    -1.8411194259     1.8889543250
   34      H      -2.2645125042     3.5746833948     4.3214146520
   35      H      -3.2558015188     5.7707833853     3.0468998730
   36      H      -3.8392253159     9.2220806897     1.3947719757
   37      H      -5.0167032409     9.6056075210    -1.0030643210
   38      H      -8.2366323559    -7.3932003377    -0.1163209088
   39      C      -6.3607120826    -8.0603006287     0.8100323337
   40      H      -7.0284444044    -7.6443359549    -1.2073473868
   41      H      -6.2377089733    -7.5271865434     1.7604867551
   42      H      -5.3275895984    -8.2451303276     0.4920560529
   43      C      -7.0252048387    -9.4050151143     1.1460283594
   44      H      -7.7190570888    -9.1989943261     1.9709825944
   45      C      -6.0015533712   -10.4464002225     1.6065288803
   46      H      -7.5910001124    -9.7886700025     0.2873511004
   47      H      -5.2811176527   -10.0324871487     2.3230380168
   48      H      -5.3758380927   -10.7544077588     0.7601024228
   49      C      -6.8032358889   -11.6468456218     2.1250006579
   50      H      -6.1222251564   -12.4636436388     2.3975651117
   51      C      -7.7721905872   -12.1620398417     1.0198342866
   52      H      -7.3342456769   -11.4558912280     3.0653123214
   53      H      -8.7395011402   -11.6472595783     1.0769707417
   54      H      -8.0316344543   -13.2179546910     1.1645813448
   55      H      -7.3463255395   -12.0559095502     0.0149062681
   56      C      10.5940469104    -2.1257719884     0.1914094213
   57      C      10.6490292001    -0.7133373414     0.4439709298
   58      N       9.4370512394    -2.6926536029    -0.1622291688
   59      C       9.4338810379    -0.0168949251     0.4637927540
   60      C       8.2975353549    -1.9797254246    -0.1004314204
   61      C       8.1991820048    -0.5798513669     0.1288833001
   62      C       6.8888022426     0.0604904513     0.0662874972
   63      C       5.8771011240    -0.4781821632    -0.8425742421
   64      C       6.4963580396     1.1768921555     0.8322436204
   65      N       4.6136607120     0.0139558253    -0.9155778422
   66      N       7.3658352833     1.8890665015     1.6525643037
   67      C       5.1401462182     1.6187978208     0.7321442768
   68      C       4.2043576370     1.0904348621    -0.2081021351
   69      S       6.3704606831     3.0953727392     2.2075865250
   70      N       4.9716186472     2.6390357460     1.5144671217
   71      C       2.8303223456     1.5393483377    -0.4145838762
   72      S       1.9927985911     1.2582694258    -2.0070293560
   73      C       1.9211442030     1.9979594366     0.4941432363
   74      C       0.4731210550     1.8185533951    -1.3468422159
   75      S       2.1008219418     2.4047757492     2.1388928823
   76      C       0.6204127790     2.1819235841    -0.0215930869
   77      C      -0.8093997810     1.5993425364    -2.0225669413
   78      C       0.3778062021     2.8138488521     2.1402918556
   79      C      -0.2580117838     2.6294920382     0.9701597887
   80      N      -0.6656730425     1.4014803608    -3.2523783838
   81      S      -2.3680441068     1.6029906507    -1.3950005648
   82      C      -1.8055056784     1.0274634866    -3.8523391658
   83      C      -2.9041988483     1.1286746400    -3.0069944900
   84      C      11.7786690695    -3.0677136439     0.3855672379
   85      H      11.5398490432    -0.1813774921     0.7643093849
   86      H       9.4584350907     1.0384573321     0.7202644126
   87      H       7.4189324506    -2.5614403260    -0.3747135926
   88      H       6.0818187219    -1.3363585585    -1.4805248511
   89      H      -0.0770196811     3.1143030812     3.0746203161
   90      H      -1.3255766659     2.7312974814     0.8107832711
   91      H      -1.7469680424     0.6262130133    -4.8551858155
   92      H      -3.9351185920     0.8501263531    -3.1752126047
   93      H      11.8248814999    -3.5550226779     1.3675470323
   94      C      13.0685715850    -2.2590124879     0.1342727077
   95      H      11.6575077579    -3.7650149521    -0.4519307156
   96      H      13.2583515202    -1.6199120587     1.0056401489
   97      H      12.9709186332    -1.7449909434    -0.8299781688
   98      C      14.3601832588    -3.1598554283    -0.0531073367
   99      H      14.7053975441    -3.5456359149     0.9140790534
  100      C      15.4620139987    -2.2793024137    -0.6713082823
  101      H      14.1264760073    -3.8955227382    -0.8326530569
  102      H      15.7313083598    -1.4840513097     0.0346281375
  103      H      15.0594292743    -1.7974387483    -1.5707402962
  104      C      16.8342421915    -2.9495650035    -1.1350968628
  105      H      17.6480411786    -2.2190811085    -1.2186222350
  106      C      16.6334131538    -3.8498065806    -2.3752762048
  107      H      17.1349359171    -3.6772470382    -0.3701287982
  108      H      15.8659427009    -4.5941343250    -2.1295317993
  109      H      17.5810071376    -4.3568050877    -2.5948648103
  110      H      16.2421763940    -3.1953626957    -3.1640588106
 ----------------------------------------------------------------

   10   -5663.5116087502      8.95E-06 Convergence criterion met
 Total energy in the final basis set = -5663.5116087502

                    Orbital Energies (a.u.)
 --------------------------------------------------------------

 Alpha MOs
 -- Occupied --
-88.999 -88.983 -88.933 -88.929 -88.923 -88.915 -88.913 -88.905
-14.392 -14.389 -14.383 -14.377 -14.362 -14.348 -14.342 -14.326
-14.324 -14.321 -10.277 -10.275 -10.265 -10.264 -10.259 -10.254
-10.252 -10.252 -10.249 -10.248 -10.247 -10.240 -10.234 -10.233
-10.232 -10.231 -10.231 -10.231 -10.229 -10.228 -10.228 -10.225
-10.224 -10.224 -10.223 -10.223 -10.221 -10.221 -10.220 -10.219
-10.218 -10.212 -10.207 -10.207 -10.199 -10.197 -10.195 -10.192
-10.184 -10.183 -10.181 -10.178 -10.178 -10.176 -10.176 -10.175
-10.175 -10.172 -10.172 -10.171  -8.055  -8.039  -7.993  -7.990
 -7.985  -7.975  -7.971  -7.966  -6.021  -6.015  -6.013  -6.004
 -5.998  -5.996  -5.957  -5.954  -5.953  -5.951  -5.950  -5.948
 -5.947  -5.945  -5.942  -5.940  -5.936  -5.935  -5.932  -5.932
 -5.931  -5.928  -5.927  -5.922  -1.061  -1.033  -0.991  -0.980
 -0.959  -0.949  -0.945  -0.933  -0.925  -0.919  -0.911  -0.900
 -0.854  -0.841  -0.837  -0.828  -0.816  -0.813  -0.811  -0.808
 -0.803  -0.799  -0.798  -0.791  -0.790  -0.777  -0.772  -0.762
 -0.752  -0.749  -0.743  -0.739  -0.731  -0.716  -0.712  -0.711
 -0.696  -0.690  -0.682  -0.669  -0.656  -0.653  -0.648  -0.642
 -0.641  -0.634  -0.627  -0.615  -0.615  -0.610  -0.602  -0.600
 -0.599  -0.590  -0.588  -0.584  -0.578  -0.569  -0.566  -0.559
 -0.557  -0.549  -0.543  -0.536  -0.532  -0.523  -0.520  -0.519
 -0.511  -0.508  -0.504  -0.494  -0.493  -0.488  -0.484  -0.481
 -0.474  -0.472  -0.471  -0.464  -0.463  -0.461  -0.455  -0.450
 -0.446  -0.445  -0.442  -0.440  -0.439  -0.437  -0.437  -0.436
 -0.435  -0.429  -0.427  -0.425  -0.424  -0.420  -0.419  -0.417
 -0.414  -0.411  -0.409  -0.408  -0.405  -0.397  -0.397  -0.395
 -0.392  -0.392  -0.391  -0.390  -0.387  -0.384  -0.382  -0.377
 -0.376  -0.374  -0.372  -0.371  -0.365  -0.363  -0.361  -0.360
 -0.358  -0.356  -0.354  -0.350  -0.348  -0.345  -0.342  -0.341
 -0.340  -0.340  -0.334  -0.330  -0.329  -0.326  -0.322  -0.320
 -0.314  -0.311  -0.310  -0.310  -0.307  -0.304  -0.301  -0.299
 -0.297  -0.295  -0.292  -0.291  -0.290  -0.285  -0.280  -0.279
 -0.271  -0.267  -0.262  -0.261  -0.257  -0.253  -0.252  -0.251
 -0.244  -0.241  -0.236  -0.227  -0.203  -0.188

          Ground-State Mulliken Net Atomic Charges

     Atom                 Charge (a.u.)
  ----------------------------------------
      1 C                     0.260180
      2 C                    -0.107634
      3 N                    -0.462880
      4 C                    -0.070873
      5 C                     0.090395
      6 C                     0.007744
      7 C                    -0.023025
      8 C                     0.074924
      9 C                     0.245056
     10 N                    -0.529694
     11 N                    -0.547484
     12 C                     0.206072
     13 C                     0.327821
     14 S                     0.611455
     15 N                    -0.564106
     16 C                    -0.234023
     17 S                     0.339295
     18 C                    -0.106064
     19 C                    -0.218774
     20 S                     0.295846
     21 C                     0.114305
     22 C                     0.070591
     23 C                    -0.320896
     24 C                    -0.050296
     25 N                    -0.432918
     26 S                     0.258545
     27 C                     0.130236
     28 C                    -0.306679
     29 C                    -0.220202
     30 H                     0.101454
     31 H                     0.108490
     32 H                     0.100293
     33 H                     0.127318
     34 H                     0.129921
     35 H                     0.134818
     36 H                     0.112854
     37 H                     0.137574
     38 H                     0.115881
     39 C                    -0.175246
     40 H                     0.086685
     41 H                     0.105933
     42 H                     0.090143
     43 C                    -0.170182
     44 H                     0.100131
     45 C                    -0.184105
     46 H                     0.100343
     47 H                     0.089120
     48 H                     0.092155
     49 C                    -0.175229
     50 H                     0.086443
     51 C                    -0.324836
     52 H                     0.095968
     53 H                     0.110074
     54 H                     0.095310
     55 H                     0.105996
     56 C                     0.248853
     57 C                    -0.103484
     58 N                    -0.473936
     59 C                    -0.099683
     60 C                     0.047684
     61 C                     0.066823
     62 C                     0.017298
     63 C                     0.061479
     64 C                     0.205154
     65 N                    -0.506826
     66 N                    -0.565601
     67 C                     0.240144
     68 C                     0.291677
     69 S                     0.592938
     70 N                    -0.559194
     71 C                    -0.226787
     72 S                     0.334810
     73 C                    -0.094090
     74 C                    -0.218755
     75 S                     0.279156
     76 C                     0.126436
     77 C                     0.066877
     78 C                    -0.319529
     79 C                    -0.042883
     80 N                    -0.411311
     81 S                     0.300645
     82 C                     0.120860
     83 C                    -0.331042
     84 C                    -0.214306
     85 H                     0.093835
     86 H                     0.111683
     87 H                     0.094416
     88 H                     0.123080
     89 H                     0.113600
     90 H                     0.117463
     91 H                     0.114198
     92 H                     0.117118
     93 H                     0.120862
     94 C                    -0.191236
     95 H                     0.121787
     96 H                     0.098455
     97 H                     0.103489
     98 C                    -0.183491
     99 H                     0.094664
    100 C                    -0.176057
    101 H                     0.096756
    102 H                     0.084440
    103 H                     0.085985
    104 C                    -0.188424
    105 H                     0.092983
    106 C                    -0.312015
    107 H                     0.089422
    108 H                     0.106421
    109 H                     0.101583
    110 H                     0.101356
  ----------------------------------------
  Sum of atomic charges =     0.000000

                    Cartesian Multipole Moments
 -----------------------------------------------------------------
    Charge (ESU x 10^10)
                 0.0000
    Dipole Moment (Debye)
         X      -2.4017      Y       2.8902      Z       0.5213
       Tot       3.7938
    Quadrupole Moments (Debye-Ang)
        XX    -427.9665     XY      -5.1677     YY    -411.7440
        XZ      25.7380     YZ       8.0185     ZZ    -435.7387

 Total job time:  94.88s(wall), 1140.62s(cpu)
        *  Thank you very much for using Q-Chem.  Have a nice day.  *
