 Q-Chem 4.4, Q-Chem, Inc., Pleasanton, CA (2016)
 Q-Chem 4.4.2 for Intel X86 Linux

User input:
--------------------------------------------------------------
$comment
SP
$end

$rem
MEM_STATIC 5000
MEM_TOTAL 20000
JOBTYPE SP
EXCHANGE B3LYP
BASIS 6-31g(d,p)
$end

$molecule
0 1
C         -13.622000     12.838000     -7.251000
C         -13.471000     13.439000     -5.968000
N         -13.266000     13.466000     -8.400000
C         -13.248000     14.818000     -5.918000
C         -13.017000     14.823000     -8.324000
C         -12.951000     15.553000     -7.092000
C         -12.416000     16.900000     -7.045000
C         -11.332000     17.317000     -7.793000
C         -13.064000     18.000000     -6.324000
N         -10.894000     18.579000     -7.909000
N         -14.132000     17.792000     -5.524000
C         -12.610000     19.318000     -6.514000
C         -11.485000     19.604000     -7.275000
S         -14.542000     19.292000     -5.079000
N         -13.325000     20.195000     -5.754000
C         -10.913000     20.980000     -7.247000
S         -11.628000     22.381000     -6.495000
C          -9.868000     21.412000     -8.078000
C         -10.380000     23.465000     -7.145000
S          -8.893000     20.509000     -9.268000
C          -9.624000     22.748000     -8.027000
C         -10.212000     24.852000     -6.823000
C          -8.000000     22.028000     -9.592000
C          -8.503000     23.010000     -8.865000
N         -10.750000     25.310000     -5.665000
S          -9.081000     26.012000     -7.647000
C         -10.367000     26.595000     -5.448000
C          -9.479000     27.116000     -6.423000
C         -13.770000     11.375000     -7.435000
H         -13.452000     12.744000     -5.133000
H         -12.925000     15.143000     -4.934000
H         -12.634000     15.327000     -9.211000
H         -10.755000     16.571000     -8.338000
H          -7.093000     22.033000    -10.180000
H          -8.080000     24.008000     -8.852000
H         -10.567000     27.193000     -4.569000
H          -9.028000     28.095000     -6.513000
H         -14.826000     11.083000     -7.368000
C         -12.951000     10.484000     -6.535000
H         -13.502000     11.181000     -8.481000
H         -13.236000     10.665000     -5.491000
H         -11.927000     10.878000     -6.560000
C         -12.939000      8.891000     -6.787000
H         -13.949000      8.502000     -6.611000
C         -11.868000      8.153000     -5.976000
H         -12.788000      8.678000     -7.853000
H         -11.915000      8.613000     -4.981000
H         -10.934000      8.482000     -6.448000
C         -11.804000      6.617000     -6.056000
H         -12.491000      6.175000     -5.324000
C         -10.368000      6.051000     -5.794000
H         -12.171000      6.242000     -7.020000
H         -10.444000      4.958000     -5.845000
H         -10.009000      6.294000     -4.787000
H          -9.717000      6.286000     -6.645000
C          -4.132000      2.537000      2.659000
C          -3.105000      3.190000      1.897000
N          -5.351000      3.079000      2.732000
C          -3.392000      4.465000      1.393000
C          -5.561000      4.318000      2.251000
C          -4.645000      5.079000      1.474000
C          -5.066000      6.372000      0.943000
C          -6.472000      6.573000      0.593000
C          -4.217000      7.479000      0.741000
N          -6.961000      7.762000      0.156000
N          -2.836000      7.427000      0.903000
C          -4.806000      8.710000      0.314000
C          -6.177000      8.841000     -0.063000
S          -2.401000      8.966000      0.460000
N          -3.874000      9.604000      0.198000
C          -6.828000     10.044000     -0.574000
S          -8.331000      9.922000     -1.595000
C          -6.613000     11.352000     -0.249000
C          -8.547000     11.657000     -1.547000
S          -5.397000     12.077000      0.699000
C          -7.544000     12.254000     -0.807000
C          -9.797000     12.308000     -1.951000
C          -6.171000     13.632000      0.354000
C          -7.274000     13.568000     -0.412000
N         -10.476000     11.587000     -2.720000
S         -10.393000     13.828000     -1.554000
C         -11.696000     12.091000     -2.958000
C         -11.845000     13.375000     -2.447000
C          -3.901000      1.275000      3.485000
H          -2.083000      2.833000      1.812000
H          -2.599000      4.995000      0.873000
H          -6.582000      4.664000      2.404000
H          -7.208000      5.779000      0.708000
H          -5.769000     14.520000      0.823000
H          -7.930000     14.400000     -0.642000
H         -12.431000     11.450000     -3.426000
H         -12.716000     14.015000     -2.426000
H          -3.657000      1.452000      4.540000
C          -2.772000      0.470000      2.808000
H          -4.837000      0.725000      3.331000
H          -1.813000      0.955000      3.029000
H          -3.021000      0.353000      1.746000
C          -2.652000     -1.023000      3.329000
H          -2.176000     -1.050000      4.317000
C          -1.783000     -1.803000      2.325000
H          -3.648000     -1.474000      3.239000
H          -0.768000     -1.387000      2.322000
H          -2.199000     -1.661000      1.320000
C          -1.619000     -3.382000      2.490000
H          -0.733000     -3.766000      1.970000
C          -2.937000     -4.124000      2.172000
H          -1.484000     -3.602000      3.557000
H          -3.719000     -3.714000      2.823000
H          -2.798000     -5.190000      2.390000
H          -3.183000     -3.872000      1.133000
$end

--------------------------------------------------------------

             Standard Nuclear Orientation (Angstroms)
    I     Atom           X                Y                Z
 ----------------------------------------------------------------
    1      C       3.2413452626     5.4771569204    -0.2465860117
    2      C       3.1940118953     4.4857037809     0.7756034152
    3      N       4.1258532390     5.4271914782    -1.2744333225
    4      C       4.2849612471     3.6196745170     0.8926197633
    5      C       5.1791401836     4.5408343896    -1.1553378824
    6      C       5.2902634789     3.5723121175    -0.1042925828
    7      C       6.2545006106     2.4917134499    -0.1777519136
    8      C       6.5628928792     1.8223766959    -1.3462259264
    9      C       7.1176947643     2.1040973700     0.9422456880
   10      N       7.5507858612     0.9297654781    -1.5051493985
   11      N       6.9625734160     2.6351748243     2.1742286850
   12      C       8.1781255908     1.2057680537     0.7235429181
   13      C       8.3661641217     0.5762842167    -0.4991318588
   14      S       8.2028322519     1.9998944224     2.9953875191
   15      N       8.8559923927     0.9597387251     1.8802279091
   16      C       9.3509755445    -0.5373905550    -0.6050514712
   17      S      10.4814942155    -1.0372919282     0.6244021275
   18      C       9.7180567396    -1.1473622811    -1.8143470883
   19      C      11.2698999698    -2.2007946640    -0.4617552048
   20      S       9.1065013723    -0.8858839106    -3.4695700626
   21      C      10.7649610877    -2.0083074511    -1.7153637554
   22      C      12.2764097422    -3.1537235811    -0.0949561357
   23      C      10.2516755576    -2.1479584407    -4.0223177137
   24      C      10.9645623708    -2.5879788007    -3.0005366832
   25      N      12.3783854475    -3.5064205391     1.2109450135
   26      S      13.2374131718    -4.1885034367    -1.2392638123
   27      C      13.2702571248    -4.5210682508     1.3525710434
   28      C      13.8219434343    -4.9926607230     0.1344360936
   29      C       2.1079009555     6.3897718060    -0.5268841978
   30      H       2.2571271217     4.4330798375     1.3234068852
   31      H       4.0653440469     2.7722430568     1.5343659792
   32      H       5.8435923249     4.4125055231    -2.0094509042
   33      H       5.9556574896     2.0086318701    -2.2311237690
   34      H      10.1995582075    -2.5562267609    -5.0218269735
   35      H      11.6791467363    -3.3984296301    -3.0879474239
   36      H      13.4952913535    -5.0665404991     2.2592488375
   37      H      14.5524950579    -5.7676819689    -0.0541862636
   38      H       2.1706381402     7.2868584565     0.1025509355
   39      C       0.7192433118     5.8098813648    -0.4268890732
   40      H       2.2744192564     6.7622261224    -1.5452777552
   41      H       0.5478503911     5.4573486263     0.5979363437
   42      H       0.7374652655     4.8673110817    -0.9887308852
   43      C      -0.5499734860     6.6985341433    -0.8748644735
   44      H      -0.6289326629     7.5595217635    -0.2004293275
   45      C      -1.8528773350     5.8968529721    -0.9705455067
   46      H      -0.3540609815     7.1763019901    -1.8433076443
   47      H      -1.8419666695     5.2527966484    -0.0823414709
   48      H      -1.6822778834     5.2565116967    -1.8447536503
   49      C      -3.1588826712     6.6405946748    -1.3036976361
   50      H      -3.6101439372     7.0347264001    -0.3849047035
   51      C      -4.2117648351     5.7332601010    -2.0243078777
   52      H      -2.9759985972     7.5361647844    -1.9112481231
   53      H      -5.1043409412     6.3500453984    -2.1852730656
   54      H      -4.5225254575     4.8889275583    -1.3978021771
   55      H      -3.8787666129     5.5217511433    -3.0478327405
   56      C     -12.6216443390    -1.0176146463     0.5032834412
   57      C     -12.0868644420    -1.7542356886    -0.6072037950
   58      N     -11.7934849583    -0.4120901281     1.3591725100
   59      C     -10.6988606104    -1.9383156143    -0.6468263191
   60      C     -10.4703718572    -0.6461198945     1.2871739682
   61      C      -9.8012031941    -1.3465708631     0.2462667961
   62      C      -8.3437898485    -1.4277117270     0.2666014977
   63      C      -7.5783674924    -0.3232226332     0.8445024048
   64      C      -7.5867231600    -2.5101743143    -0.2255151312
   65      N      -6.2259335865    -0.3455496013     0.9638130776
   66      N      -8.1409483524    -3.5837533978    -0.9157117609
   67      C      -6.1700716578    -2.4834430589    -0.0331743891
   68      C      -5.4651391011    -1.3582513765     0.4921300639
   69      S      -6.7834458881    -4.4614252930    -1.2910437523
   70      N      -5.6568934209    -3.5620016300    -0.5378282368
   71      C      -4.0188736244    -1.2334905331     0.6498700490
   72      S      -3.2303370705     0.4071737623     0.7024511610
   73      C      -3.0964606500    -2.1838590098     0.9795184423
   74      C      -1.6918746795    -0.3069382201     1.1294904426
   75      S      -3.2461175326    -3.8745346416     1.1285275875
   76      C      -1.7993693339    -1.6818816574     1.2188965019
   77      C      -0.5690696862     0.4851525130     1.6407811794
   78      C      -1.5248563577    -3.9069899912     1.5436572279
   79      C      -0.9175752007    -2.7078982126     1.5728034602
   80      N      -0.6606414278     1.6936631654     1.3192852710
   81      S       0.7674750525    -0.0000030127     2.5360449827
   82      C       0.2598889311     2.4601622033     1.9227445349
   83      C       1.2043837441     1.7071979759     2.6104598978
   84      C     -14.1095160989    -0.9449074811     0.8337865337
   85      H     -12.6880999386    -2.2989410938    -1.3289862409
   86      H     -10.2912183178    -2.5508948824    -1.4460280468
   87      H      -9.9061462896    -0.1277026299     2.0607753182
   88      H      -8.0684870787     0.5611167526     1.2483385620
   89      H      -1.0806143782    -4.8553469078     1.8145395313
   90      H       0.0994669861    -2.5250037700     1.9008809103
   91      H       0.1343329112     3.5339323015     1.8855496146
   92      H       2.0253803735     2.0298393273     3.2353991693
   93      H     -14.4590924023    -1.6932653772     1.5560377832
   94      C     -14.8922043306    -1.0794368694    -0.4892009854
   95      H     -14.2181399752     0.0904619844     1.1780581177
   96      H     -14.8735907671    -2.1304367321    -0.8035253781
   97      H     -14.4867492757    -0.3536665458    -1.2050205407
   98      C     -16.4202286461    -0.6719633816    -0.3708918644
   99      H     -16.9926343564    -1.4618323700     0.1310121940
  100      C     -16.9666961263    -0.4768878730    -1.7973896173
  101      H     -16.4502673762     0.3301731415     0.0744586311
  102      H     -16.9355233608    -1.4336009661    -2.3331305214
  103      H     -16.3081599628     0.2196534585    -2.3306862467
  104      C     -18.4399754932     0.1022190946    -2.0009701347
  105      H     -18.8462369419    -0.1302388241    -2.9928204013
  106      C     -18.5245456588     1.5902283581    -1.5917167672
  107      H     -19.0997770353    -0.3755672069    -1.2651058978
  108      H     -18.1819747222     1.6730615245    -0.5528670091
  109      H     -19.5710053393     1.9116663958    -1.6610040313
  110      H     -17.8127756307     2.1219617614    -2.2352880646
 ----------------------------------------------------------------

    9   -5663.5006778615      7.40E-06 Convergence criterion met
 Total energy in the final basis set = -5663.5006778615

                    Orbital Energies (a.u.)
 --------------------------------------------------------------

 Alpha MOs
 -- Occupied --
-88.988 -88.987 -88.934 -88.934 -88.926 -88.920 -88.912 -88.907
-14.389 -14.388 -14.387 -14.382 -14.353 -14.348 -14.348 -14.335
-14.334 -14.324 -10.276 -10.264 -10.264 -10.263 -10.259 -10.259
-10.257 -10.253 -10.245 -10.243 -10.242 -10.238 -10.236 -10.236
-10.236 -10.236 -10.235 -10.232 -10.232 -10.231 -10.230 -10.228
-10.228 -10.228 -10.227 -10.224 -10.223 -10.222 -10.218 -10.212
-10.211 -10.205 -10.203 -10.203 -10.202 -10.201 -10.198 -10.197
-10.186 -10.186 -10.185 -10.182 -10.182 -10.179 -10.179 -10.178
-10.178 -10.174 -10.172 -10.172  -8.043  -8.043  -7.996  -7.995
 -7.984  -7.978  -7.973  -7.966  -6.009  -6.008  -6.003  -6.003
 -6.001  -6.001  -5.960  -5.959  -5.957  -5.955  -5.953  -5.952
 -5.949  -5.945  -5.943  -5.941  -5.939  -5.938  -5.935  -5.934
 -5.931  -5.929  -5.927  -5.922  -1.038  -1.038  -1.001  -0.965
 -0.960  -0.950  -0.937  -0.930  -0.919  -0.918  -0.907  -0.905
 -0.849  -0.848  -0.835  -0.833  -0.819  -0.815  -0.807  -0.806
 -0.804  -0.802  -0.795  -0.794  -0.783  -0.780  -0.770  -0.768
 -0.758  -0.744  -0.743  -0.737  -0.730  -0.723  -0.715  -0.713
 -0.695  -0.694  -0.675  -0.674  -0.654  -0.651  -0.646  -0.643
 -0.635  -0.631  -0.628  -0.620  -0.618  -0.611  -0.607  -0.600
 -0.598  -0.595  -0.585  -0.583  -0.574  -0.574  -0.569  -0.560
 -0.549  -0.548  -0.543  -0.543  -0.528  -0.526  -0.523  -0.518
 -0.509  -0.507  -0.499  -0.497  -0.490  -0.487  -0.481  -0.478
 -0.475  -0.474  -0.469  -0.468  -0.465  -0.464  -0.456  -0.453
 -0.449  -0.446  -0.445  -0.443  -0.442  -0.440  -0.439  -0.436
 -0.435  -0.429  -0.427  -0.424  -0.422  -0.420  -0.417  -0.416
 -0.412  -0.411  -0.405  -0.402  -0.400  -0.398  -0.396  -0.396
 -0.394  -0.394  -0.391  -0.388  -0.386  -0.383  -0.381  -0.379
 -0.378  -0.377  -0.374  -0.368  -0.367  -0.366  -0.364  -0.353
 -0.353  -0.352  -0.349  -0.348  -0.346  -0.344  -0.343  -0.343
 -0.340  -0.338  -0.337  -0.335  -0.332  -0.324  -0.318  -0.317
 -0.315  -0.313  -0.312  -0.312  -0.306  -0.305  -0.305  -0.301
 -0.300  -0.298  -0.297  -0.294  -0.291  -0.285  -0.283  -0.281
 -0.270  -0.267  -0.265  -0.265  -0.261  -0.255  -0.250  -0.249
 -0.246  -0.242  -0.238  -0.232  -0.196  -0.195

          Ground-State Mulliken Net Atomic Charges

     Atom                 Charge (a.u.)
  ----------------------------------------
      1 C                     0.265661
      2 C                    -0.092452
      3 N                    -0.469430
      4 C                    -0.069698
      5 C                     0.067071
      6 C                     0.032197
      7 C                     0.035355
      8 C                     0.045626
      9 C                     0.202123
     10 N                    -0.539266
     11 N                    -0.531290
     12 C                     0.215465
     13 C                     0.338599
     14 S                     0.599251
     15 N                    -0.571214
     16 C                    -0.232306
     17 S                     0.377463
     18 C                    -0.145581
     19 C                    -0.224452
     20 S                     0.268265
     21 C                     0.177466
     22 C                     0.030469
     23 C                    -0.311693
     24 C                    -0.058434
     25 N                    -0.425141
     26 S                     0.291191
     27 C                     0.128608
     28 C                    -0.314654
     29 C                    -0.235842
     30 H                     0.084790
     31 H                     0.097022
     32 H                     0.104310
     33 H                     0.115407
     34 H                     0.133969
     35 H                     0.093983
     36 H                     0.119886
     37 H                     0.137767
     38 H                     0.106324
     39 C                    -0.197902
     40 H                     0.128016
     41 H                     0.083168
     42 H                     0.107722
     43 C                    -0.188319
     44 H                     0.088478
     45 C                    -0.163913
     46 H                     0.093609
     47 H                     0.095651
     48 H                     0.098991
     49 C                    -0.186876
     50 H                     0.094431
     51 C                    -0.321662
     52 H                     0.093704
     53 H                     0.097796
     54 H                     0.116186
     55 H                     0.106955
     56 C                     0.249527
     57 C                    -0.103164
     58 N                    -0.473147
     59 C                    -0.099175
     60 C                     0.048163
     61 C                     0.066272
     62 C                     0.018665
     63 C                     0.061811
     64 C                     0.205850
     65 N                    -0.505584
     66 N                    -0.563265
     67 C                     0.240905
     68 C                     0.290429
     69 S                     0.597891
     70 N                    -0.561558
     71 C                    -0.225602
     72 S                     0.339569
     73 C                    -0.096224
     74 C                    -0.218112
     75 S                     0.287847
     76 C                     0.132384
     77 C                     0.086505
     78 C                    -0.315934
     79 C                    -0.059843
     80 N                    -0.414669
     81 S                     0.272945
     82 C                     0.132197
     83 C                    -0.339220
     84 C                    -0.214022
     85 H                     0.095060
     86 H                     0.112198
     87 H                     0.095039
     88 H                     0.124396
     89 H                     0.124901
     90 H                     0.111539
     91 H                     0.116562
     92 H                     0.136720
     93 H                     0.121612
     94 C                    -0.191857
     95 H                     0.122317
     96 H                     0.098702
     97 H                     0.103585
     98 C                    -0.183710
     99 H                     0.095089
    100 C                    -0.176616
    101 H                     0.097038
    102 H                     0.084655
    103 H                     0.086097
    104 C                    -0.188066
    105 H                     0.093280
    106 C                    -0.311889
    107 H                     0.089555
    108 H                     0.106282
    109 H                     0.101908
    110 H                     0.101311
  ----------------------------------------
  Sum of atomic charges =     0.000000

                    Cartesian Multipole Moments
 -----------------------------------------------------------------
    Charge (ESU x 10^10)
                 0.0000
    Dipole Moment (Debye)
         X       1.8078      Y      -4.5596      Z       0.0785
       Tot       4.9055
    Quadrupole Moments (Debye-Ang)
        XX    -401.3569     XY     -23.2694     YY    -423.7477
        XZ      14.9010     YZ      13.0484     ZZ    -437.9706

 Total job time:  79.01s(wall), 917.66s(cpu)
        *  Thank you very much for using Q-Chem.  Have a nice day.  *
