 Q-Chem 4.4, Q-Chem, Inc., Pleasanton, CA (2016)
 Q-Chem 4.4.2 for Intel X86 Linux

User input:
--------------------------------------------------------------
$comment
SP
$end

$rem
MEM_STATIC 5000
MEM_TOTAL 20000
JOBTYPE SP
EXCHANGE B3LYP
BASIS 6-31g(d,p)
$end

$molecule
0 1
C           1.784000     11.407000     -1.870000
C           3.131000     11.231000     -1.282000
N           0.973000     10.369000     -1.892000
C           3.452000     10.037000     -0.710000
C           1.361000      9.110000     -1.453000
C           2.557000      8.913000     -0.763000
C           2.972000      7.539000     -0.292000
C           4.347000      7.221000     -0.242000
C           2.136000      6.572000      0.180000
N           4.810000      6.101000      0.278000
N           0.829000      6.752000      0.396000
C           2.626000      5.336000      0.702000
C           4.017000      5.124000      0.787000
S           0.269000      5.428000      1.168000
N           1.726000      4.629000      1.376000
C           4.571000      3.773000      1.075000
S           3.647000      2.376000      1.747000
C           5.913000      3.428000      1.029000
C           5.189000      1.581000      2.206000
S           7.224000      4.332000      0.317000
C           6.211000      2.233000      1.680000
C           5.224000      0.232000      2.738000
C           8.309000      3.070000      1.008000
C           7.659000      2.095000      1.753000
N           4.153000     -0.490000      2.511000
S           6.634000     -0.587000      3.242000
C           4.388000     -1.793000      2.955000
C           5.594000     -1.923000      3.519000
C           1.326000     12.641000     -2.624000
H           3.836000     12.049000     -1.173000
H           4.445000      9.847000     -0.313000
H           0.634000      8.303000     -1.526000
H           5.077000      7.979000     -0.521000
H           9.349000      3.037000      0.712000
H           8.202000      1.338000      2.306000
H           3.604000     -2.537000      2.893000
H           5.994000     -2.810000      3.994000
H           0.454000     12.417000     -3.250000
C           2.390000     13.336000     -3.574000
H           0.944000     13.406000     -1.937000
H           3.232000     13.765000     -3.016000
H           1.982000     14.237000     -4.047000
C           2.865000     12.216000     -4.542000
H           3.475000     11.394000     -4.147000
C           3.755000     12.823000     -5.653000
H           2.016000     11.720000     -5.030000
H           4.670000     13.219000     -5.196000
H           3.200000     13.712000     -5.978000
C           4.143000     11.790000     -6.739000
H           4.930000     11.130000     -6.355000
C           4.604000     12.682000     -7.858000
H           3.276000     11.221000     -7.096000
H           3.868000     13.452000     -8.120000
H           4.917000     12.110000     -8.741000
H           5.516000     13.214000     -7.561000
C          -4.132000      2.537000      2.659000
C          -3.105000      3.190000      1.897000
N          -5.351000      3.079000      2.732000
C          -3.392000      4.465000      1.393000
C          -5.561000      4.318000      2.251000
C          -4.645000      5.079000      1.474000
C          -5.066000      6.372000      0.943000
C          -6.472000      6.573000      0.593000
C          -4.217000      7.479000      0.741000
N          -6.961000      7.762000      0.156000
N          -2.836000      7.427000      0.903000
C          -4.806000      8.710000      0.314000
C          -6.177000      8.841000     -0.063000
S          -2.401000      8.966000      0.460000
N          -3.874000      9.604000      0.198000
C          -6.828000     10.044000     -0.574000
S          -8.331000      9.922000     -1.595000
C          -6.613000     11.352000     -0.249000
C          -8.547000     11.657000     -1.547000
S          -5.397000     12.077000      0.699000
C          -7.544000     12.254000     -0.807000
C          -9.797000     12.308000     -1.951000
C          -6.171000     13.632000      0.354000
C          -7.274000     13.568000     -0.412000
N         -10.476000     11.587000     -2.720000
S         -10.393000     13.828000     -1.554000
C         -11.696000     12.091000     -2.958000
C         -11.845000     13.375000     -2.447000
C          -3.901000      1.275000      3.485000
H          -2.083000      2.833000      1.812000
H          -2.599000      4.995000      0.873000
H          -6.582000      4.664000      2.404000
H          -7.208000      5.779000      0.708000
H          -5.769000     14.520000      0.823000
H          -7.930000     14.400000     -0.642000
H         -12.431000     11.450000     -3.426000
H         -12.716000     14.015000     -2.426000
H          -3.657000      1.452000      4.540000
C          -2.772000      0.470000      2.808000
H          -4.837000      0.725000      3.331000
H          -1.813000      0.955000      3.029000
H          -3.021000      0.353000      1.746000
C          -2.652000     -1.023000      3.329000
H          -2.176000     -1.050000      4.317000
C          -1.783000     -1.803000      2.325000
H          -3.648000     -1.474000      3.239000
H          -0.768000     -1.387000      2.322000
H          -2.199000     -1.661000      1.320000
C          -1.619000     -3.382000      2.490000
H          -0.733000     -3.766000      1.970000
C          -2.937000     -4.124000      2.172000
H          -1.484000     -3.602000      3.557000
H          -3.719000     -3.714000      2.823000
H          -2.798000     -5.190000      2.390000
H          -3.183000     -3.872000      1.133000
$end

--------------------------------------------------------------

             Standard Nuclear Orientation (Angstroms)
    I     Atom           X                Y                Z
 ----------------------------------------------------------------
    1      C       1.5372492252    -5.5822330763     0.5399198582
    2      C       0.3208167264    -6.1507753851     1.1629612846
    3      N       1.4530721221    -4.3925305621    -0.0196971028
    4      C      -0.8114422438    -5.3949127068     1.2131831519
    5      C       0.2568479144    -3.6928057565    -0.1078948426
    6      C      -0.8843647556    -4.1066718102     0.5788900811
    7      C      -2.1820466962    -3.3404961948     0.4743027621
    8      C      -3.4012176177    -4.0482280850     0.5578900556
    9      C      -2.3030751798    -1.9861859824     0.3850561673
   10      N      -4.5777469860    -3.4547799066     0.6104914345
   11      N      -1.2783287685    -1.1340988845     0.4906372745
   12      C      -3.5755527766    -1.3373390141     0.3939092715
   13      C      -4.7442190354    -2.1087714109     0.5556536151
   14      S      -1.8954353083     0.3750787495     0.5548430953
   15      N      -3.5214128530    -0.0244618630     0.5876809279
   16      C      -6.0904356583    -1.5219743050     0.3139286465
   17      S      -6.4697930460     0.2394525461     0.2117894249
   18      C      -7.2835245131    -2.2278883027     0.2957789209
   19      C      -8.2065953967    -0.1221728967     0.4823714525
   20      S      -7.5001550951    -3.9562638153     0.2026645916
   21      C      -8.4159268116    -1.4251378850     0.4136211946
   22      C      -9.2238513120     0.9081982553     0.3953330005
   23      C      -9.2574676803    -3.6263613072     0.4270901088
   24      C      -9.5752096303    -2.2861171540     0.6029754775
   25      N      -8.8699361828     1.9949723986    -0.2477222404
   26      S     -10.8895155913     0.6681337334     0.6796014191
   27      C      -9.9846014637     2.8273953298    -0.3692268700
   28      C     -11.0633763076     2.3156740852     0.2339465744
   29      C       2.8327912215    -6.3417178577     0.3259343388
   30      H       0.3203596657    -7.0970506888     1.6945559052
   31      H      -1.7401120870    -5.7904125439     1.6143192898
   32      H       0.2731183935    -2.7245908402    -0.6052902059
   33      H      -3.3794057369    -5.1247478551     0.7189317471
   34      H      -9.9752633910    -4.4219020476     0.2781295496
   35      H     -10.5792875099    -1.9616206670     0.8484070192
   36      H      -9.8878875429     3.7987653367    -0.8373323360
   37      H     -12.0323801976     2.7878010560     0.3365213504
   38      H       3.4496069490    -5.8570435444    -0.4402674415
   39      C       2.7081303565    -7.8650607420    -0.1001021922
   40      H       3.4701442332    -6.2969950521     1.2175054292
   41      H       2.2612278819    -8.4846773967     0.6877571730
   42      H       3.6917049825    -8.3398052008    -0.1959805208
   43      C       1.8285844102    -7.8590180554    -1.3820582813
   44      H       0.7656776893    -7.6003925870    -1.2974936919
   45      C       1.8060906606    -9.2725145409    -2.0116547525
   46      H       2.2223708660    -7.1653706187    -2.1362110913
   47      H       1.3052143927    -9.9599431307    -1.3192279346
   48      H       2.8584100584    -9.5830197688    -1.9981866986
   49      C       1.0710292662    -9.3083842987    -3.3737953866
   50      H      -0.0124812308    -9.2750453161    -3.2085122507
   51      C       1.5488898832   -10.6147364212    -3.9442683156
   52      H       1.4032488446    -8.5057760786    -4.0433842132
   53      H       2.6421703327   -10.7040074751    -3.9471902756
   54      H       1.1282867837   -10.8104141053    -4.9390774815
   55      H       1.1720375263   -11.4478096831    -3.3385057868
   56      C      -0.8894607981     5.7369155915     0.1206956953
   57      C      -1.0532899953     4.3380716806    -0.1589070712
   58      N       0.3374199064     6.2467649736     0.2616614517
   59      C       0.0932369987     3.5349171541    -0.1096256492
   60      C       1.3996224419     5.4232619649     0.3260863535
   61      C       1.3903231966     4.0256006097     0.0646245774
   62      C       2.6517120782     3.2909579358     0.0804116291
   63      C       3.8785468569     3.9762351036    -0.3258009126
   64      C       2.7993886341     1.9451172751     0.4727871518
   65      N       5.1020867632     3.3893112694    -0.2780357519
   66      N       1.7268487010     1.1099626839     0.7699132205
   67      C       4.1211398366     1.4031263880     0.5346792927
   68      C       5.2822532182     2.0982427271     0.0790917708
   69      S       2.5079953711    -0.3218373515     1.0761052167
   70      N       4.0513925096     0.1685331102     0.9248468833
   71      C       6.6480761414     1.5829169652     0.0459541556
   72      S       7.8720815169     2.2751046543    -1.1112066127
   73      C       7.2804587012     0.7434225027     0.9166178941
   74      C       9.1544341610     1.3502327817    -0.3632970489
   75      S       6.6748259423    -0.1622688160     2.2265481199
   76      C       8.6628464651     0.5874878614     0.6790942998
   77      C      10.5731870520     1.6268441044    -0.6085385835
   78      C       8.3263439116    -0.7510276542     2.4755007810
   79      C       9.2447372713    -0.2655932963     1.6220559257
   80      N      10.7537739840     2.2377467017    -1.6885521837
   81      S      11.9197933990     1.2289548453     0.3142617653
   82      C      12.0204208665     2.6510444988    -1.8429885981
   83      C      12.8638465843     2.1443864399    -0.8612000924
   84      C      -2.0528775756     6.6950192469     0.3589807920
   85      H      -2.0132859703     3.8402043335    -0.2573643344
   86      H      -0.0304453711     2.4652326269    -0.2532455773
   87      H       2.3377236316     5.9538347214     0.4810854116
   88      H       3.8712470199     5.0155489465    -0.6500391713
   89      H       8.5182704541    -1.3968501403     3.3217788197
   90      H      10.3137691967    -0.4352510669     1.6840799806
   91      H      12.2322620443     3.3666607873    -2.6260254063
   92      H      13.9122082082     2.3379000640    -0.6818334763
   93      H      -2.3314544725     6.8301761532     1.4116049050
   94      C      -3.2621983128     6.1757815296    -0.4465814636
   95      H      -1.6997107213     7.6112429933    -0.1289938177
   96      H      -3.6883936782     5.3109434559     0.0770210734
   97      H      -2.9392934318     6.0036043037    -1.4808065072
   98      C      -4.4332669086     7.2349722448    -0.5935623219
   99      H      -5.0004035073     7.3157258311     0.3420037831
  100      C      -5.3697935586     6.7479851538    -1.7148733434
  101      H      -3.9848118966     8.1544083277    -0.9898480669
  102      H      -5.8358673893     5.8015061715    -1.4144690816
  103      H      -4.7676089502     6.5479779428    -2.6096447181
  104      C      -6.5560064737     7.6929044363    -2.2122549569
  105      H      -7.3452964561     7.1343010908    -2.7297833388
  106      C      -6.0166853199     8.9232963822    -2.9765064551
  107      H      -7.0174128910     8.1554239392    -1.3300453290
  108      H      -5.3130039078     9.4464781570    -2.3173112633
  109      H      -6.8600000078     9.5836628927    -3.2130173617
  110      H      -5.4593005476     8.5264098375    -3.8340286334
 ----------------------------------------------------------------

    9   -5663.4913813106      8.97E-06 Convergence criterion met
 Total energy in the final basis set = -5663.4913813106

                    Orbital Energies (a.u.)
 --------------------------------------------------------------

 Alpha MOs
 -- Occupied --
-88.984 -88.982 -88.931 -88.928 -88.919 -88.915 -88.914 -88.907
-14.384 -14.382 -14.379 -14.375 -14.348 -14.343 -14.342 -14.328
-14.327 -14.322 -10.266 -10.264 -10.259 -10.257 -10.254 -10.251
-10.251 -10.251 -10.241 -10.240 -10.240 -10.240 -10.236 -10.233
-10.232 -10.232 -10.230 -10.230 -10.228 -10.228 -10.228 -10.226
-10.225 -10.223 -10.223 -10.222 -10.222 -10.220 -10.216 -10.211
-10.210 -10.208 -10.208 -10.205 -10.201 -10.200 -10.197 -10.196
-10.191 -10.189 -10.183 -10.181 -10.179 -10.178 -10.177 -10.175
-10.174 -10.172 -10.170 -10.167  -8.039  -8.037  -7.994  -7.991
 -7.976  -7.973  -7.973  -7.969  -6.005  -6.002  -5.999  -5.997
 -5.996  -5.994  -5.957  -5.954  -5.954  -5.951  -5.950  -5.948
 -5.941  -5.938  -5.938  -5.937  -5.934  -5.934  -5.933  -5.933
 -5.930  -5.929  -5.929  -5.925  -1.033  -1.032  -0.995  -0.979
 -0.959  -0.945  -0.934  -0.932  -0.914  -0.913  -0.906  -0.900
 -0.844  -0.839  -0.833  -0.828  -0.817  -0.813  -0.808  -0.805
 -0.802  -0.800  -0.798  -0.791  -0.781  -0.777  -0.770  -0.763
 -0.753  -0.752  -0.744  -0.739  -0.721  -0.719  -0.711  -0.711
 -0.697  -0.690  -0.678  -0.669  -0.650  -0.647  -0.646  -0.641
 -0.632  -0.627  -0.619  -0.615  -0.613  -0.609  -0.603  -0.601
 -0.594  -0.591  -0.585  -0.579  -0.578  -0.576  -0.570  -0.558
 -0.548  -0.544  -0.542  -0.538  -0.529  -0.523  -0.522  -0.521
 -0.508  -0.504  -0.496  -0.494  -0.485  -0.483  -0.476  -0.476
 -0.471  -0.471  -0.468  -0.466  -0.464  -0.461  -0.452  -0.448
 -0.443  -0.443  -0.442  -0.441  -0.439  -0.438  -0.436  -0.435
 -0.431  -0.431  -0.426  -0.425  -0.420  -0.419  -0.417  -0.416
 -0.413  -0.411  -0.403  -0.400  -0.400  -0.397  -0.396  -0.394
 -0.390  -0.390  -0.389  -0.388  -0.387  -0.385  -0.382  -0.378
 -0.375  -0.374  -0.371  -0.370  -0.365  -0.364  -0.361  -0.359
 -0.358  -0.353  -0.350  -0.348  -0.345  -0.345  -0.342  -0.339
 -0.338  -0.335  -0.333  -0.333  -0.329  -0.328  -0.328  -0.321
 -0.313  -0.309  -0.308  -0.307  -0.303  -0.300  -0.298  -0.297
 -0.295  -0.293  -0.291  -0.289  -0.286  -0.280  -0.279  -0.276
 -0.270  -0.264  -0.263  -0.261  -0.257  -0.256  -0.244  -0.242
 -0.240  -0.238  -0.235  -0.228  -0.196  -0.191

          Ground-State Mulliken Net Atomic Charges

     Atom                 Charge (a.u.)
  ----------------------------------------
      1 C                     0.289668
      2 C                    -0.126441
      3 N                    -0.486957
      4 C                    -0.075873
      5 C                     0.059797
      6 C                     0.053175
      7 C                     0.044902
      8 C                     0.063787
      9 C                     0.215692
     10 N                    -0.513439
     11 N                    -0.567900
     12 C                     0.184213
     13 C                     0.308403
     14 S                     0.612575
     15 N                    -0.549746
     16 C                    -0.231004
     17 S                     0.344776
     18 C                    -0.115430
     19 C                    -0.242125
     20 S                     0.290200
     21 C                     0.167434
     22 C                     0.064202
     23 C                    -0.302433
     24 C                    -0.085184
     25 N                    -0.429969
     26 S                     0.284492
     27 C                     0.118512
     28 C                    -0.304484
     29 C                    -0.236530
     30 H                     0.092399
     31 H                     0.093960
     32 H                     0.124037
     33 H                     0.107568
     34 H                     0.127284
     35 H                     0.115944
     36 H                     0.120233
     37 H                     0.127823
     38 H                     0.128877
     39 C                    -0.194466
     40 H                     0.104356
     41 H                     0.092549
     42 H                     0.100215
     43 C                    -0.172404
     44 H                     0.100075
     45 C                    -0.178938
     46 H                     0.099135
     47 H                     0.088152
     48 H                     0.086506
     49 C                    -0.174396
     50 H                     0.098389
     51 C                    -0.309565
     52 H                     0.098539
     53 H                     0.105764
     54 H                     0.086621
     55 H                     0.098082
     56 C                     0.249757
     57 C                    -0.108718
     58 N                    -0.473366
     59 C                    -0.099111
     60 C                     0.047476
     61 C                     0.069255
     62 C                     0.017190
     63 C                     0.060946
     64 C                     0.213452
     65 N                    -0.506736
     66 N                    -0.583913
     67 C                     0.239669
     68 C                     0.290396
     69 S                     0.620651
     70 N                    -0.562266
     71 C                    -0.225698
     72 S                     0.339022
     73 C                    -0.095739
     74 C                    -0.218401
     75 S                     0.288229
     76 C                     0.132296
     77 C                     0.086074
     78 C                    -0.315837
     79 C                    -0.060509
     80 N                    -0.408611
     81 S                     0.266759
     82 C                     0.124095
     83 C                    -0.330629
     84 C                    -0.213916
     85 H                     0.096257
     86 H                     0.108183
     87 H                     0.095359
     88 H                     0.123207
     89 H                     0.122622
     90 H                     0.109806
     91 H                     0.118626
     92 H                     0.132750
     93 H                     0.121481
     94 C                    -0.192914
     95 H                     0.121645
     96 H                     0.102880
     97 H                     0.103281
     98 C                    -0.183818
     99 H                     0.094994
    100 C                    -0.177665
    101 H                     0.095740
    102 H                     0.090691
    103 H                     0.085994
    104 C                    -0.188249
    105 H                     0.091334
    106 C                    -0.311758
    107 H                     0.088129
    108 H                     0.106469
    109 H                     0.100401
    110 H                     0.101689
  ----------------------------------------
  Sum of atomic charges =     0.000000

                    Cartesian Multipole Moments
 -----------------------------------------------------------------
    Charge (ESU x 10^10)
                 0.0000
    Dipole Moment (Debye)
         X      -2.1909      Y      -3.6796      Z       1.9596
       Tot       4.7095
    Quadrupole Moments (Debye-Ang)
        XX    -337.0019     XY     -11.1908     YY    -432.7830
        XZ       9.9784     YZ     -10.5197     ZZ    -449.7996

 Total job time:  81.32s(wall), 957.12s(cpu)
        *  Thank you very much for using Q-Chem.  Have a nice day.  *
