 Q-Chem 4.4, Q-Chem, Inc., Pleasanton, CA (2016)
 Q-Chem 4.4.2 for Intel X86 Linux

User input:
--------------------------------------------------------------
$comment
SP
$end

$rem
MEM_STATIC 5000
MEM_TOTAL 20000
JOBTYPE SP
EXCHANGE B3LYP
BASIS 6-31g(d,p)
$end

$molecule
0 1
C          13.027000    -19.792000     15.173000
C          13.002000    -18.545000     14.559000
N          14.192000    -20.523000     15.285000
C          14.187000    -18.019000     14.052000
C          15.291000    -19.972000     14.780000
C          15.341000    -18.760000     14.078000
C          16.637000    -18.184000     13.561000
C          16.803000    -16.778000     13.415000
C          17.675000    -18.974000     13.042000
N          17.957000    -16.244000     13.002000
N          17.591000    -20.319000     12.881000
C          18.846000    -18.461000     12.512000
C          18.965000    -17.000000     12.476000
S          19.003000    -20.809000     12.362000
N          19.737000    -19.396000     12.090000
C          20.195000    -16.365000     11.954000
S          21.662000    -17.169000     11.460000
C          20.388000    -15.001000     11.761000
C          22.507000    -15.655000     11.120000
S          19.202000    -13.774000     11.908000
C          21.655000    -14.596000     11.293000
C          23.773000    -15.613000     10.388000
C          20.397000    -12.650000     11.206000
C          21.629000    -13.226000     10.985000
N          24.606000    -14.575000     10.521000
S          24.482000    -17.072000      9.615000
C          25.755000    -14.836000      9.894000
C          25.869000    -16.087000      9.408000
C          11.704000    -20.306000     15.886000
H          12.057000    -18.021000     14.451000
H          14.163000    -17.069000     13.527000
H          16.189000    -20.559000     14.967000
H          16.116000    -16.054000     13.851000
H          20.115000    -11.633000     10.967000
H          22.545000    -12.801000     10.592000
H          26.540000    -14.104000      9.755000
H          26.717000    -16.635000      9.021000
H          11.471000    -19.457000     16.540000
C          11.902000    -21.714000     16.568000
H          10.977000    -20.430000     15.073000
H          12.444000    -21.641000     17.519000
H          12.581000    -22.298000     15.934000
C          10.505000    -22.365000     16.705000
H           9.809000    -21.745000     17.282000
C          10.662000    -23.751000     17.520000
H          10.117000    -22.546000     15.694000
H          11.177000    -23.531000     18.463000
H          11.397000    -24.315000     16.932000
C           9.344000    -24.548000     17.774000
H           8.910000    -24.575000     16.767000
C           8.315000    -23.985000     18.768000
H           9.670000    -25.527000     18.145000
H           7.974000    -22.962000     18.567000
H           8.761000    -24.092000     19.764000
H           7.412000    -24.599000     18.664000
C          29.509000      0.158000      9.137000
C          28.296000      0.209000      9.846000
N          29.966000     -0.979000      8.537000
C          27.594000     -0.945000     10.068000
C          29.173000     -2.066000      8.627000
C          27.994000     -2.150000      9.419000
C          27.257000     -3.468000      9.630000
C          26.336000     -3.572000     10.676000
C          27.402000     -4.625000      8.775000
N          25.606000     -4.724000     10.917000
N          28.225000     -4.746000      7.727000
C          26.590000     -5.716000      8.970000
C          25.644000     -5.699000     10.002000
S          27.896000     -6.225000      7.093000
N          26.753000     -6.762000      8.171000
C          24.631000     -6.725000     10.396000
S          23.796000     -6.642000     11.974000
C          24.115000     -7.735000      9.666000
C          22.955000     -8.084000     11.605000
S          24.191000     -8.053000      7.973000
C          23.207000     -8.477000     10.305000
C          22.028000     -8.623000     12.577000
C          22.993000     -9.282000      8.108000
C          22.479000     -9.298000      9.421000
N          21.583000     -9.803000     12.447000
S          21.529000     -7.667000     13.877000
C          20.747000    -10.182000     13.494000
C          20.605000     -9.112000     14.336000
C          30.534000      1.240000      9.364000
H          27.979000      1.122000     10.340000
H          26.688000     -1.053000     10.657000
H          29.559000     -2.950000      8.121000
H          26.266000     -2.882000     11.516000
H          22.685000     -9.736000      7.175000
H          21.649000     -9.911000      9.751000
H          20.253000    -11.143000     13.550000
H          20.033000     -9.007000     15.249000
H          30.016000      1.991000      9.974000
C          31.061000      1.831000      8.024000
H          31.392000      0.898000      9.955000
H          30.145000      2.054000      7.462000
H          31.524000      0.999000      7.479000
C          32.049000      3.011000      8.267000
H          31.563000      3.831000      8.809000
C          32.709000      3.483000      6.912000
H          32.826000      2.641000      8.948000
H          33.187000      4.466000      7.007000
H          31.929000      3.674000      6.164000
C          33.629000      2.441000      6.238000
H          34.382000      2.154000      6.983000
C          34.389000      2.815000      4.963000
H          33.081000      1.527000      5.978000
H          35.122000      3.596000      5.198000
H          33.640000      3.153000      4.236000
H          35.031000      1.983000      4.649000
$end

--------------------------------------------------------------

             Standard Nuclear Orientation (Angstroms)
    I     Atom           X                Y                Z
 ----------------------------------------------------------------
    1      C     -12.9058744803     2.0180522012    -0.6221856262
    2      C     -11.8099527901     2.5076504684    -1.3235266173
    3      N     -12.8039157706     0.9242518351     0.2128803476
    4      C     -10.5765209841     1.8805387859    -1.1707950959
    5      C     -11.6027802905     0.3648474390     0.3166458532
    6      C     -10.4665868671     0.7436831139    -0.4112250392
    7      C      -9.1267061834     0.0771599926    -0.2133673066
    8      C      -7.9166911089     0.7890511145    -0.4474240305
    9      C      -8.9826377702    -1.2960682072     0.0403916411
   10      N      -6.7196705861     0.2326646235    -0.2352520704
   11      N     -10.0185524625    -2.1727677639     0.0571438856
   12      C      -7.7615048265    -1.9346293493     0.1683916470
   13      C      -6.5655738399    -1.1049294237    -0.0085973606
   14      S      -9.4239910637    -3.5791473096     0.4716294900
   15      N      -7.8401501794    -3.2630251944     0.4429265032
   16      C      -5.2183781216    -1.6977539803     0.1405057638
   17      S      -4.8376153043    -3.3215337742     0.6512893363
   18      C      -4.0123868214    -1.0519297799    -0.1114666272
   19      C      -3.0934386275    -3.0419610867     0.6124585175
   20      S      -3.8144361346     0.4964776775    -0.8164374575
   21      C      -2.8329206744    -1.7840834218     0.1358159090
   22      C      -2.1239948332    -4.1345932374     0.6941757916
   23      C      -2.0680268798     0.1411755110    -0.9059923866
   24      C      -1.7223342825    -1.0625407814    -0.3315320175
   25      N      -0.8722834179    -3.9090161140     1.1081268687
   26      S      -2.6203821781    -5.8611577743     0.6558938949
   27      C      -0.2305799139    -5.0698919865     1.2565681754
   28      C      -0.9939176669    -6.1684888078     1.0997450296
   29      C     -14.2647818336     2.8382179413    -0.6821269655
   30      H     -11.9409314424     3.3429173417    -2.0050241176
   31      H      -9.7298232939     2.2276535881    -1.7550170876
   32      H     -11.5680674661    -0.4423892221     1.0467869304
   33      H      -7.8821609931     1.8709186389    -0.5683013683
   34      H      -1.3963623458     0.8273303196    -1.4049837016
   35      H      -0.7545544420    -1.5362759955    -0.2170456553
   36      H       0.8289094242    -5.1451264269     1.4643953185
   37      H      -0.8113250051    -7.2105086366     1.3234224676
   38      H     -13.9222148003     3.8392392767    -0.3933188738
   39      C     -15.3988501069     2.1790821062     0.1932135981
   40      H     -14.5805103397     2.7820307009    -1.7319043250
   41      H     -15.2670462493     2.3823565060     1.2631674576
   42      H     -15.2802111204     1.0902906290     0.1260502887
   43      C     -16.7580339668     2.6670544479    -0.3623772844
   44      H     -16.8445621214     3.7598610275    -0.3567507399
   45      C     -17.9337665808     2.1130045419     0.5970764779
   46      H     -16.8658029985     2.2743892466    -1.3819977410
   47      H     -17.7035656551     2.4206619429     1.6243196124
   48      H     -17.7785476130     1.0267404276     0.5955448485
   49      C     -19.3878580944     2.5212624902     0.2023711223
   50      H     -19.4062104096     2.2546853009    -0.8614586548
   51      C     -19.8222355016     3.9855710848     0.3783330720
   52      H     -20.0384139286     1.8993548018     0.8287623209
   53      H     -19.1906704540     4.7296045366    -0.1224171783
   54      H     -19.8963347694     4.1552655680     1.4591170841
   55      H     -20.7988707249     4.0826147130    -0.1115517869
   56      C      13.6412697790     1.7485571584     0.5041465161
   57      C      12.7801565978     2.8566490627     0.4188973468
   58      N      13.1972993898     0.4608841003     0.4241065954
   59      C      11.4259979905     2.6591915373     0.3862019072
   60      C      11.8744482153     0.2930458298     0.2230765355
   61      C      10.9089538191     1.3379014523     0.2444844552
   62      C       9.4116143889     1.0525677873     0.2074259809
   63      C       8.5181444322     2.0597533084     0.5822082681
   64      C       8.8333655551    -0.1910678939    -0.2505015007
   65      N       7.1440595328     1.8897172272     0.5495981448
   66      N       9.4974583368    -1.2825931595    -0.6477764331
   67      C       7.4692047234    -0.2973011581    -0.3747179199
   68      C       6.6569936611     0.7937179883    -0.0427248289
   69      S       8.3358878684    -2.3363733960    -1.1355666137
   70      N       6.9720078248    -1.4536452782    -0.7927484451
   71      C       5.1723775730     0.9476804635    -0.1220446067
   72      S       4.3358053317     2.2892258569     0.7113825602
   73      C       4.2831978831     0.2512491942    -0.8593362492
   74      C       2.8314011222     1.6956426765     0.1570965489
   75      S       4.5207349265    -0.8459251918    -2.1681271110
   76      C       3.0146655776     0.6448100448    -0.7204670781
   77      C       1.6210608826     2.3956979351     0.5307717279
   78      C       2.8381910280    -0.8402639520    -2.5326596610
   79      C       2.1840748949     0.1153475117    -1.7280729255
   80      N       0.4896483410     1.8523423065     0.3518993667
   81      S       1.7218106756     3.9468631969     1.1915839627
   82      C      -0.5638986691     2.6367757499     0.8139046375
   83      C      -0.0470019795     3.8174014643     1.2753899945
   84      C      15.0160156471     1.9352815370     1.0941344860
   85      H      13.1630837544     3.8671591894     0.5205343316
   86      H      10.6559130687     3.4249243930     0.3927903003
   87      H      11.5575898706    -0.7461828995     0.1450224671
   88      H       8.7878200726     2.9578218739     1.1365979330
   89      H       2.5491059582    -1.4126993700    -3.4045636205
   90      H       1.1397455488     0.3882087939    -1.8202246348
   91      H      -1.6048275981     2.3537606022     0.7298666048
   92      H      -0.5400829523     4.6821055130     1.7007557930
   93      H      15.1264028151     3.0215165248     1.2051895368
   94      C      16.1240921794     1.3198115459     0.1908221985
   95      H      15.1103201157     1.5091302212     2.1000722193
   96      H      15.8970902204     1.7201443152    -0.8055877495
   97      H      15.9025547758     0.2479876451     0.1151075732
   98      C      17.5477064007     1.5981276937     0.7595538318
   99      H      17.7472389040     2.6745340774     0.8219723970
  100      C      18.6474119005     0.8214545821    -0.0661795946
  101      H      17.5495401523     1.2477016345     1.7995481656
  102      H      19.6568373831     1.2037950925     0.1304772873
  103      H      18.5242762389     1.0274148193    -1.1370684728
  104      C      18.5690011196    -0.7182455750     0.0318774083
  105      H      18.6035858958    -0.9700535581     1.0994913989
  106      C      19.6324162432    -1.5755358339    -0.6589935541
  107      H      17.6133254902    -1.0987712516    -0.3491531692
  108      H      20.6023631981    -1.4008759606    -0.1781902332
  109      H      19.6345335192    -1.2849802601    -1.7169855085
  110      H      19.4573597942    -2.6372000507    -0.4463710473
 ----------------------------------------------------------------

   10   -5663.5131004876      4.51E-06 Convergence criterion met
 Total energy in the final basis set = -5663.5131004876

                    Orbital Energies (a.u.)
 --------------------------------------------------------------

 Alpha MOs
 -- Occupied --
-88.991 -88.989 -88.924 -88.922 -88.922 -88.922 -88.908 -88.902
-14.393 -14.389 -14.384 -14.378 -14.351 -14.347 -14.344 -14.335
-14.330 -14.329 -10.271 -10.269 -10.261 -10.259 -10.258 -10.256
-10.255 -10.252 -10.242 -10.240 -10.240 -10.239 -10.235 -10.232
-10.231 -10.231 -10.231 -10.229 -10.227 -10.226 -10.225 -10.224
-10.223 -10.222 -10.221 -10.220 -10.220 -10.217 -10.217 -10.212
-10.210 -10.208 -10.204 -10.199 -10.198 -10.197 -10.196 -10.193
-10.193 -10.183 -10.182 -10.178 -10.177 -10.177 -10.176 -10.176
-10.174 -10.173 -10.172 -10.170  -8.047  -8.045  -7.985  -7.985
 -7.982  -7.982  -7.968  -7.964  -6.012  -6.010  -6.006  -6.005
 -6.005  -6.003  -5.949  -5.949  -5.946  -5.946  -5.946  -5.946
 -5.943  -5.943  -5.942  -5.942  -5.939  -5.938  -5.933  -5.929
 -5.929  -5.925  -5.925  -5.920  -1.049  -1.047  -0.982  -0.973
 -0.956  -0.954  -0.937  -0.933  -0.926  -0.915  -0.915  -0.905
 -0.854  -0.845  -0.834  -0.830  -0.811  -0.809  -0.809  -0.807
 -0.800  -0.800  -0.796  -0.794  -0.782  -0.779  -0.768  -0.763
 -0.751  -0.748  -0.741  -0.739  -0.733  -0.719  -0.707  -0.706
 -0.691  -0.688  -0.674  -0.674  -0.655  -0.654  -0.648  -0.643
 -0.634  -0.632  -0.625  -0.624  -0.611  -0.609  -0.600  -0.596
 -0.594  -0.589  -0.587  -0.582  -0.580  -0.577  -0.561  -0.558
 -0.555  -0.553  -0.544  -0.540  -0.525  -0.522  -0.517  -0.513
 -0.506  -0.506  -0.502  -0.496  -0.483  -0.483  -0.480  -0.474
 -0.472  -0.471  -0.466  -0.465  -0.461  -0.454  -0.452  -0.450
 -0.449  -0.447  -0.443  -0.440  -0.435  -0.432  -0.431  -0.431
 -0.428  -0.425  -0.421  -0.421  -0.417  -0.415  -0.414  -0.412
 -0.411  -0.407  -0.403  -0.402  -0.400  -0.400  -0.399  -0.398
 -0.397  -0.392  -0.392  -0.387  -0.386  -0.385  -0.385  -0.383
 -0.381  -0.376  -0.371  -0.368  -0.365  -0.365  -0.359  -0.355
 -0.354  -0.354  -0.350  -0.349  -0.348  -0.345  -0.342  -0.340
 -0.340  -0.334  -0.333  -0.331  -0.329  -0.329  -0.318  -0.315
 -0.313  -0.312  -0.310  -0.308  -0.307  -0.305  -0.302  -0.301
 -0.297  -0.295  -0.290  -0.290  -0.286  -0.285  -0.284  -0.280
 -0.276  -0.272  -0.269  -0.268  -0.255  -0.253  -0.251  -0.251
 -0.249  -0.243  -0.231  -0.229  -0.193  -0.187

          Ground-State Mulliken Net Atomic Charges

     Atom                 Charge (a.u.)
  ----------------------------------------
      1 C                     0.242260
      2 C                    -0.113372
      3 N                    -0.484452
      4 C                    -0.087145
      5 C                     0.091182
      6 C                     0.066138
      7 C                     0.030440
      8 C                     0.051420
      9 C                     0.198866
     10 N                    -0.523609
     11 N                    -0.529669
     12 C                     0.202929
     13 C                     0.309136
     14 S                     0.614142
     15 N                    -0.565693
     16 C                    -0.209489
     17 S                     0.329709
     18 C                    -0.139437
     19 C                    -0.247409
     20 S                     0.273581
     21 C                     0.188967
     22 C                     0.029620
     23 C                    -0.331004
     24 C                    -0.049891
     25 N                    -0.412957
     26 S                     0.268468
     27 C                     0.137993
     28 C                    -0.306280
     29 C                    -0.239196
     30 H                     0.088287
     31 H                     0.097361
     32 H                     0.110174
     33 H                     0.114598
     34 H                     0.138272
     35 H                     0.129335
     36 H                     0.115577
     37 H                     0.131848
     38 H                     0.117396
     39 C                    -0.170173
     40 H                     0.113216
     41 H                     0.100716
     42 H                     0.123968
     43 C                    -0.186455
     44 H                     0.094197
     45 C                    -0.185777
     46 H                     0.090722
     47 H                     0.084610
     48 H                     0.091359
     49 C                    -0.176226
     50 H                     0.090868
     51 C                    -0.313116
     52 H                     0.093673
     53 H                     0.103110
     54 H                     0.104355
     55 H                     0.104210
     56 C                     0.259263
     57 C                    -0.132867
     58 N                    -0.479904
     59 C                    -0.065375
     60 C                     0.062500
     61 C                     0.041922
     62 C                     0.060691
     63 C                     0.023439
     64 C                     0.265474
     65 N                    -0.532533
     66 N                    -0.563013
     67 C                     0.236110
     68 C                     0.300825
     69 S                     0.595093
     70 N                    -0.561884
     71 C                    -0.247337
     72 S                     0.321171
     73 C                    -0.115382
     74 C                    -0.227310
     75 S                     0.278785
     76 C                     0.184901
     77 C                     0.105152
     78 C                    -0.310099
     79 C                    -0.082576
     80 N                    -0.458687
     81 S                     0.255615
     82 C                     0.126144
     83 C                    -0.309064
     84 C                    -0.219428
     85 H                     0.091985
     86 H                     0.095045
     87 H                     0.127278
     88 H                     0.119851
     89 H                     0.137187
     90 H                     0.111185
     91 H                     0.134913
     92 H                     0.123099
     93 H                     0.086539
     94 C                    -0.178460
     95 H                     0.118930
     96 H                     0.089780
     97 H                     0.128721
     98 C                    -0.180441
     99 H                     0.090556
    100 C                    -0.176358
    101 H                     0.093845
    102 H                     0.084221
    103 H                     0.088809
    104 C                    -0.177010
    105 H                     0.086499
    106 C                    -0.316764
    107 H                     0.101227
    108 H                     0.099274
    109 H                     0.102569
    110 H                     0.104541
  ----------------------------------------
  Sum of atomic charges =     0.000000

                    Cartesian Multipole Moments
 -----------------------------------------------------------------
    Charge (ESU x 10^10)
                 0.0000
    Dipole Moment (Debye)
         X      -0.5606      Y       1.2693      Z      -1.3129
       Tot       1.9102
    Quadrupole Moments (Debye-Ang)
        XX    -460.2024     XY       1.8055     YY    -403.9906
        XZ      11.1562     YZ      -0.4977     ZZ    -443.8474

 Total job time:  87.93s(wall), 1040.32s(cpu)
        *  Thank you very much for using Q-Chem.  Have a nice day.  *
