 Q-Chem 4.4, Q-Chem, Inc., Pleasanton, CA (2016)
 Q-Chem 4.4.2 for Intel X86 Linux

User input:
--------------------------------------------------------------
$comment
SP
$end

$rem
MEM_STATIC 5000
MEM_TOTAL 20000
JOBTYPE SP
EXCHANGE B3LYP
BASIS 6-31g(d,p)
$end

$molecule
0 1
C          18.129000      4.200000     12.312000
C          17.846000      2.801000     12.589000
N          19.362000      4.739000     12.536000
C          18.879000      1.958000     12.839000
C          20.333000      3.804000     12.781000
C          20.212000      2.429000     12.857000
C          21.433000      1.524000     13.067000
C          21.337000      0.304000     13.738000
C          22.744000      1.765000     12.562000
N          22.332000     -0.545000     14.016000
N          22.968000      2.806000     11.760000
C          23.843000      0.930000     12.798000
C          23.601000     -0.230000     13.593000
S          24.531000      2.580000     11.223000
N          24.942000      1.245000     12.071000
C          24.670000     -1.226000     13.897000
S          26.422000     -0.954000     13.698000
C          24.459000     -2.567000     14.236000
C          26.807000     -2.498000     14.374000
S          22.981000     -3.556000     14.381000
C          25.673000     -3.274000     14.462000
C          28.115000     -2.975000     14.584000
C          24.036000     -4.769000     15.102000
C          25.431000     -4.618000     14.954000
N          28.297000     -4.256000     14.583000
S          29.496000     -1.996000     14.413000
C          29.652000     -4.486000     14.595000
C          30.447000     -3.399000     14.638000
C          17.065000      5.126000     11.823000
H          16.842000      2.421000     12.426000
H          18.738000      0.889000     12.971000
H          21.346000      4.180000     12.917000
H          20.365000     -0.059000     14.069000
H          23.544000     -5.635000     15.526000
H          26.199000     -5.361000     15.135000
H          29.997000     -5.488000     14.376000
H          31.518000     -3.255000     14.696000
H          16.073000      4.742000     12.093000
C          17.113000      5.331000     10.318000
H          17.248000      6.087000     12.319000
H          17.001000      4.383000      9.777000
H          18.090000      5.783000     10.109000
C          15.997000      6.241000      9.752000
H          15.093000      5.863000     10.245000
C          16.004000      6.216000      8.197000
H          16.154000      7.284000     10.050000
H          16.166000      5.156000      7.963000
H          16.905000      6.724000      7.833000
C          14.740000      6.833000      7.593000
H          14.617000      6.732000      6.508000
C          14.750000      8.341000      7.815000
H          13.884000      6.281000      7.999000
H          15.549000      8.827000      7.241000
H          14.736000      8.531000      8.895000
H          13.893000      9.002000      7.632000
C          29.509000      0.158000      9.137000
C          28.296000      0.209000      9.846000
N          29.966000     -0.979000      8.537000
C          27.594000     -0.945000     10.068000
C          29.173000     -2.066000      8.627000
C          27.994000     -2.150000      9.419000
C          27.257000     -3.468000      9.630000
C          26.336000     -3.572000     10.676000
C          27.402000     -4.625000      8.775000
N          25.606000     -4.724000     10.917000
N          28.225000     -4.746000      7.727000
C          26.590000     -5.716000      8.970000
C          25.644000     -5.699000     10.002000
S          27.896000     -6.225000      7.093000
N          26.753000     -6.762000      8.171000
C          24.631000     -6.725000     10.396000
S          23.796000     -6.642000     11.974000
C          24.115000     -7.735000      9.666000
C          22.955000     -8.084000     11.605000
S          24.191000     -8.053000      7.973000
C          23.207000     -8.477000     10.305000
C          22.028000     -8.623000     12.577000
C          22.993000     -9.282000      8.108000
C          22.479000     -9.298000      9.421000
N          21.583000     -9.803000     12.447000
S          21.529000     -7.667000     13.877000
C          20.747000    -10.182000     13.494000
C          20.605000     -9.112000     14.336000
C          30.534000      1.240000      9.364000
H          27.979000      1.122000     10.340000
H          26.688000     -1.053000     10.657000
H          29.559000     -2.950000      8.121000
H          26.266000     -2.882000     11.516000
H          22.685000     -9.736000      7.175000
H          21.649000     -9.911000      9.751000
H          20.253000    -11.143000     13.550000
H          20.033000     -9.007000     15.249000
H          30.016000      1.991000      9.974000
C          31.061000      1.831000      8.024000
H          31.392000      0.898000      9.955000
H          30.145000      2.054000      7.462000
H          31.524000      0.999000      7.479000
C          32.049000      3.011000      8.267000
H          31.563000      3.831000      8.809000
C          32.709000      3.483000      6.912000
H          32.826000      2.641000      8.948000
H          33.187000      4.466000      7.007000
H          31.929000      3.674000      6.164000
C          33.629000      2.441000      6.238000
H          34.382000      2.154000      6.983000
C          34.389000      2.815000      4.963000
H          33.081000      1.527000      5.978000
H          35.122000      3.596000      5.198000
H          33.640000      3.153000      4.236000
H          35.031000      1.983000      4.649000
$end

--------------------------------------------------------------

             Standard Nuclear Orientation (Angstroms)
    I     Atom           X                Y                Z
 ----------------------------------------------------------------
    1      C       8.7743500069     1.4796014907     0.6697326805
    2      C       7.8678992847     2.6144714541     0.6031274692
    3      N       8.4166935557     0.3124249272     1.2786388577
    4      C       6.5635108108     2.4343872826     0.9292844872
    5      C       7.0799359585     0.2319764339     1.5679452110
    6      C       6.0890775939     1.1716779726     1.3529970325
    7      C       4.6178755410     0.8778525025     1.6742401068
    8      C       3.7343556518     1.8865380320     2.0612841714
    9      C       3.9763212354    -0.3890689840     1.5511750014
   10      N       2.4493900787     1.7466415324     2.4039245737
   11      N       4.6395899670    -1.4244159277     1.0362067540
   12      C       2.6364794367    -0.6269784449     1.8812432411
   13      C       1.8921382093     0.4911334961     2.3628767372
   14      S       3.4765004319    -2.6062763604     0.8549813401
   15      N       2.1849655908    -1.8492178175     1.5100005131
   16      C       0.4465289987     0.3929004689     2.7203082446
   17      S      -0.4474957623    -1.1255458665     2.9998247081
   18      C      -0.4599866718     1.4585130545     2.7408546908
   19      C      -1.8856978939    -0.2757776877     3.4454766695
   20      S      -0.2955522149     3.1894901151     2.3404677219
   21      C      -1.7729858537     1.0555979299     3.1128944075
   22      C      -3.0794589074    -0.8913711255     3.8679365634
   23      C      -1.8988687800     3.3587966666     3.0510634463
   24      C      -2.6615813519     2.1923849528     3.2712525618
   25      N      -4.1886758731    -0.2554619214     3.6695853420
   26      S      -3.1906394408    -2.5525652371     4.2185303637
   27      C      -5.2212220818    -1.1145122294     3.9610469951
   28      C      -4.8782141676    -2.3427543815     4.3960295081
   29      C      10.1616047443     1.5600683387     0.1240749307
   30      H       8.2049416738     3.5353326454     0.1368634943
   31      H       5.8230801661     3.2217768982     0.8204449096
   32      H       6.7339902426    -0.7013274847     2.0098799995
   33      H       4.0667198484     2.9235607790     2.0765112218
   34      H      -2.2591140254     4.3720566916     3.1748515117
   35      H      -3.7216287817     2.1269638773     3.4872468429
   36      H      -6.2175875829    -0.8330860117     3.6463327243
   37      H      -5.4411911018    -3.2030218888     4.7338723523
   38      H      10.4899882916     2.6059749420     0.0724646298
   39      C      10.2835155257     0.9441975887    -1.2598307672
   40      H      10.7946330492     0.9973512051     0.8209612864
   41      H       9.6156202759     1.4329724946    -1.9802084644
   42      H      10.0176610370    -0.1130111295    -1.1408975205
   43      C      11.6907663359     1.0493223482    -1.8942643272
   44      H      11.9693776680     2.0943316121    -1.7112879247
   45      C      11.6597272291     0.5869292199    -3.3788276195
   46      H      12.4029234355     0.3963474603    -1.3768108884
   47      H      10.7336069872     1.0338932064    -3.7623957259
   48      H      11.4845306144    -0.4948960852    -3.4151753231
   49      C      12.9326150134     0.9661290999    -4.1398566201
   50      H      12.9266929940     0.7882439092    -5.2219272225
   51      C      14.0980729095     0.1189227396    -3.6424661545
   52      H      13.0454843299     2.0539354889    -4.0610291031
   53      H      13.9691113687    -0.9380880268    -3.9073626639
   54      H      14.2594162013     0.3429602371    -2.5811125179
   55      H      15.1505464216     0.2988218846    -3.8970143897
   56      C      -1.5510748034    -5.4604064417    -0.4001651587
   57      C      -0.7436487596    -4.3796036016    -0.0044640030
   58      N      -2.7246081102    -5.2962185152    -1.0765377651
   59      C      -1.1960586507    -3.0992789663    -0.1773747275
   60      C      -3.0682592077    -4.0290611232    -1.3843267625
   61      C      -2.3866844679    -2.8669512269    -0.9268145082
   62      C      -2.9444060862    -1.4654440606    -1.1493864280
   63      C      -2.4397938750    -0.4047696785    -0.3920824128
   64      C      -3.9379997267    -1.1361646525    -2.1469062268
   65      N      -2.8729147684     0.9008083806    -0.5531948683
   66      N      -4.5555307741    -1.9896803341    -2.9717943324
   67      C      -4.2722932917     0.1793253935    -2.3599408515
   68      C      -3.6580509275     1.1814219060    -1.5991926030
   69      S      -5.4993248132    -1.0493720065    -3.9323728355
   70      N      -5.1907977454     0.4455343230    -3.2789448636
   71      C      -3.8142700216     2.6667419005    -1.6583627698
   72      S      -3.2162163622     3.7129485403    -0.3385213067
   73      C      -4.2765391406     3.4338899667    -2.6668503037
   74      C      -3.8073472191     5.0897419142    -1.1618136700
   75      S      -4.5791783001     3.0548829186    -4.3215140752
   76      C      -4.2773189686     4.7451846253    -2.4141554083
   77      C      -3.6370074337     6.3940790028    -0.5582218238
   78      C      -4.7775944382     4.7203488472    -4.7097463210
   79      C      -4.4599521402     5.5084806257    -3.5844140722
   80      N      -4.2732207377     7.3932711060    -1.0100766374
   81      S      -2.5742712017     6.5824072909     0.7410322534
   82      C      -4.0356737292     8.5568967757    -0.2832391592
   83      C      -3.1115734340     8.2737936402     0.6862551724
   84      C      -1.3560610623    -6.7996815158     0.2640561271
   85      H       0.1672503831    -4.5446530013     0.5622064899
   86      H      -0.7061275942    -2.1860734401     0.1473470410
   87      H      -4.0001899869    -3.9360799797    -1.9405169547
   88      H      -1.8560953089    -0.5130583438     0.5212464157
   89      H      -4.9402575579     4.9376753537    -5.7574957658
   90      H      -4.4111802735     6.5906954724    -3.5832605637
   91      H      -4.4701195786     9.5170245496    -0.5284012723
   92      H      -2.6652932697     8.9104974626     1.4393954365
   93      H      -0.4437033555    -6.6835410731     0.8628380676
   94      C      -1.2356233254    -7.9515484400    -0.7758031618
   95      H      -2.1596164222    -7.0483239887     0.9675365492
   96      H      -0.4877617671    -7.5796557765    -1.4878621035
   97      H      -2.1758974275    -7.9585831907    -1.3410050065
   98      C      -0.9411326607    -9.3175874499    -0.0867417191
   99      H       0.0043080176    -9.2872521085     0.4678587595
  100      C      -0.9969782693   -10.5006770494    -1.1315332139
  101      H      -1.7149544823    -9.4622087185     0.6778983773
  102      H      -0.5346672161   -11.4163601883    -0.7421864801
  103      H      -0.3605425894   -10.2664979128    -1.9943743102
  104      C      -2.3889262232   -10.7581791426    -1.7500908633
  105      H      -3.0828872598   -10.9155665364    -0.9145968250
  106      C      -2.5835113544   -11.9318931578    -2.7132279444
  107      H      -2.7543150579    -9.8824034581    -2.3003707466
  108      H      -2.4380961880   -12.8719232448    -2.1676338967
  109      H      -1.8523942562   -11.8026767995    -3.5210304706
  110      H      -3.6355349567   -12.0010162268    -3.0156388267
 ----------------------------------------------------------------

   10   -5663.4971141402      7.61E-06 Convergence criterion met
 Total energy in the final basis set = -5663.4971141402

                    Orbital Energies (a.u.)
 --------------------------------------------------------------

 Alpha MOs
 -- Occupied --
-88.991 -88.986 -88.928 -88.925 -88.923 -88.918 -88.915 -88.898
-14.397 -14.389 -14.386 -14.384 -14.353 -14.342 -14.342 -14.336
-14.334 -14.325 -10.270 -10.262 -10.262 -10.258 -10.258 -10.256
-10.255 -10.252 -10.246 -10.238 -10.236 -10.236 -10.236 -10.234
-10.233 -10.231 -10.230 -10.229 -10.228 -10.228 -10.227 -10.226
-10.226 -10.224 -10.221 -10.220 -10.216 -10.216 -10.212 -10.212
-10.211 -10.211 -10.203 -10.202 -10.201 -10.194 -10.194 -10.192
-10.186 -10.182 -10.181 -10.181 -10.180 -10.180 -10.179 -10.177
-10.175 -10.172 -10.172 -10.170  -8.046  -8.041  -7.988  -7.987
 -7.986  -7.978  -7.974  -7.960  -6.011  -6.006  -6.006  -6.004
 -6.001  -5.999  -5.952  -5.951  -5.950  -5.948  -5.948  -5.947
 -5.945  -5.944  -5.943  -5.942  -5.938  -5.938  -5.935  -5.935
 -5.930  -5.925  -5.921  -5.917  -1.043  -1.040  -0.990  -0.981
 -0.955  -0.951  -0.934  -0.929  -0.922  -0.914  -0.911  -0.908
 -0.850  -0.844  -0.831  -0.825  -0.822  -0.812  -0.810  -0.808
 -0.804  -0.800  -0.798  -0.793  -0.787  -0.779  -0.773  -0.766
 -0.751  -0.748  -0.742  -0.736  -0.730  -0.724  -0.711  -0.704
 -0.697  -0.685  -0.678  -0.670  -0.658  -0.651  -0.644  -0.644
 -0.640  -0.630  -0.623  -0.620  -0.611  -0.608  -0.601  -0.599
 -0.596  -0.593  -0.586  -0.581  -0.577  -0.576  -0.570  -0.560
 -0.552  -0.550  -0.543  -0.540  -0.527  -0.518  -0.517  -0.512
 -0.511  -0.502  -0.501  -0.498  -0.492  -0.480  -0.476  -0.476
 -0.475  -0.469  -0.469  -0.467  -0.462  -0.453  -0.451  -0.451
 -0.447  -0.443  -0.442  -0.441  -0.438  -0.437  -0.433  -0.429
 -0.427  -0.424  -0.423  -0.418  -0.416  -0.415  -0.414  -0.412
 -0.408  -0.404  -0.403  -0.402  -0.399  -0.398  -0.398  -0.397
 -0.397  -0.393  -0.392  -0.390  -0.388  -0.386  -0.381  -0.380
 -0.380  -0.379  -0.376  -0.368  -0.366  -0.363  -0.363  -0.356
 -0.354  -0.351  -0.348  -0.346  -0.345  -0.344  -0.341  -0.339
 -0.338  -0.338  -0.333  -0.331  -0.329  -0.327  -0.327  -0.319
 -0.316  -0.313  -0.310  -0.307  -0.307  -0.305  -0.301  -0.299
 -0.299  -0.293  -0.292  -0.292  -0.290  -0.287  -0.282  -0.282
 -0.276  -0.274  -0.270  -0.266  -0.262  -0.254  -0.252  -0.249
 -0.246  -0.245  -0.230  -0.224  -0.195  -0.184

          Ground-State Mulliken Net Atomic Charges

     Atom                 Charge (a.u.)
  ----------------------------------------
      1 C                     0.263911
      2 C                    -0.121284
      3 N                    -0.482989
      4 C                    -0.072425
      5 C                     0.070248
      6 C                     0.073158
      7 C                     0.067591
      8 C                     0.043705
      9 C                     0.196980
     10 N                    -0.510609
     11 N                    -0.555646
     12 C                     0.232213
     13 C                     0.279913
     14 S                     0.598546
     15 N                    -0.561643
     16 C                    -0.237406
     17 S                     0.299736
     18 C                    -0.095404
     19 C                    -0.231574
     20 S                     0.296837
     21 C                     0.134657
     22 C                     0.081216
     23 C                    -0.312058
     24 C                    -0.038989
     25 N                    -0.435905
     26 S                     0.274576
     27 C                     0.117650
     28 C                    -0.303824
     29 C                    -0.231184
     30 H                     0.093067
     31 H                     0.095417
     32 H                     0.108568
     33 H                     0.103696
     34 H                     0.128762
     35 H                     0.137513
     36 H                     0.113881
     37 H                     0.141813
     38 H                     0.091956
     39 C                    -0.179599
     40 H                     0.123060
     41 H                     0.090163
     42 H                     0.114466
     43 C                    -0.175233
     44 H                     0.086226
     45 C                    -0.172988
     46 H                     0.102569
     47 H                     0.085687
     48 H                     0.096282
     49 C                    -0.173934
     50 H                     0.092070
     51 C                    -0.322227
     52 H                     0.093305
     53 H                     0.106533
     54 H                     0.104311
     55 H                     0.094858
     56 C                     0.259186
     57 C                    -0.143522
     58 N                    -0.482688
     59 C                    -0.065260
     60 C                     0.061565
     61 C                     0.038819
     62 C                     0.056800
     63 C                     0.030454
     64 C                     0.265072
     65 N                    -0.531685
     66 N                    -0.562241
     67 C                     0.235842
     68 C                     0.301485
     69 S                     0.590597
     70 N                    -0.562931
     71 C                    -0.255594
     72 S                     0.343527
     73 C                    -0.114679
     74 C                    -0.241302
     75 S                     0.276299
     76 C                     0.185911
     77 C                     0.099491
     78 C                    -0.308800
     79 C                    -0.081743
     80 N                    -0.447276
     81 S                     0.247601
     82 C                     0.125698
     83 C                    -0.309571
     84 C                    -0.218614
     85 H                     0.092525
     86 H                     0.111618
     87 H                     0.125262
     88 H                     0.124713
     89 H                     0.134482
     90 H                     0.112111
     91 H                     0.125260
     92 H                     0.120888
     93 H                     0.085796
     94 C                    -0.178512
     95 H                     0.115900
     96 H                     0.089443
     97 H                     0.128544
     98 C                    -0.179732
     99 H                     0.090107
    100 C                    -0.176444
    101 H                     0.092822
    102 H                     0.083881
    103 H                     0.088822
    104 C                    -0.177143
    105 H                     0.086036
    106 C                    -0.317089
    107 H                     0.101685
    108 H                     0.099093
    109 H                     0.102819
    110 H                     0.104447
  ----------------------------------------
  Sum of atomic charges =     0.000000

                    Cartesian Multipole Moments
 -----------------------------------------------------------------
    Charge (ESU x 10^10)
                 0.0000
    Dipole Moment (Debye)
         X      -0.0241      Y       2.3836      Z       0.3376
       Tot       2.4076
    Quadrupole Moments (Debye-Ang)
        XX    -437.3457     XY      11.1141     YY    -417.0081
        XZ     -16.0493     YZ      -8.9988     ZZ    -439.0668

 Total job time:  96.62s(wall), 1155.12s(cpu)
        *  Thank you very much for using Q-Chem.  Have a nice day.  *
