 Q-Chem 4.4, Q-Chem, Inc., Pleasanton, CA (2016)
 Q-Chem 4.4.2 for Intel X86 Linux

User input:
--------------------------------------------------------------
$comment
SP
$end

$rem
MEM_STATIC 5000
MEM_TOTAL 20000
JOBTYPE SP
EXCHANGE B3LYP
BASIS 6-31g(d,p)
$end

$molecule
0 1
C         -14.025000     15.348000      9.080000
C         -13.278000     16.127000      8.162000
N         -15.283000     15.686000      9.399000
C         -13.939000     17.186000      7.435000
C         -15.937000     16.662000      8.708000
C         -15.257000     17.477000      7.772000
C         -15.928000     18.640000      7.075000
C         -17.188000     18.421000      6.472000
C         -15.414000     19.943000      7.019000
N         -17.868000     19.384000      5.799000
N         -14.190000     20.353000      7.527000
C         -16.071000     20.883000      6.273000
C         -17.287000     20.582000      5.612000
S         -14.169000     21.946000      7.198000
N         -15.622000     22.101000      6.401000
C         -18.099000     21.534000      4.789000
S         -18.008000     23.333000      4.918000
C         -18.987000     21.157000      3.799000
C         -19.192000     23.492000      3.595000
S         -19.238000     19.566000      3.151000
C         -19.500000     22.269000      3.122000
C         -19.544000     24.768000      3.031000
C         -19.972000     20.416000      1.797000
C         -20.054000     21.798000      1.903000
N         -20.737000     24.910000      2.484000
S         -18.607000     26.324000      3.270000
C         -20.967000     26.237000      2.115000
C         -19.878000     27.083000      2.305000
C         -13.432000     14.227000      9.872000
H         -12.219000     15.905000      8.067000
H         -13.282000     17.762000      6.790000
H         -16.946000     16.933000      9.014000
H         -17.610000     17.418000      6.433000
H         -20.361000     19.854000      0.958000
H         -20.520000     22.456000      1.178000
H         -21.948000     26.457000      1.713000
H         -19.781000     28.148000      2.139000
H         -12.443000     13.901000      9.527000
C         -14.225000     12.916000      9.873000
H         -13.195000     14.602000     10.875000
H         -13.544000     12.059000      9.810000
H         -14.782000     12.851000      8.930000
C         -15.231000     12.753000     11.063000
H         -15.817000     13.645000     11.315000
C         -14.529000     12.268000     12.377000
H         -16.022000     12.083000     10.702000
H         -13.712000     12.955000     12.630000
H         -14.079000     11.268000     12.330000
C         -15.515000     12.061000     13.563000
H         -16.120000     12.959000     13.738000
C         -14.806000     11.749000     14.850000
H         -16.168000     11.206000     13.350000
H         -14.219000     10.823000     14.871000
H         -15.574000     11.577000     15.613000
H         -14.089000     12.494000     15.218000
C         -16.969000     14.748000      4.105000
C         -16.592000     13.799000      3.162000
N         -16.559000     16.015000      4.143000
C         -15.487000     14.180000      2.310000
C         -15.642000     16.421000      3.288000
C         -15.054000     15.561000      2.345000
C         -13.950000     15.987000      1.407000
C         -12.699000     16.278000      1.985000
C         -14.063000     16.049000     -0.004000
N         -11.550000     16.497000      1.259000
N         -15.143000     15.770000     -0.755000
C         -12.906000     16.437000     -0.733000
C         -11.649000     16.636000     -0.092000
S         -14.694000     16.102000     -2.268000
N         -13.140000     16.388000     -2.036000
C         -10.434000     16.965000     -0.876000
S         -10.440000     17.463000     -2.529000
C          -9.158000     17.006000     -0.365000
C          -8.773000     17.981000     -2.498000
S          -8.597000     16.811000      1.222000
C          -8.272000     17.681000     -1.235000
C          -7.964000     18.443000     -3.600000
C          -6.946000     17.172000      0.647000
C          -6.949000     17.799000     -0.634000
N          -6.664000     18.615000     -3.535000
S          -8.696000     18.872000     -5.171000
C          -6.193000     19.066000     -4.726000
C          -7.081000     19.143000     -5.747000
C         -18.020000     14.475000      5.125000
H         -17.055000     12.818000      3.112000
H         -15.141000     13.494000      1.542000
H         -15.319000     17.461000      3.322000
H         -12.576000     16.217000      3.065000
H          -6.136000     16.999000      1.344000
H          -6.052000     18.170000     -1.116000
H          -5.157000     19.377000     -4.683000
H          -6.878000     19.463000     -6.760000
H         -18.704000     15.328000      5.205000
C         -17.511000     13.937000      6.415000
H         -18.710000     13.789000      4.618000
H         -16.615000     14.465000      6.763000
H         -17.176000     12.895000      6.347000
C         -18.551000     14.052000      7.541000
H         -18.406000     15.046000      7.983000
C         -18.337000     12.991000      8.624000
H         -19.571000     13.981000      7.142000
H         -17.281000     12.890000      8.904000
H         -18.596000     12.000000      8.232000
C         -19.275000     13.354000      9.782000
H         -19.226000     12.582000     10.561000
C         -20.744000     13.447000      9.273000
H         -18.982000     14.260000     10.326000
H         -20.975000     14.463000      8.929000
H         -21.467000     13.276000     10.080000
H         -20.952000     12.722000      8.477000
$end

--------------------------------------------------------------

             Standard Nuclear Orientation (Angstroms)
    I     Atom           X                Y                Z
 ----------------------------------------------------------------
    1      C      -4.4714621676     3.6599978981    -1.8544358648
    2      C      -3.1913702999     3.2372285082    -2.2905606788
    3      N      -5.3675372805     2.7713441847    -1.4006595216
    4      C      -2.7915509149     1.8655579043    -2.0770303208
    5      C      -5.0060229601     1.4786331401    -1.1640616534
    6      C      -3.7420525517     0.9865879021    -1.5677834517
    7      C      -3.3569965189    -0.4690882913    -1.4216408104
    8      C      -3.5747490762    -1.0959004390    -0.1730975171
    9      C      -2.8380462261    -1.2661108389    -2.4514886887
   10      N      -3.2441566860    -2.3883065327     0.0780860027
   11      N      -2.5328893097    -0.8342640747    -3.7339580367
   12      C      -2.4380434699    -2.5424952288    -2.1640766428
   13      C      -2.5961644126    -3.0907055869    -0.8676811897
   14      S      -2.0126346088    -2.1906948415    -4.4659154270
   15      N      -2.1191177875    -3.2670683228    -3.2007970683
   16      C      -2.2148259184    -4.4765485244    -0.4469707129
   17      S      -2.0045921556    -5.8681306918    -1.5786172286
   18      C      -1.9342802669    -4.8539938211     0.8528762725
   19      C      -1.5296648058    -6.9117546855    -0.2137879454
   20      S      -1.7713394131    -3.8262272941     2.2426000739
   21      C      -1.4876084904    -6.1786135971     0.9153964553
   22      C      -1.0646645171    -8.2597700502    -0.4056350405
   23      C      -0.9238582782    -5.1970093214     2.9477981735
   24      C      -0.8504884962    -6.3466078840     2.1726052814
   25      N      -1.2386789626    -9.1332606247     0.5687135567
   26      S      -0.5224482997    -8.9735490710    -2.0033668963
   27      C      -0.8611053092   -10.4165235496     0.1678839146
   28      C      -0.3014755689   -10.4792468707    -1.1051507820
   29      C      -4.9711350125     5.0590279412    -2.0235393431
   30      H      -2.5712113975     3.9703312182    -2.7982548311
   31      H      -1.8161726441     1.6164764523    -2.4845173257
   32      H      -5.7662017329     0.7763649079    -0.8262665031
   33      H      -3.9206323276    -0.5136526976     0.6795256963
   34      H      -0.5248892223    -5.1227901495     3.9509936714
   35      H      -0.4061388340    -7.2854786780     2.4837644207
   36      H      -1.0283603915   -11.2090786505     0.8863873241
   37      H       0.0467527431   -11.3300970554    -1.6760982453
   38      H      -4.1977449218     5.7872658306    -2.2973263846
   39      C      -5.5971956707     5.7005289908    -0.7809229680
   40      H      -5.6159689172     5.0893400448    -2.9101471547
   41      H      -5.3030219497     6.7541881298    -0.7071446470
   42      H      -5.1295066673     5.2570364142     0.1069420728
   43      C      -7.1510956968     5.5374563805    -0.6647032075
   44      H      -7.5447655369     4.5457786896    -0.9180081905
   45      C      -7.9285984204     6.5849156498    -1.5324264317
   46      H      -7.3814871674     5.5819909336     0.4076019934
   47      H      -7.5922859378     6.5181260549    -2.5744917196
   48      H      -7.7942599701     7.6338332009    -1.2384295748
   49      C      -9.4748818189     6.4677022371    -1.4023892551
   50      H      -9.8143121964     5.4448844767    -1.6065579301
   51      C     -10.2005407476     7.3722134177    -2.3572047573
   52      H      -9.7802544279     6.7683805474    -0.3928630676
   53      H     -10.0370769629     8.4488502083    -2.2282907846
   54      H     -11.2736291323     7.2563142877    -2.1658263095
   55      H     -10.0049378222     7.2280012854    -3.4274759176
   56      C      -2.0452385150     1.5270339044     2.9768853199
   57      C      -1.2021914945     2.3088966013     3.7578728003
   58      N      -1.6657845461     0.7227474727     1.9849321852
   59      C       0.1584135561     2.4177694402     3.2793431762
   60      C      -0.4009939538     0.7091061545     1.6149745229
   61      C       0.5697790539     1.5322843077     2.2104327462
   62      C       2.0076301949     1.5860528245     1.7523617440
   63      C       2.2518730819     2.1440826538     0.4824349266
   64      C       3.1220276877     1.1814974594     2.5282400750
   65      N       3.5080987063     2.4350204937     0.0002623910
   66      N       3.1153782246     0.6700779924     3.7718830758
   67      C       4.4102037975     1.3382732564     1.9480179972
   68      C       4.5919394598     1.9876704753     0.6927146868
   69      S       4.6591988427     0.3275113098     4.0885216190
   70      N       5.3531543734     0.9813625635     2.8073345680
   71      C       5.9482836553     2.2124675643     0.1369101421
   72      S       7.3856369520     1.4597741094     0.7267550909
   73      C       6.2243081545     2.9740151596    -0.9743205882
   74      C       8.3415749717     1.9436483355    -0.6517303953
   75      S       5.1877248697     3.7654739279    -2.0561722933
   76      C       7.5246772202     2.7210918330    -1.4668559512
   77      C       9.7602883230     1.7747329031    -0.8543359325
   78      C       6.6126249215     4.2429525008    -3.0197183766
   79      C       7.7632499022     3.4638899762    -2.6984354224
   80      N      10.4375292910     2.3497718603    -1.8210229910
   81      S      10.7256512569     0.7033956986     0.1983829283
   82      C      11.7447800901     1.9888694135    -1.7534376961
   83      C      12.1184612918     1.2346464545    -0.6911646202
   84      C      -3.4993712577     1.3940987476     3.2724461606
   85      H      -1.5579568941     2.8487791087     4.6303336066
   86      H       0.8790711312     3.0046952051     3.8417547745
   87      H      -0.0991944946     0.0421898348     0.8079895733
   88      H       1.4166929439     2.4844938448    -0.1273554950
   89      H       6.4502004021     4.9661007317    -3.8087132509
   90      H       8.7036193428     3.5454494687    -3.2310021923
   91      H      12.3176264912     2.3034249197    -2.6164370206
   92      H      13.1136565879     0.8728749110    -0.4709699950
   93      H      -3.8098217542     0.3456126749     3.1939449208
   94      C      -4.3696387078     2.3756109658     2.5710950854
   95      H      -3.5566372275     1.4758984093     4.3650460069
   96      H      -4.0926398286     2.5008984004     1.5173974629
   97      H      -4.2865853706     3.3923422357     2.9735533664
   98      C      -5.8477408493     1.9541210082     2.5872590850
   99      H      -5.9866666543     1.3133442204     1.7071853784
  100      C      -6.7847177135     3.1600134747     2.4763369710
  101      H      -6.0819082952     1.3785105122     3.4919580206
  102      H      -6.4582125294     3.8706565541     1.7068450748
  103      H      -6.7485398702     3.7471781638     3.4019474676
  104      C      -8.1970515088     2.5979351305     2.2714999973
  105      H      -8.9292661809     3.4158800758     2.2641692227
  106      C      -8.5595293988     1.6232976772     3.4309751432
  107      H      -8.3530800302     2.1300239948     1.2920433777
  108      H      -8.2494102811     0.5983774720     3.1915639784
  109      H      -9.6444267670     1.5400135106     3.5698291960
  110      H      -8.1221326526     1.9371278383     4.3863283326
 ----------------------------------------------------------------

    9   -5663.5273730034      7.49E-06 Convergence criterion met
 Total energy in the final basis set = -5663.5273730034

                    Orbital Energies (a.u.)
 --------------------------------------------------------------

 Alpha MOs
 -- Occupied --
-88.991 -88.985 -88.926 -88.924 -88.921 -88.918 -88.908 -88.908
-14.385 -14.384 -14.382 -14.381 -14.356 -14.346 -14.342 -14.342
-14.329 -14.327 -10.272 -10.269 -10.269 -10.259 -10.258 -10.256
-10.252 -10.247 -10.245 -10.241 -10.241 -10.239 -10.233 -10.232
-10.232 -10.231 -10.230 -10.228 -10.228 -10.228 -10.226 -10.226
-10.226 -10.226 -10.223 -10.223 -10.221 -10.219 -10.218 -10.218
-10.215 -10.212 -10.212 -10.206 -10.204 -10.202 -10.200 -10.192
-10.182 -10.179 -10.174 -10.173 -10.173 -10.173 -10.172 -10.171
-10.170 -10.169 -10.168 -10.165  -8.047  -8.041  -7.986  -7.985
 -7.981  -7.977  -7.969  -7.968  -6.013  -6.007  -6.006  -6.005
 -6.000  -5.998  -5.950  -5.949  -5.947  -5.946  -5.945  -5.943
 -5.942  -5.942  -5.941  -5.938  -5.937  -5.933  -5.933  -5.932
 -5.929  -5.929  -5.925  -5.924  -1.052  -1.039  -0.975  -0.956
 -0.953  -0.953  -0.948  -0.934  -0.918  -0.911  -0.909  -0.904
 -0.847  -0.838  -0.833  -0.832  -0.812  -0.808  -0.806  -0.803
 -0.797  -0.794  -0.794  -0.788  -0.788  -0.779  -0.767  -0.761
 -0.747  -0.744  -0.739  -0.738  -0.723  -0.716  -0.707  -0.705
 -0.691  -0.689  -0.676  -0.670  -0.652  -0.651  -0.647  -0.643
 -0.638  -0.635  -0.630  -0.624  -0.611  -0.606  -0.596  -0.593
 -0.592  -0.585  -0.584  -0.579  -0.579  -0.577  -0.563  -0.562
 -0.553  -0.551  -0.543  -0.531  -0.526  -0.520  -0.514  -0.508
 -0.507  -0.505  -0.504  -0.494  -0.491  -0.488  -0.482  -0.475
 -0.472  -0.470  -0.468  -0.466  -0.459  -0.457  -0.450  -0.444
 -0.442  -0.439  -0.438  -0.437  -0.432  -0.431  -0.429  -0.428
 -0.424  -0.423  -0.421  -0.420  -0.418  -0.415  -0.414  -0.413
 -0.408  -0.407  -0.405  -0.403  -0.401  -0.399  -0.394  -0.391
 -0.390  -0.389  -0.388  -0.386  -0.385  -0.383  -0.381  -0.379
 -0.378  -0.376  -0.374  -0.373  -0.364  -0.360  -0.359  -0.356
 -0.355  -0.353  -0.352  -0.349  -0.346  -0.341  -0.341  -0.339
 -0.338  -0.334  -0.333  -0.329  -0.327  -0.322  -0.317  -0.316
 -0.313  -0.313  -0.307  -0.306  -0.305  -0.305  -0.297  -0.296
 -0.293  -0.292  -0.290  -0.287  -0.283  -0.282  -0.281  -0.278
 -0.276  -0.268  -0.264  -0.260  -0.252  -0.252  -0.250  -0.247
 -0.247  -0.242  -0.238  -0.230  -0.197  -0.190

          Ground-State Mulliken Net Atomic Charges

     Atom                 Charge (a.u.)
  ----------------------------------------
      1 C                     0.279357
      2 C                    -0.127150
      3 N                    -0.480703
      4 C                    -0.061837
      5 C                     0.075256
      6 C                     0.033286
      7 C                    -0.022605
      8 C                     0.075543
      9 C                     0.226991
     10 N                    -0.507991
     11 N                    -0.536360
     12 C                     0.226565
     13 C                     0.263692
     14 S                     0.596865
     15 N                    -0.549927
     16 C                    -0.208224
     17 S                     0.303750
     18 C                    -0.110484
     19 C                    -0.221005
     20 S                     0.295018
     21 C                     0.184147
     22 C                     0.038561
     23 C                    -0.307782
     24 C                    -0.066726
     25 N                    -0.416188
     26 S                     0.247325
     27 C                     0.114896
     28 C                    -0.302450
     29 C                    -0.217359
     30 H                     0.090989
     31 H                     0.112925
     32 H                     0.110504
     33 H                     0.137135
     34 H                     0.120423
     35 H                     0.115331
     36 H                     0.117485
     37 H                     0.134182
     38 H                     0.091029
     39 C                    -0.190868
     40 H                     0.121872
     41 H                     0.093185
     42 H                     0.097396
     43 C                    -0.172851
     44 H                     0.119712
     45 C                    -0.171037
     46 H                     0.083749
     47 H                     0.088276
     48 H                     0.085865
     49 C                    -0.174125
     50 H                     0.093961
     51 C                    -0.320173
     52 H                     0.095915
     53 H                     0.095592
     54 H                     0.095804
     55 H                     0.100029
     56 C                     0.268576
     57 C                    -0.109992
     58 N                    -0.470392
     59 C                    -0.070168
     60 C                     0.095640
     61 C                     0.008016
     62 C                    -0.022879
     63 C                     0.071111
     64 C                     0.244079
     65 N                    -0.533867
     66 N                    -0.549966
     67 C                     0.200194
     68 C                     0.330574
     69 S                     0.604458
     70 N                    -0.548769
     71 C                    -0.220310
     72 S                     0.336381
     73 C                    -0.100712
     74 C                    -0.223348
     75 S                     0.287865
     76 C                     0.110250
     77 C                     0.071578
     78 C                    -0.314420
     79 C                    -0.051577
     80 N                    -0.433292
     81 S                     0.253474
     82 C                     0.129425
     83 C                    -0.308534
     84 C                    -0.228147
     85 H                     0.100884
     86 H                     0.107715
     87 H                     0.100695
     88 H                     0.120547
     89 H                     0.129628
     90 H                     0.130741
     91 H                     0.110506
     92 H                     0.134780
     93 H                     0.118137
     94 C                    -0.186241
     95 H                     0.087578
     96 H                     0.115126
     97 H                     0.088595
     98 C                    -0.170580
     99 H                     0.095178
    100 C                    -0.194502
    101 H                     0.099521
    102 H                     0.110035
    103 H                     0.087210
    104 C                    -0.177121
    105 H                     0.085774
    106 C                    -0.325099
    107 H                     0.100602
    108 H                     0.109452
    109 H                     0.094210
    110 H                     0.104613
  ----------------------------------------
  Sum of atomic charges =     0.000000

                    Cartesian Multipole Moments
 -----------------------------------------------------------------
    Charge (ESU x 10^10)
                 0.0000
    Dipole Moment (Debye)
         X       4.2265      Y       0.4850      Z       0.3612
       Tot       4.2695
    Quadrupole Moments (Debye-Ang)
        XX    -427.2568     XY     -15.2464     YY    -422.1668
        XZ      -2.3126     YZ       3.9517     ZZ    -424.6100

 Total job time:  85.86s(wall), 1025.13s(cpu)
        *  Thank you very much for using Q-Chem.  Have a nice day.  *
