 Q-Chem 4.4, Q-Chem, Inc., Pleasanton, CA (2016)
 Q-Chem 4.4.2 for Intel X86 Linux

User input:
--------------------------------------------------------------
$comment
SP
$end

$rem
MEM_STATIC 5000
MEM_TOTAL 20000
JOBTYPE SP
EXCHANGE B3LYP
BASIS 6-31g(d,p)
$end

$molecule
0 1
C         -17.442000     23.034000     -4.842000
C         -18.255000     23.036000     -3.719000
N         -17.165000     21.864000     -5.411000
C         -18.742000     21.836000     -3.130000
C         -17.732000     20.727000     -5.030000
C         -18.453000     20.627000     -3.805000
C         -19.068000     19.350000     -3.377000
C         -20.045000     18.701000     -4.232000
C         -18.728000     18.648000     -2.254000
N         -20.568000     17.477000     -4.024000
N         -17.912000     19.079000     -1.302000
C         -19.247000     17.380000     -2.010000
C         -20.171000     16.771000     -2.888000
S         -17.842000     17.856000     -0.219000
N         -18.956000     16.862000     -0.836000
C         -20.995000     15.633000     -2.551000
S         -21.460000     15.170000     -0.944000
C         -21.857000     15.033000     -3.452000
C         -22.585000     13.977000     -1.542000
S         -21.807000     15.087000     -5.168000
C         -22.647000     14.050000     -2.929000
C         -23.248000     13.024000     -0.725000
C         -22.973000     13.745000     -5.235000
C         -23.298000     13.271000     -3.953000
N         -24.088000     12.190000     -1.280000
S         -22.740000     12.606000      0.891000
C         -24.471000     11.241000     -0.358000
C         -23.790000     11.222000      0.867000
C         -16.842000     24.304000     -5.350000
H         -18.518000     24.030000     -3.369000
H         -19.224000     21.838000     -2.156000
H         -17.500000     19.802000     -5.555000
H         -20.322000     19.126000     -5.195000
H         -23.238000     13.426000     -6.235000
H         -23.845000     12.344000     -3.816000
H         -25.247000     10.561000     -0.682000
H         -23.872000     10.472000      1.643000
H         -16.697000     24.995000     -4.510000
C         -17.679000     25.047000     -6.467000
H         -15.868000     24.126000     -5.824000
H         -17.202000     25.941000     -6.886000
H         -18.581000     25.341000     -5.916000
C         -18.053000     24.114000     -7.699000
H         -17.204000     23.454000     -7.912000
C         -18.356000     24.977000     -8.910000
H         -18.824000     23.373000     -7.453000
H         -18.443000     24.273000     -9.746000
H         -17.539000     25.602000     -9.290000
C         -19.578000     26.023000     -8.848000
H         -19.256000     26.932000     -8.325000
C         -20.759000     25.385000     -8.066000
H         -19.735000     26.327000     -9.891000
H         -20.415000     25.065000     -7.075000
H         -21.169000     24.492000     -8.555000
H         -21.620000     26.056000     -7.963000
C         -16.969000     14.748000      4.105000
C         -16.592000     13.799000      3.162000
N         -16.559000     16.015000      4.143000
C         -15.487000     14.180000      2.310000
C         -15.642000     16.421000      3.288000
C         -15.054000     15.561000      2.345000
C         -13.950000     15.987000      1.407000
C         -12.699000     16.278000      1.985000
C         -14.063000     16.049000     -0.004000
N         -11.550000     16.497000      1.259000
N         -15.143000     15.770000     -0.755000
C         -12.906000     16.437000     -0.733000
C         -11.649000     16.636000     -0.092000
S         -14.694000     16.102000     -2.268000
N         -13.140000     16.388000     -2.036000
C         -10.434000     16.965000     -0.876000
S         -10.440000     17.463000     -2.529000
C          -9.158000     17.006000     -0.365000
C          -8.773000     17.981000     -2.498000
S          -8.597000     16.811000      1.222000
C          -8.272000     17.681000     -1.235000
C          -7.964000     18.443000     -3.600000
C          -6.946000     17.172000      0.647000
C          -6.949000     17.799000     -0.634000
N          -6.664000     18.615000     -3.535000
S          -8.696000     18.872000     -5.171000
C          -6.193000     19.066000     -4.726000
C          -7.081000     19.143000     -5.747000
C         -18.020000     14.475000      5.125000
H         -17.055000     12.818000      3.112000
H         -15.141000     13.494000      1.542000
H         -15.319000     17.461000      3.322000
H         -12.576000     16.217000      3.065000
H          -6.136000     16.999000      1.344000
H          -6.052000     18.170000     -1.116000
H          -5.157000     19.377000     -4.683000
H          -6.878000     19.463000     -6.760000
H         -18.704000     15.328000      5.205000
C         -17.511000     13.937000      6.415000
H         -18.710000     13.789000      4.618000
H         -16.615000     14.465000      6.763000
H         -17.176000     12.895000      6.347000
C         -18.551000     14.052000      7.541000
H         -18.406000     15.046000      7.983000
C         -18.337000     12.991000      8.624000
H         -19.571000     13.981000      7.142000
H         -17.281000     12.890000      8.904000
H         -18.596000     12.000000      8.232000
C         -19.275000     13.354000      9.782000
H         -19.226000     12.582000     10.561000
C         -20.744000     13.447000      9.273000
H         -18.982000     14.260000     10.326000
H         -20.975000     14.463000      8.929000
H         -21.467000     13.276000     10.080000
H         -20.952000     12.722000      8.477000
$end

--------------------------------------------------------------

             Standard Nuclear Orientation (Angstroms)
    I     Atom           X                Y                Z
 ----------------------------------------------------------------
    1      C       3.4193536753    -5.4562333708    -2.6094694424
    2      C       2.3129130557    -5.1778856790    -3.3971328970
    3      N       3.3412644421    -5.1953479709    -1.3074591199
    4      C       1.1377806811    -4.5720305359    -2.8716869456
    5      C       2.2185173163    -4.8058782064    -0.7182467693
    6      C       1.0955125891    -4.3603070862    -1.4737550483
    7      C      -0.1483520899    -3.9097048643    -0.8090022387
    8      C      -0.8565999523    -4.8137052752     0.0786481556
    9      C      -0.6683528519    -2.6471753138    -0.8807750855
   10      N      -1.9123119008    -4.4801429371     0.8462271081
   11      N      -0.2264853982    -1.6835610935    -1.6770927280
   12      C      -1.7559553607    -2.2684059573    -0.0995097288
   13      C      -2.3947029054    -3.1727969515     0.7777698752
   14      S      -1.1796013964    -0.3954451567    -1.3517540928
   15      N      -2.2519260001    -1.0764929134    -0.3537486333
   16      C      -3.7017818186    -2.9675341263     1.3582876504
   17      S      -4.9478333439    -1.9567887421     0.6958736072
   18      C      -4.2780703259    -3.8540943718     2.2508947798
   19      C      -6.1273813108    -2.5492257933     1.8378731406
   20      S      -3.4994571826    -5.0199082616     3.2432211108
   21      C      -5.5652523011    -3.5652326569     2.6025188297
   22      C      -7.4234203448    -1.9953330515     2.0074392126
   23      C      -5.0002900965    -5.2122796970     4.1789041744
   24      C      -6.0058492381    -4.3350756985     3.7393715160
   25      N      -8.2331010582    -2.5353439821     2.8803575004
   26      S      -7.8871878916    -0.4119827686     1.4398429263
   27      C      -9.3507508961    -1.7429369367     3.0229194671
   28      C      -9.3337967737    -0.4878430803     2.3990613347
   29      C       4.6815459809    -5.9676738495    -3.2228724262
   30      H       2.4130476053    -5.5073994820    -4.4272293612
   31      H       0.3538176912    -4.1965597706    -3.5239351612
   32      H       2.1983096007    -4.6431978788     0.3579505914
   33      H      -0.4798578520    -5.8144690892     0.2817741716
   34      H      -4.9376312063    -5.9236966325     4.9925046951
   35      H      -6.9155736031    -4.1872269408     4.3119527980
   36      H     -10.1361284332    -2.1501221001     3.6449599537
   37      H     -10.0631658914     0.3034695746     2.5141481385
   38      H       4.7605774518    -5.5915514651    -4.2506817367
   39      C       4.8266984554    -7.5418778504    -3.2563316958
   40      H       5.5641859320    -5.6326409509    -2.6627513022
   41      H       5.7837616703    -7.9110383150    -3.6437288487
   42      H       4.0214821681    -7.8288922333    -3.9440020199
   43      C       4.6205097000    -8.2237808371    -1.8348242165
   44      H       5.0765239806    -7.5862392123    -1.0684289840
   45      C       5.2796157306    -9.5907742348    -1.8321240046
   46      H       3.5738852606    -8.2129329849    -1.5054344671
   47      H       5.2386290742    -9.9239149811    -0.7883719569
   48      H       6.3653951560    -9.6176716676    -1.9833641033
   49      C       4.7688671995   -10.7153640925    -2.8644406179
   50      H       5.2184923951   -10.5396919691    -3.8495652234
   51      C       3.2233556772   -10.6270346320    -2.9945215193
   52      H       5.2182181121   -11.6486863857    -2.5012502347
   53      H       2.9354996088    -9.6102241387    -3.2878682503
   54      H       2.6976229610   -10.8389784183    -2.0546518780
   55      H       2.8087236748   -11.3515654877    -3.7053705480
   56      C      -3.7094628252     4.3709216462    -1.3695768766
   57      C      -3.4524341681     4.3448366003    -0.0038408699
   58      N      -2.8255208446     4.1198844837    -2.3341803796
   59      C      -2.0546422377     4.2691347861     0.3602153821
   60      C      -1.5630042951     3.9187599805    -2.0142571128
   61      C      -1.0994215385     3.9827682871    -0.6892714659
   62      C       0.3539006782     3.8290553179    -0.3093203407
   63      C       1.2299997424     4.8563000550    -0.7105493024
   64      C       0.8808884770     2.7705151483     0.4712631393
   65      N       2.5361335133     4.9601669432    -0.2880990187
   66      N       0.2168451435     1.7228166781     0.9905090991
   67      C       2.2715549556     2.8073064133     0.7633712499
   68      C       3.0842254144     3.9192604526     0.3977813978
   69      S       1.3514815170     0.8208687779     1.6976754765
   70      N       2.6077966688     1.7957395354     1.5499079380
   71      C       4.5165532369     3.9776916632     0.7774454629
   72      S       5.4271360864     2.6378218649     1.3741336544
   73      C       5.3263364654     5.0774523997     0.6169604310
   74      C       6.9617578285     3.4473072387     1.1795994976
   75      S       5.0179349667     6.5806894772    -0.1017062542
   76      C       6.6932548805     4.7362736449     0.7294420023
   77      C       8.2676836242     2.9891821682     1.5882659091
   78      C       6.7208308998     7.0309894899     0.1883322596
   79      C       7.5376114847     5.8940271293     0.4608851292
   80      N       9.3417760675     3.7442245828     1.5950020409
   81      S       8.5414832011     1.2973751859     2.0889943049
   82      C      10.4138271816     3.0265458716     2.0185190726
   83      C      10.1754716061     1.7625350453     2.4455755684
   84      C      -5.0855368938     4.5493591618    -1.9118961650
   85      H      -4.2427883037     4.4376183130     0.7350514727
   86      H      -1.7750756621     4.2354148757     1.4094253218
   87      H      -0.8492572073     3.7064768697    -2.8096098493
   88      H       0.8491890990     5.6940705223    -1.2922484498
   89      H       6.9890230832     8.0661876383     0.0201783232
   90      H       8.6131021717     5.9504326079     0.5821790042
   91      H      11.3526958527     3.5503672904     1.8920171373
   92      H      10.9028561728     1.0595786269     2.8283835698
   93      H      -5.2684194140     3.8403191202    -2.7277890521
   94      C      -5.4674130020     5.9599473187    -2.1894510058
   95      H      -5.7297698391     4.0712105347    -1.1635093648
   96      H      -4.6668625046     6.5185089110    -2.6892828263
   97      H      -5.6502129407     6.5454462035    -1.2803920208
   98      C      -6.7022231085     6.0571624441    -3.0996675846
   99      H      -6.3194001708     6.0358889363    -4.1279764080
  100      C      -7.4682433058     7.3649209649    -2.8819827010
  101      H      -7.3709040090     5.2003220525    -2.9469181280
  102      H      -6.8000334970     8.2330977269    -2.8228070181
  103      H      -7.9602157846     7.3506037294    -1.9018887785
  104      C      -8.5231515550     7.4428726714    -3.9926892857
  105      H      -9.1607248052     8.3240954365    -3.8437839837
  106      C      -9.4245707484     6.1730613501    -3.9659751345
  107      H      -8.1064555231     7.6167091524    -4.9920722428
  108      H      -9.0002021927     5.3790744518    -4.5932303731
  109      H     -10.4074062130     6.3609003803    -4.4153858022
  110      H      -9.5869829629     5.8031992334    -2.9465001288
 ----------------------------------------------------------------

    9   -5663.5247705455      9.98E-06 Convergence criterion met
 Total energy in the final basis set = -5663.5247705455

                    Orbital Energies (a.u.)
 --------------------------------------------------------------

 Alpha MOs
 -- Occupied --
-88.992 -88.983 -88.925 -88.925 -88.925 -88.923 -88.907 -88.902
-14.385 -14.382 -14.381 -14.374 -14.356 -14.348 -14.341 -14.341
-14.325 -14.324 -10.271 -10.269 -10.265 -10.259 -10.258 -10.257
-10.246 -10.245 -10.245 -10.240 -10.240 -10.240 -10.237 -10.235
-10.233 -10.231 -10.227 -10.227 -10.227 -10.226 -10.226 -10.226
-10.225 -10.225 -10.224 -10.223 -10.221 -10.220 -10.218 -10.218
-10.215 -10.214 -10.211 -10.206 -10.205 -10.203 -10.199 -10.197
-10.187 -10.185 -10.182 -10.179 -10.176 -10.175 -10.175 -10.175
-10.174 -10.173 -10.172 -10.170  -8.048  -8.039  -7.987  -7.985
 -7.985  -7.984  -7.968  -7.962  -6.013  -6.007  -6.006  -6.004
 -5.998  -5.997  -5.951  -5.950  -5.949  -5.948  -5.947  -5.946
 -5.945  -5.945  -5.944  -5.942  -5.942  -5.941  -5.932  -5.928
 -5.927  -5.924  -5.923  -5.919  -1.053  -1.048  -0.974  -0.974
 -0.952  -0.947  -0.947  -0.943  -0.918  -0.917  -0.912  -0.912
 -0.846  -0.846  -0.832  -0.831  -0.814  -0.809  -0.808  -0.806
 -0.806  -0.801  -0.794  -0.794  -0.790  -0.781  -0.768  -0.761
 -0.748  -0.743  -0.738  -0.733  -0.726  -0.722  -0.708  -0.707
 -0.693  -0.692  -0.676  -0.672  -0.655  -0.652  -0.647  -0.644
 -0.638  -0.635  -0.630  -0.630  -0.617  -0.612  -0.600  -0.597
 -0.592  -0.592  -0.586  -0.585  -0.581  -0.579  -0.567  -0.551
 -0.550  -0.549  -0.542  -0.535  -0.526  -0.521  -0.513  -0.510
 -0.507  -0.504  -0.502  -0.501  -0.495  -0.491  -0.482  -0.478
 -0.475  -0.473  -0.471  -0.466  -0.464  -0.452  -0.449  -0.448
 -0.446  -0.445  -0.441  -0.440  -0.437  -0.435  -0.432  -0.431
 -0.428  -0.426  -0.424  -0.421  -0.420  -0.417  -0.416  -0.414
 -0.413  -0.412  -0.405  -0.404  -0.401  -0.399  -0.397  -0.395
 -0.394  -0.392  -0.390  -0.390  -0.386  -0.383  -0.382  -0.382
 -0.377  -0.376  -0.375  -0.371  -0.366  -0.363  -0.358  -0.356
 -0.354  -0.354  -0.352  -0.349  -0.346  -0.346  -0.342  -0.342
 -0.341  -0.338  -0.333  -0.333  -0.332  -0.327  -0.325  -0.322
 -0.314  -0.314  -0.310  -0.305  -0.302  -0.300  -0.300  -0.297
 -0.293  -0.291  -0.291  -0.289  -0.286  -0.283  -0.282  -0.282
 -0.276  -0.272  -0.263  -0.256  -0.252  -0.251  -0.248  -0.246
 -0.246  -0.242  -0.237  -0.233  -0.196  -0.190

          Ground-State Mulliken Net Atomic Charges

     Atom                 Charge (a.u.)
  ----------------------------------------
      1 C                     0.312342
      2 C                    -0.123822
      3 N                    -0.481143
      4 C                    -0.055520
      5 C                     0.081335
      6 C                     0.010903
      7 C                    -0.030178
      8 C                     0.068413
      9 C                     0.273314
     10 N                    -0.498970
     11 N                    -0.560487
     12 C                     0.183555
     13 C                     0.262308
     14 S                     0.606954
     15 N                    -0.544667
     16 C                    -0.200156
     17 S                     0.330368
     18 C                    -0.122724
     19 C                    -0.250797
     20 S                     0.276303
     21 C                     0.178830
     22 C                     0.071248
     23 C                    -0.316526
     24 C                    -0.050740
     25 N                    -0.429221
     26 S                     0.266049
     27 C                     0.111327
     28 C                    -0.310424
     29 C                    -0.246810
     30 H                     0.082993
     31 H                     0.113009
     32 H                     0.103106
     33 H                     0.115420
     34 H                     0.133643
     35 H                     0.124468
     36 H                     0.109309
     37 H                     0.141389
     38 H                     0.098999
     39 C                    -0.180300
     40 H                     0.118356
     41 H                     0.100960
     42 H                     0.094466
     43 C                    -0.177182
     44 H                     0.108169
     45 C                    -0.190710
     46 H                     0.102401
     47 H                     0.086587
     48 H                     0.086639
     49 C                    -0.178628
     50 H                     0.095290
     51 C                    -0.315608
     52 H                     0.094801
     53 H                     0.110363
     54 H                     0.102751
     55 H                     0.094334
     56 C                     0.259217
     57 C                    -0.106738
     58 N                    -0.463149
     59 C                    -0.070311
     60 C                     0.085534
     61 C                     0.006648
     62 C                    -0.024071
     63 C                     0.072559
     64 C                     0.246610
     65 N                    -0.534087
     66 N                    -0.558675
     67 C                     0.201706
     68 C                     0.330977
     69 S                     0.608804
     70 N                    -0.546599
     71 C                    -0.221277
     72 S                     0.338104
     73 C                    -0.100872
     74 C                    -0.222492
     75 S                     0.290141
     76 C                     0.110810
     77 C                     0.071189
     78 C                    -0.315089
     79 C                    -0.051033
     80 N                    -0.432875
     81 S                     0.255922
     82 C                     0.129175
     83 C                    -0.308261
     84 C                    -0.220350
     85 H                     0.100697
     86 H                     0.108644
     87 H                     0.100454
     88 H                     0.123809
     89 H                     0.129831
     90 H                     0.130712
     91 H                     0.110361
     92 H                     0.135025
     93 H                     0.115737
     94 C                    -0.175049
     95 H                     0.086837
     96 H                     0.105978
     97 H                     0.089037
     98 C                    -0.170007
     99 H                     0.100490
    100 C                    -0.183921
    101 H                     0.100059
    102 H                     0.088964
    103 H                     0.091261
    104 C                    -0.175136
    105 H                     0.086061
    106 C                    -0.324835
    107 H                     0.096335
    108 H                     0.110651
    109 H                     0.095262
    110 H                     0.105140
  ----------------------------------------
  Sum of atomic charges =     0.000000

                    Cartesian Multipole Moments
 -----------------------------------------------------------------
    Charge (ESU x 10^10)
                 0.0000
    Dipole Moment (Debye)
         X      -0.6099      Y       1.0109      Z       0.9064
       Tot       1.4885
    Quadrupole Moments (Debye-Ang)
        XX    -392.2758     XY     -17.7438     YY    -444.0045
        XZ      -8.8476     YZ       5.3192     ZZ    -436.0104

 Total job time:  80.98s(wall), 957.64s(cpu)
        *  Thank you very much for using Q-Chem.  Have a nice day.  *
