 Q-Chem 4.4, Q-Chem, Inc., Pleasanton, CA (2016)
 Q-Chem 4.4.2 for Intel X86 Linux

User input:
--------------------------------------------------------------
$comment
SP
$end

$rem
MEM_STATIC 5000
MEM_TOTAL 20000
JOBTYPE SP
EXCHANGE B3LYP
BASIS 6-31g(d,p)
$end

$molecule
0 1
C         -13.622000     12.838000     -7.251000
C         -13.471000     13.439000     -5.968000
N         -13.266000     13.466000     -8.400000
C         -13.248000     14.818000     -5.918000
C         -13.017000     14.823000     -8.324000
C         -12.951000     15.553000     -7.092000
C         -12.416000     16.900000     -7.045000
C         -11.332000     17.317000     -7.793000
C         -13.064000     18.000000     -6.324000
N         -10.894000     18.579000     -7.909000
N         -14.132000     17.792000     -5.524000
C         -12.610000     19.318000     -6.514000
C         -11.485000     19.604000     -7.275000
S         -14.542000     19.292000     -5.079000
N         -13.325000     20.195000     -5.754000
C         -10.913000     20.980000     -7.247000
S         -11.628000     22.381000     -6.495000
C          -9.868000     21.412000     -8.078000
C         -10.380000     23.465000     -7.145000
S          -8.893000     20.509000     -9.268000
C          -9.624000     22.748000     -8.027000
C         -10.212000     24.852000     -6.823000
C          -8.000000     22.028000     -9.592000
C          -8.503000     23.010000     -8.865000
N         -10.750000     25.310000     -5.665000
S          -9.081000     26.012000     -7.647000
C         -10.367000     26.595000     -5.448000
C          -9.479000     27.116000     -6.423000
C         -13.770000     11.375000     -7.435000
H         -13.452000     12.744000     -5.133000
H         -12.925000     15.143000     -4.934000
H         -12.634000     15.327000     -9.211000
H         -10.755000     16.571000     -8.338000
H          -7.093000     22.033000    -10.180000
H          -8.080000     24.008000     -8.852000
H         -10.567000     27.193000     -4.569000
H          -9.028000     28.095000     -6.513000
H         -14.826000     11.083000     -7.368000
C         -12.951000     10.484000     -6.535000
H         -13.502000     11.181000     -8.481000
H         -13.236000     10.665000     -5.491000
H         -11.927000     10.878000     -6.560000
C         -12.939000      8.891000     -6.787000
H         -13.949000      8.502000     -6.611000
C         -11.868000      8.153000     -5.976000
H         -12.788000      8.678000     -7.853000
H         -11.915000      8.613000     -4.981000
H         -10.934000      8.482000     -6.448000
C         -11.804000      6.617000     -6.056000
H         -12.491000      6.175000     -5.324000
C         -10.368000      6.051000     -5.794000
H         -12.171000      6.242000     -7.020000
H         -10.444000      4.958000     -5.845000
H         -10.009000      6.294000     -4.787000
H          -9.717000      6.286000     -6.645000
C         -16.969000     14.748000      4.105000
C         -16.592000     13.799000      3.162000
N         -16.559000     16.015000      4.143000
C         -15.487000     14.180000      2.310000
C         -15.642000     16.421000      3.288000
C         -15.054000     15.561000      2.345000
C         -13.950000     15.987000      1.407000
C         -12.699000     16.278000      1.985000
C         -14.063000     16.049000     -0.004000
N         -11.550000     16.497000      1.259000
N         -15.143000     15.770000     -0.755000
C         -12.906000     16.437000     -0.733000
C         -11.649000     16.636000     -0.092000
S         -14.694000     16.102000     -2.268000
N         -13.140000     16.388000     -2.036000
C         -10.434000     16.965000     -0.876000
S         -10.440000     17.463000     -2.529000
C          -9.158000     17.006000     -0.365000
C          -8.773000     17.981000     -2.498000
S          -8.597000     16.811000      1.222000
C          -8.272000     17.681000     -1.235000
C          -7.964000     18.443000     -3.600000
C          -6.946000     17.172000      0.647000
C          -6.949000     17.799000     -0.634000
N          -6.664000     18.615000     -3.535000
S          -8.696000     18.872000     -5.171000
C          -6.193000     19.066000     -4.726000
C          -7.081000     19.143000     -5.747000
C         -18.020000     14.475000      5.125000
H         -17.055000     12.818000      3.112000
H         -15.141000     13.494000      1.542000
H         -15.319000     17.461000      3.322000
H         -12.576000     16.217000      3.065000
H          -6.136000     16.999000      1.344000
H          -6.052000     18.170000     -1.116000
H          -5.157000     19.377000     -4.683000
H          -6.878000     19.463000     -6.760000
H         -18.704000     15.328000      5.205000
C         -17.511000     13.937000      6.415000
H         -18.710000     13.789000      4.618000
H         -16.615000     14.465000      6.763000
H         -17.176000     12.895000      6.347000
C         -18.551000     14.052000      7.541000
H         -18.406000     15.046000      7.983000
C         -18.337000     12.991000      8.624000
H         -19.571000     13.981000      7.142000
H         -17.281000     12.890000      8.904000
H         -18.596000     12.000000      8.232000
C         -19.275000     13.354000      9.782000
H         -19.226000     12.582000     10.561000
C         -20.744000     13.447000      9.273000
H         -18.982000     14.260000     10.326000
H         -20.975000     14.463000      8.929000
H         -21.467000     13.276000     10.080000
H         -20.952000     12.722000      8.477000
$end

--------------------------------------------------------------

             Standard Nuclear Orientation (Angstroms)
    I     Atom           X                Y                Z
 ----------------------------------------------------------------
    1      C       0.1763442696    -5.9202665246    -2.0136951285
    2      C      -0.3967279517    -4.7139265938    -1.5172848139
    3      N       1.5033155559    -6.0508454720    -2.2655231334
    4      C       0.3727986651    -3.5494166056    -1.5922199430
    5      C       2.2536296697    -4.8911514512    -2.3024623917
    6      C       1.7476087108    -3.6027706895    -1.9295042147
    7      C       2.6386798952    -2.4784294265    -1.7180997000
    8      C       3.8776605520    -2.5892261371    -1.1171837150
    9      C       2.3898146643    -1.1394468451    -2.2611804890
   10      N       4.8032232618    -1.6223509931    -1.0369956477
   11      N       1.2268946519    -0.8267916206    -2.8725328876
   12      C       3.4058261018    -0.1677988841    -2.2067654284
   13      C       4.6048644267    -0.3961815144    -1.5459398314
   14      S       1.4913177450     0.6819121738    -3.3921657277
   15      N       2.9842643907     1.0102180573    -2.7476127354
   16      C       5.5409962662     0.7402710820    -1.3146895877
   17      S       5.3949129418     2.3490199103    -1.9705225465
   18      C       6.8320460201     0.5972978791    -0.7836912862
   19      C       6.9759937330     2.8403527965    -1.3272220518
   20      S       7.6711048785    -0.8512087998    -0.1672964179
   21      C       7.5878524932     1.7258497432    -0.8301699402
   22      C       7.5247258102     4.1647643353    -1.3496760849
   23      C       9.0805913253     0.1961215028     0.1879966914
   24      C       8.8296963317     1.4348979196    -0.1971613171
   25      N       6.6705774372     5.2092154292    -1.4901199148
   26      S       9.2225463125     4.6269918387    -0.8941672741
   27      C       7.3379911449     6.3823482990    -1.3374070707
   28      C       8.7128932570     6.2392665995    -1.0215244828
   29      C      -0.5047449792    -7.2318708174    -1.9044220101
   30      H      -1.3629523169    -4.8278199913    -1.0334979084
   31      H      -0.0464785975    -2.7450265671    -0.9960880422
   32      H       3.3349772425    -4.9801452827    -2.4036628111
   33      H       4.1476960070    -3.5336944029    -0.6465133973
   34      H       9.9123680146    -0.1611572672     0.7786890137
   35      H       9.5176038097     2.2547842490    -0.0249065393
   36      H       6.9091153425     7.3751032356    -1.3100541545
   37      H       9.4793162730     6.9850643621    -0.8592794276
   38      H      -1.1640634763    -7.3967768997    -2.7663930672
   39      C      -1.2716467592    -7.5029979800    -0.6343851124
   40      H       0.2849518630    -7.9845112556    -2.0205567089
   41      H      -2.0739524212    -6.7616155642    -0.5315272579
   42      H      -0.6048149545    -7.2288184277     0.1930192127
   43      C      -1.8997342998    -8.9664708297    -0.3793355888
   44      H      -2.6694701641    -9.1531196339    -1.1376666003
   45      C      -2.4124904413    -9.1696240809     1.0507748601
   46      H      -1.1559557269    -9.7415327810    -0.6042764836
   47      H      -2.9314787734    -8.2328619489     1.2894416136
   48      H      -1.4879925450    -9.1943923036     1.6407504315
   49      C      -3.1157088150   -10.4921630431     1.4059742578
   50      H      -4.1829444040   -10.4261949771     1.1614064512
   51      C      -2.9754842111   -10.8715126321     2.9184315133
   52      H      -2.7560809251   -11.3252814551     0.7885671858
   53      H      -3.5331636228   -11.8046766273     3.0641182729
   54      H      -3.4382716182   -10.1238174533     3.5732282264
   55      H      -1.9424805672   -11.1741468605     3.1294836286
   56      C      -8.6883800148     2.1046417699    -1.1044343151
   57      C      -8.3157507709     0.7780526858    -0.9219847370
   58      N      -7.8862174105     3.1623202174    -0.9918090159
   59      C      -7.0093077864     0.5787608989    -0.3341246244
   60      C      -6.6465190075     2.9893096498    -0.5795406411
   61      C      -6.1362720564     1.7285690935    -0.2263065846
   62      C      -4.7435715779     1.5188959041     0.3182652939
   63      C      -4.4764700496     2.0339559800     1.6016732150
   64      C      -3.7183106100     0.7905875309    -0.3343761553
   65      N      -3.3273143836     1.7684631675     2.3117385796
   66      N      -3.7769908650     0.1828178581    -1.5324640705
   67      C      -2.4765158973     0.6634748646     0.3456402132
   68      C      -2.3006804807     1.1369106007     1.6781084155
   69      S      -2.2928696316    -0.3994228039    -1.7761318281
   70      N      -1.6408181254    -0.0923754506    -0.3509698176
   71      C      -1.0233569303     0.9280174516     2.4019386439
   72      S       0.4515762427     0.4232297274     1.6601768973
   73      C      -0.8244808891     1.1972659073     3.7357045864
   74      C       1.4206715236     0.8069325271     3.0608197846
   75      S      -1.8532231248     1.8958009838     4.8868141205
   76      C       0.5511934079     1.2405067654     4.0569077256
   77      C       2.8246753574     0.5472953121     3.2698431118
   78      C      -0.5241033852     1.8129630435     6.0756478318
   79      C       0.7436386889     1.6219211820     5.4508022182
   80      N       3.4309247928     0.6765705590     4.4272361015
   81      S       3.8875516001     0.0585230498     1.9210281622
   82      C       4.7479232933     0.3712586883     4.3006556477
   83      C       5.1554423744    -0.0982387999     3.0963241704
   84      C     -10.0398913779     2.4849231992    -1.6027645970
   85      H      -8.9849835262    -0.0467478992    -1.1479526866
   86      H      -6.6441746524    -0.4309732825    -0.1690468324
   87      H      -5.9960437208     3.8595690919    -0.4982055013
   88      H      -5.2522982653     2.5787699362     2.1369472874
   89      H      -0.7755624150     2.0256621476     7.1068439564
   90      H       1.6810285254     1.6278907108     5.9947127432
   91      H       5.3270359576     0.6138375731     5.1825003090
   92      H       6.1568899030    -0.4031832788     2.8244975490
   93      H      -9.9578759315     3.2639351365    -2.3697579920
   94      C     -11.0482743067     2.7355390181    -0.5383489920
   95      H     -10.3184961215     1.6598313233    -2.2701084313
   96      H     -10.6438146915     3.3331799325     0.2874486571
   97      H     -11.3882790698     1.8195728930    -0.0403371259
   98      C     -12.2737150888     3.4965368621    -1.0692709929
   99      H     -12.0258331809     4.5621304902    -0.9827274810
  100      C     -13.5265961222     3.2090479406    -0.2373784301
  101      H     -12.4593603418     3.2548287737    -2.1236689443
  102      H     -13.3258411819     3.2404049584     0.8407918679
  103      H     -13.8594938290     2.1780892070    -0.4080512354
  104      C     -14.6037063103     4.1898918625    -0.7173324316
  105      H     -15.5551092074     3.9797836817    -0.2114539087
  106      C     -14.8191232677     4.0404179266    -2.2525666407
  107      H     -14.4120467889     5.2334283358    -0.4399892206
  108      H     -14.1428160673     4.7018601579    -2.8084944646
  109      H     -15.8180285282     4.3745041442    -2.5588241792
  110      H     -14.6944794441     3.0039104725    -2.5881574851
 ----------------------------------------------------------------

   10   -5663.5267476251      7.10E-06 Convergence criterion met
 Total energy in the final basis set = -5663.5267476251

                    Orbital Energies (a.u.)
 --------------------------------------------------------------

 Alpha MOs
 -- Occupied --
-88.990 -88.989 -88.936 -88.929 -88.923 -88.917 -88.913 -88.904
-14.392 -14.390 -14.382 -14.378 -14.355 -14.352 -14.350 -14.336
-14.336 -14.322 -10.278 -10.266 -10.266 -10.265 -10.261 -10.255
-10.255 -10.254 -10.246 -10.244 -10.241 -10.238 -10.237 -10.237
-10.237 -10.234 -10.233 -10.231 -10.231 -10.227 -10.224 -10.223
-10.223 -10.222 -10.222 -10.220 -10.220 -10.219 -10.219 -10.218
-10.215 -10.212 -10.208 -10.206 -10.203 -10.203 -10.201 -10.200
-10.187 -10.184 -10.184 -10.179 -10.178 -10.177 -10.177 -10.175
-10.173 -10.172 -10.172 -10.171  -8.045  -8.044  -7.997  -7.987
 -7.983  -7.977  -7.972  -7.965  -6.010  -6.010  -6.005  -6.004
 -6.003  -6.002  -5.960  -5.957  -5.954  -5.951  -5.947  -5.947
 -5.944  -5.943  -5.941  -5.940  -5.938  -5.936  -5.935  -5.933
 -5.929  -5.928  -5.926  -5.921  -1.050  -1.040  -0.968  -0.966
 -0.962  -0.949  -0.944  -0.931  -0.923  -0.914  -0.909  -0.908
 -0.853  -0.843  -0.836  -0.829  -0.817  -0.811  -0.808  -0.804
 -0.804  -0.799  -0.796  -0.790  -0.788  -0.785  -0.772  -0.765
 -0.747  -0.745  -0.740  -0.735  -0.734  -0.720  -0.716  -0.705
 -0.696  -0.690  -0.677  -0.672  -0.656  -0.652  -0.645  -0.644
 -0.637  -0.635  -0.629  -0.627  -0.614  -0.609  -0.603  -0.600
 -0.593  -0.588  -0.587  -0.582  -0.576  -0.575  -0.573  -0.565
 -0.551  -0.546  -0.545  -0.539  -0.525  -0.522  -0.521  -0.509
 -0.508  -0.504  -0.501  -0.500  -0.491  -0.488  -0.480  -0.479
 -0.476  -0.471  -0.471  -0.469  -0.465  -0.462  -0.458  -0.449
 -0.446  -0.445  -0.443  -0.442  -0.438  -0.438  -0.433  -0.429
 -0.429  -0.427  -0.423  -0.421  -0.420  -0.417  -0.415  -0.414
 -0.413  -0.409  -0.402  -0.402  -0.401  -0.400  -0.398  -0.397
 -0.396  -0.391  -0.390  -0.388  -0.386  -0.383  -0.382  -0.381
 -0.380  -0.372  -0.370  -0.369  -0.368  -0.360  -0.356  -0.355
 -0.354  -0.352  -0.351  -0.349  -0.348  -0.347  -0.346  -0.341
 -0.340  -0.338  -0.337  -0.330  -0.326  -0.325  -0.321  -0.320
 -0.319  -0.315  -0.311  -0.309  -0.308  -0.308  -0.301  -0.300
 -0.298  -0.297  -0.293  -0.293  -0.286  -0.283  -0.280  -0.278
 -0.272  -0.272  -0.266  -0.260  -0.256  -0.253  -0.252  -0.249
 -0.246  -0.244  -0.239  -0.234  -0.199  -0.193

          Ground-State Mulliken Net Atomic Charges

     Atom                 Charge (a.u.)
  ----------------------------------------
      1 C                     0.265644
      2 C                    -0.105245
      3 N                    -0.469018
      4 C                    -0.083308
      5 C                     0.066589
      6 C                     0.030977
      7 C                     0.043234
      8 C                     0.047868
      9 C                     0.208652
     10 N                    -0.539551
     11 N                    -0.538566
     12 C                     0.222323
     13 C                     0.338208
     14 S                     0.605847
     15 N                    -0.573162
     16 C                    -0.231732
     17 S                     0.383088
     18 C                    -0.149581
     19 C                    -0.224927
     20 S                     0.258869
     21 C                     0.178720
     22 C                     0.029712
     23 C                    -0.314480
     24 C                    -0.057145
     25 N                    -0.423911
     26 S                     0.291303
     27 C                     0.129450
     28 C                    -0.313506
     29 C                    -0.235037
     30 H                     0.099529
     31 H                     0.120203
     32 H                     0.103505
     33 H                     0.115641
     34 H                     0.134157
     35 H                     0.095864
     36 H                     0.121776
     37 H                     0.138862
     38 H                     0.106805
     39 C                    -0.195856
     40 H                     0.126871
     41 H                     0.089107
     42 H                     0.101638
     43 C                    -0.188011
     44 H                     0.089700
     45 C                    -0.163606
     46 H                     0.093625
     47 H                     0.091011
     48 H                     0.096958
     49 C                    -0.186372
     50 H                     0.094660
     51 C                    -0.321712
     52 H                     0.095539
     53 H                     0.099626
     54 H                     0.110762
     55 H                     0.108113
     56 C                     0.258971
     57 C                    -0.108140
     58 N                    -0.463887
     59 C                    -0.071162
     60 C                     0.089881
     61 C                     0.010172
     62 C                    -0.023876
     63 C                     0.071579
     64 C                     0.239355
     65 N                    -0.533990
     66 N                    -0.550264
     67 C                     0.201063
     68 C                     0.331345
     69 S                     0.607888
     70 N                    -0.561418
     71 C                    -0.221279
     72 S                     0.327597
     73 C                    -0.100559
     74 C                    -0.222970
     75 S                     0.288055
     76 C                     0.110361
     77 C                     0.059193
     78 C                    -0.314908
     79 C                    -0.051215
     80 N                    -0.436443
     81 S                     0.273243
     82 C                     0.127759
     83 C                    -0.315401
     84 C                    -0.220007
     85 H                     0.098430
     86 H                     0.105643
     87 H                     0.100237
     88 H                     0.122578
     89 H                     0.128446
     90 H                     0.130641
     91 H                     0.106933
     92 H                     0.145560
     93 H                     0.115454
     94 C                    -0.174557
     95 H                     0.085790
     96 H                     0.105872
     97 H                     0.088703
     98 C                    -0.170346
     99 H                     0.100247
    100 C                    -0.183840
    101 H                     0.100267
    102 H                     0.088615
    103 H                     0.091486
    104 C                    -0.174936
    105 H                     0.085756
    106 C                    -0.324710
    107 H                     0.095991
    108 H                     0.110385
    109 H                     0.094838
    110 H                     0.105864
  ----------------------------------------
  Sum of atomic charges =     0.000000

                    Cartesian Multipole Moments
 -----------------------------------------------------------------
    Charge (ESU x 10^10)
                 0.0000
    Dipole Moment (Debye)
         X       2.1858      Y       0.2902      Z       0.7815
       Tot       2.3393
    Quadrupole Moments (Debye-Ang)
        XX    -383.9217     XY      40.2426     YY    -434.8500
        XZ      11.4544     YZ      -3.0440     ZZ    -447.8576

 Total job time:  92.66s(wall), 1105.31s(cpu)
        *  Thank you very much for using Q-Chem.  Have a nice day.  *
