 Q-Chem 4.4, Q-Chem, Inc., Pleasanton, CA (2016)
 Q-Chem 4.4.2 for Intel X86 Linux

User input:
--------------------------------------------------------------
$comment
SP
$end

$rem
MEM_STATIC 5000
MEM_TOTAL 20000
JOBTYPE SP
EXCHANGE B3LYP
BASIS 6-31g(d,p)
$end

$molecule
0 1
C          12.537000     30.540000      5.572000
C          12.637000     29.338000      4.853000
N          11.727000     30.564000      6.629000
C          11.945000     28.145000      5.183000
C          11.086000     29.408000      7.000000
C          11.075000     28.198000      6.301000
C          10.155000     27.042000      6.651000
C           9.458000     26.363000      5.615000
C           9.848000     26.642000      7.988000
N           8.452000     25.533000      5.886000
N          10.383000     27.246000      9.099000
C           8.851000     25.768000      8.232000
C           8.100000     25.175000      7.147000
S           9.702000     26.472000     10.377000
N           8.653000     25.525000      9.556000
C           7.090000     24.136000      7.362000
S           6.711000     23.145000      8.798000
C           6.311000     23.638000      6.268000
C           5.445000     22.238000      7.924000
S           6.112000     24.190000      4.631000
C           5.394000     22.645000      6.607000
C           4.543000     21.267000      8.582000
C           4.880000     22.966000      4.419000
C           4.588000     22.242000      5.528000
N           3.393000     21.005000      7.992000
S           4.995000     20.274000      9.982000
C           2.785000     19.956000      8.658000
C           3.482000     19.483000      9.732000
C          13.221000     31.775000      5.086000
H          13.400000     29.268000      4.083000
H          12.060000     27.279000      4.538000
H          10.579000     29.526000      7.957000
H           9.695000     26.590000      4.577000
H           4.500000     22.749000      3.429000
H           3.850000     21.448000      5.545000
H           1.864000     19.584000      8.229000
H           3.230000     18.717000     10.453000
H          13.305000     32.526000      5.880000
C          12.623000     32.321000      3.832000
H          14.269000     31.532000      4.871000
H          12.655000     31.611000      2.997000
H          13.232000     33.194000      3.571000
C          11.136000     32.738000      3.915000
H          10.788000     32.942000      2.895000
C          10.928000     33.876000      4.881000
H          10.695000     31.823000      4.328000
H          11.448000     33.674000      5.826000
H           9.875000     34.008000      5.158000
C          11.386000     35.228000      4.307000
H          12.468000     35.277000      4.130000
C          10.893000     36.394000      5.242000
H          10.855000     35.221000      3.347000
H          11.395000     36.413000      6.217000
H           9.813000     36.337000      5.420000
H          11.202000     37.378000      4.868000
C          -7.088000     28.050000      9.632000
C          -5.913000     27.899000      8.972000
N          -7.106000     28.004000     11.016000
C          -4.725000     27.542000      9.588000
C          -5.924000     27.808000     11.653000
C          -4.689000     27.486000     10.969000
C          -3.465000     26.985000     11.717000
C          -2.664000     25.949000     11.170000
C          -3.134000     27.334000     13.016000
N          -1.559000     25.463000     11.788000
N          -3.775000     28.350000     13.625000
C          -2.010000     26.784000     13.721000
C          -1.216000     25.818000     13.054000
S          -2.906000     28.534000     15.027000
N          -1.774000     27.291000     14.881000
C           0.023000     25.150000     13.561000
S           0.720000     25.273000     15.255000
C           0.931000     24.368000     12.833000
C           2.119000     24.257000     14.844000
S           0.883000     23.877000     11.144000
C           2.055000     23.881000     13.549000
C           3.095000     23.837000     15.820000
C           2.220000     22.698000     11.497000
C           2.745000     22.922000     12.760000
N           4.382000     23.848000     15.358000
S           2.931000     23.945000     17.496000
C           5.269000     23.750000     16.380000
C           4.651000     23.676000     17.664000
C          -8.411000     28.091000      8.882000
H          -5.862000     28.054000      7.899000
H          -3.832000     27.250000      9.042000
H          -6.015000     27.887000     12.736000
H          -2.953000     25.535000     10.205000
H           2.559000     21.951000     10.792000
H           3.651000     22.460000     13.137000
H           6.313000     23.622000     16.129000
H           5.011000     23.260000     18.596000
H          -8.200000     28.202000      7.812000
C          -9.293000     29.196000      9.387000
H          -8.955000     27.148000      9.016000
H          -8.854000     29.491000     10.348000
H         -10.338000     28.973000      9.636000
C          -9.247000     30.442000      8.436000
H          -8.201000     30.770000      8.483000
C         -10.154000     31.579000      9.065000
H          -9.492000     30.188000      7.398000
H          -9.871000     31.682000     10.121000
H         -11.220000     31.330000      9.132000
C          -9.991000     33.014000      8.429000
H          -8.971000     33.397000      8.558000
C         -10.988000     34.019000      9.076000
H         -10.173000     32.945000      7.349000
H         -11.997000     33.613000      8.929000
H         -10.850000     35.014000      8.637000
H         -10.948000     34.181000     10.160000
$end

--------------------------------------------------------------

             Standard Nuclear Orientation (Angstroms)
    I     Atom           X                Y                Z
 ----------------------------------------------------------------
    1      C     -10.3922434024    -3.7322824552     1.3342577904
    2      C     -10.6917344514    -3.0924704866     0.1207048429
    3      N      -9.2912749184    -3.3516928301     1.9799705240
    4      C      -9.9095859177    -2.0603963926    -0.4572914682
    5      C      -8.5452882527    -2.3191611872     1.4678764887
    6      C      -8.7330008185    -1.6832813587     0.2377371322
    7      C      -7.7288550673    -0.7146927013    -0.3612314172
    8      C      -7.3812370546    -0.8264504434    -1.7348463285
    9      C      -7.0094279191     0.2601063288     0.3964026827
   10      N      -6.3262389534    -0.1862194648    -2.2363045025
   11      N      -7.1783447972     0.4427112793     1.7467672706
   12      C      -5.9706741909     0.9244142517    -0.1486722439
   13      C      -5.5887893077     0.7053296718    -1.5267291668
   14      S      -6.1158038336     1.6260878971     2.1551145263
   15      N      -5.3616179601     1.7827470792     0.7136178843
   16      C      -4.5438440108     1.4889374779    -2.1899743195
   17      S      -3.7142415710     2.9925878818    -1.7014937622
   18      C      -4.1399378206     1.1809598130    -3.5292616477
   19      C      -2.7715302275     3.0470840896    -3.2172795275
   20      S      -4.4763545229    -0.1733091304    -4.5669771345
   21      C      -3.1450485371     2.0090395038    -4.0453414276
   22      C      -1.6908603866     4.0269994050    -3.4649237674
   23      C      -3.3517967376     0.4978765588    -5.7270734916
   24      C      -2.7125154346     1.6249417436    -5.3266181447
   25      N      -0.7804975523     3.7169731158    -4.3673467336
   26      S      -1.6611678024     5.6710947077    -2.7967755908
   27      C       0.0250964186     4.8216112757    -4.5780927652
   28      C      -0.2897325468     5.9095995545    -3.8163984514
   29      C     -11.2166642195    -4.8825309275     1.8102155285
   30      H     -11.6569281350    -3.2933163039    -0.3353994335
   31      H     -10.2060932461    -1.6578630607    -1.4212708875
   32      H      -7.7650419597    -2.0115478679     2.1631546835
   33      H      -7.9369891398    -1.5141514444    -2.3699439218
   34      H      -3.2988829471     0.0868598685    -6.7270006945
   35      H      -1.9924514653     2.1529608945    -5.9414942757
   36      H       0.7708071171     4.7307582692    -5.3567629684
   37      H       0.1902156387     6.8756895216    -3.7362678412
   38      H     -11.0600261055    -5.0737236525     2.8781119856
   39      C     -11.0537649729    -6.1067104819     0.9717143333
   40      H     -12.2744933584    -4.5947056495     1.7685967561
   41      H     -11.3341334393    -5.9490415740    -0.0765618891
   42      H     -11.7296420770    -6.8527138233     1.4050734855
   43      C      -9.6240235469    -6.6914741918     0.8953084542
   44      H      -9.6185322924    -7.4616325728     0.1143181122
   45      C      -9.1431346240    -7.1691452503     2.2414288811
   46      H      -9.0589723189    -5.7990380551     0.6011148928
   47      H      -9.3354971501    -6.4073375339     3.0075063327
   48      H      -8.0590376399    -7.3332682013     2.2689858399
   49      C      -9.7828982707    -8.5055346264     2.6560490829
   50      H     -10.8663109781    -8.4337325392     2.8157843820
   51      C      -9.0418102738    -9.0767736081     3.9214757330
   52      H      -9.5810398160    -9.1037971594     1.7588617525
   53      H      -9.2116432284    -8.4861100223     4.8299157673
   54      H      -7.9598361435    -9.1410309260     3.7585770570
   55      H      -9.4705655398   -10.0310841355     4.2517382633
   56      C       9.5547706426    -3.2599028285    -1.7830829315
   57      C       8.2346810691    -3.2576692572    -2.0935415102
   58      N      10.0083327663    -2.4994968946    -0.7182072506
   59      C       7.3076318257    -2.4129526303    -1.5059340557
   60      C       9.0906769607    -1.7785587936    -0.0257730827
   61      C       7.7091847370    -1.6355733040    -0.4354063156
   62      C       6.7921254523    -0.5952803128     0.1854590166
   63      C       5.8785296214     0.1299061466    -0.6229673913
   64      C       6.8805913469    -0.1411273166     1.4910936674
   65      N       5.0332086971     1.0670108613    -0.1265680674
   66      N       7.6622257573    -0.7868488216     2.3777217667
   67      C       6.0457820463     0.8983246406     2.0254475392
   68      C       5.0997906108     1.5011577715     1.1593220169
   69      S       7.2755377568    -0.0396507783     3.8083819200
   70      N       6.1777920974     1.1304157281     3.2852300893
   71      C       4.0956549227     2.5565709431     1.5002157789
   72      S       3.9652110555     3.4748708882     3.0846032341
   73      C       3.0189502533     2.9963065044     0.7170735881
   74      C       2.5265645467     4.3682141360     2.5455187654
   75      S       2.5417240708     2.5092450585    -0.9050029572
   76      C       2.1864644683     3.9892277517     1.2952394937
   77      C       1.9151600591     5.4137566031     3.3294687013
   78      C       1.4053502426     3.9267036409    -0.9460479270
   79      C       1.3006393173     4.5025538895     0.3102968161
   80      N       0.5481797089     5.4065703918     3.2941546715
   81      S       2.5964053738     6.1717197877     4.6744343633
   82      C       0.0298937444     6.1920443722     4.2715324311
   83      C       1.0218810696     6.8094299941     5.0905880705
   84      C      10.5734673710    -3.9381682603    -2.6868102021
   85      H       7.8457264912    -3.9392400846    -2.8432951655
   86      H       6.2935921534    -2.2874023391    -1.8757849277
   87      H       9.5165084474    -1.2935837109     0.8522233376
   88      H       5.8565159852    -0.0872030670    -1.6899823815
   89      H       0.8752302702     4.2414914965    -1.8347753434
   90      H       0.5678735449     5.2556237543     0.5792746989
   91      H      -1.0375504612     6.3647711813     4.2645097994
   92      H       0.9811345439     7.7117134587     5.6868298587
   93      H      10.0344135571    -4.5512849352    -3.4184186551
   94      C      11.5494636903    -4.7580217804    -1.8935603106
   95      H      11.1489490006    -3.1883104659    -3.2432948670
   96      H      11.4300205702    -4.4157661885    -0.8582528921
   97      H      12.6235732488    -4.6406121194    -2.0839772946
   98      C      11.1839318827    -6.2822455249    -1.9400519699
   99      H      10.2001483753    -6.3314352365    -1.4566687029
  100      C      12.2221066082    -7.0683926493    -1.0371538924
  101      H      11.0942912097    -6.6621014657    -2.9645806488
  102      H      12.2840814606    -6.5465405241    -0.0729633111
  103      H      13.2593260643    -7.0288069552    -1.3913498448
  104      C      11.8412795792    -8.5621575817    -0.6996230042
  105      H      10.9069870941    -8.6189442733    -0.1272570164
  106      C      12.9729162209    -9.2463654494     0.1212917935
  107      H      11.6752870176    -9.1056553231    -1.6384209987
  108      H      13.8915196498    -9.1778363233    -0.4753634665
  109      H      12.6857797013   -10.2763296404     0.3631933945
  110      H      13.2732436531    -8.8049129866     1.0793226680
 ----------------------------------------------------------------

    9   -5663.5302516611      7.48E-06 Convergence criterion met
 Total energy in the final basis set = -5663.5302516611

                    Orbital Energies (a.u.)
 --------------------------------------------------------------

 Alpha MOs
 -- Occupied --
-88.990 -88.979 -88.936 -88.935 -88.930 -88.922 -88.910 -88.904
-14.388 -14.386 -14.384 -14.380 -14.351 -14.349 -14.348 -14.347
-14.331 -14.326 -10.278 -10.270 -10.268 -10.266 -10.255 -10.253
-10.251 -10.250 -10.249 -10.247 -10.246 -10.242 -10.242 -10.241
-10.240 -10.239 -10.237 -10.235 -10.232 -10.232 -10.228 -10.227
-10.225 -10.225 -10.221 -10.221 -10.220 -10.218 -10.217 -10.217
-10.214 -10.207 -10.207 -10.204 -10.196 -10.194 -10.191 -10.191
-10.184 -10.183 -10.178 -10.178 -10.177 -10.176 -10.175 -10.170
-10.169 -10.169 -10.168 -10.164  -8.045  -8.034  -7.997  -7.996
 -7.988  -7.980  -7.970  -7.963  -6.010  -6.004  -6.003  -6.000
 -5.994  -5.991  -5.961  -5.960  -5.958  -5.957  -5.955  -5.953
 -5.953  -5.949  -5.945  -5.945  -5.941  -5.936  -5.934  -5.931
 -5.928  -5.926  -5.924  -5.919  -1.035  -1.033  -0.977  -0.969
 -0.956  -0.949  -0.934  -0.930  -0.917  -0.912  -0.902  -0.893
 -0.846  -0.833  -0.830  -0.829  -0.818  -0.814  -0.814  -0.807
 -0.802  -0.799  -0.796  -0.794  -0.779  -0.775  -0.764  -0.764
 -0.748  -0.745  -0.740  -0.736  -0.725  -0.715  -0.710  -0.703
 -0.696  -0.689  -0.673  -0.670  -0.652  -0.650  -0.642  -0.641
 -0.635  -0.632  -0.623  -0.623  -0.614  -0.611  -0.600  -0.597
 -0.594  -0.591  -0.585  -0.581  -0.580  -0.573  -0.571  -0.556
 -0.552  -0.548  -0.540  -0.534  -0.526  -0.524  -0.517  -0.513
 -0.506  -0.501  -0.500  -0.495  -0.487  -0.483  -0.477  -0.473
 -0.471  -0.471  -0.469  -0.467  -0.463  -0.456  -0.449  -0.448
 -0.446  -0.446  -0.444  -0.440  -0.435  -0.431  -0.429  -0.427
 -0.426  -0.424  -0.421  -0.419  -0.418  -0.414  -0.412  -0.411
 -0.407  -0.404  -0.403  -0.403  -0.401  -0.400  -0.394  -0.393
 -0.393  -0.392  -0.390  -0.388  -0.386  -0.386  -0.384  -0.381
 -0.379  -0.377  -0.375  -0.373  -0.369  -0.363  -0.357  -0.353
 -0.352  -0.349  -0.346  -0.345  -0.345  -0.343  -0.340  -0.339
 -0.338  -0.337  -0.336  -0.329  -0.328  -0.324  -0.320  -0.317
 -0.313  -0.312  -0.306  -0.305  -0.303  -0.302  -0.301  -0.297
 -0.296  -0.296  -0.294  -0.293  -0.289  -0.286  -0.283  -0.282
 -0.269  -0.269  -0.265  -0.263  -0.257  -0.252  -0.248  -0.247
 -0.246  -0.243  -0.234  -0.230  -0.195  -0.192

          Ground-State Mulliken Net Atomic Charges

     Atom                 Charge (a.u.)
  ----------------------------------------
      1 C                     0.286766
      2 C                    -0.120867
      3 N                    -0.485367
      4 C                    -0.088893
      5 C                     0.065574
      6 C                     0.048521
      7 C                    -0.011355
      8 C                     0.085736
      9 C                     0.238585
     10 N                    -0.534377
     11 N                    -0.550641
     12 C                     0.194663
     13 C                     0.322140
     14 S                     0.612424
     15 N                    -0.565833
     16 C                    -0.208865
     17 S                     0.327072
     18 C                    -0.128098
     19 C                    -0.254703
     20 S                     0.291637
     21 C                     0.176216
     22 C                     0.059867
     23 C                    -0.321972
     24 C                    -0.026514
     25 N                    -0.424563
     26 S                     0.273973
     27 C                     0.117527
     28 C                    -0.309552
     29 C                    -0.225830
     30 H                     0.080048
     31 H                     0.102775
     32 H                     0.117654
     33 H                     0.116466
     34 H                     0.125250
     35 H                     0.121287
     36 H                     0.119395
     37 H                     0.139575
     38 H                     0.118853
     39 C                    -0.179652
     40 H                     0.103061
     41 H                     0.090013
     42 H                     0.090823
     43 C                    -0.181504
     44 H                     0.085194
     45 C                    -0.164734
     46 H                     0.101200
     47 H                     0.103938
     48 H                     0.085987
     49 C                    -0.171881
     50 H                     0.091568
     51 C                    -0.324368
     52 H                     0.092108
     53 H                     0.103288
     54 H                     0.105611
     55 H                     0.095196
     56 C                     0.275132
     57 C                    -0.133696
     58 N                    -0.488214
     59 C                    -0.075010
     60 C                     0.089362
     61 C                     0.038511
     62 C                     0.036932
     63 C                     0.065565
     64 C                     0.197395
     65 N                    -0.534412
     66 N                    -0.538780
     67 C                     0.257757
     68 C                     0.321186
     69 S                     0.569132
     70 N                    -0.583848
     71 C                    -0.220712
     72 S                     0.295693
     73 C                    -0.124748
     74 C                    -0.226966
     75 S                     0.277940
     76 C                     0.196944
     77 C                     0.008186
     78 C                    -0.314551
     79 C                    -0.057969
     80 N                    -0.400775
     81 S                     0.303072
     82 C                     0.122407
     83 C                    -0.324365
     84 C                    -0.218637
     85 H                     0.083695
     86 H                     0.102294
     87 H                     0.122328
     88 H                     0.113315
     89 H                     0.133507
     90 H                     0.113320
     91 H                     0.121278
     92 H                     0.144189
     93 H                     0.096851
     94 C                    -0.189358
     95 H                     0.122143
     96 H                     0.129591
     97 H                     0.086980
     98 C                    -0.184365
     99 H                     0.095619
    100 C                    -0.177321
    101 H                     0.089332
    102 H                     0.096917
    103 H                     0.088499
    104 C                    -0.178933
    105 H                     0.093375
    106 C                    -0.321224
    107 H                     0.093540
    108 H                     0.100977
    109 H                     0.097989
    110 H                     0.102510
  ----------------------------------------
  Sum of atomic charges =     0.000000

                    Cartesian Multipole Moments
 -----------------------------------------------------------------
    Charge (ESU x 10^10)
                 0.0000
    Dipole Moment (Debye)
         X      -2.4048      Y       4.1944      Z      -1.7785
       Tot       5.1516
    Quadrupole Moments (Debye-Ang)
        XX    -452.0574     XY       3.6295     YY    -408.4353
        XZ       2.2983     YZ      17.7207     ZZ    -417.5394

 Total job time:  78.17s(wall), 911.23s(cpu)
        *  Thank you very much for using Q-Chem.  Have a nice day.  *
