 Q-Chem 4.4, Q-Chem, Inc., Pleasanton, CA (2016)
 Q-Chem 4.4.2 for Intel X86 Linux

User input:
--------------------------------------------------------------
$comment
SP
$end

$rem
MEM_STATIC 5000
MEM_TOTAL 20000
JOBTYPE SP
EXCHANGE B3LYP
BASIS 6-31g(d,p)
$end

$molecule
0 1
C          10.404000     23.563000      2.597000
C          11.311000     23.987000      3.548000
N           9.295000     22.853000      2.887000
C          11.186000     23.472000      4.865000
C           9.156000     22.401000      4.212000
C          10.069000     22.712000      5.243000
C           9.967000     22.329000      6.729000
C          10.557000     23.159000      7.686000
C           9.207000     21.243000      7.188000
N          10.432000     22.887000      8.991000
N           8.476000     20.459000      6.376000
C           9.153000     20.929000      8.557000
C           9.818000     21.749000      9.456000
S           7.737000     19.400000      7.382000
N           8.497000     19.839000      8.815000
C           9.663000     21.599000     10.862000
S           8.195000     21.045000     11.685000
C          10.484000     22.199000     11.847000
C           8.987000     21.347000     13.300000
S          11.928000     23.130000     11.624000
C          10.084000     22.095000     13.184000
C           8.272000     21.179000     14.576000
C          11.945000     23.422000     13.359000
C          10.916000     22.801000     14.074000
N           8.831000     21.515000     15.673000
S           6.708000     20.347000     14.684000
C           7.944000     21.354000     16.693000
C           6.747000     20.773000     16.366000
C          10.648000     23.945000      1.175000
H          12.145000     24.561000      3.156000
H          11.988000     23.568000      5.590000
H           8.203000     21.899000      4.371000
H          11.234000     23.981000      7.454000
H          12.829000     23.955000     13.685000
H          10.766000     22.850000     15.146000
H           8.208000     21.655000     17.698000
H           5.875000     20.624000     16.989000
H          11.622000     24.434000      1.046000
C           9.466000     24.800000      0.538000
H          10.852000     23.028000      0.609000
H           9.405000     25.807000      0.970000
H           8.500000     24.329000      0.757000
C           9.518000     24.962000     -0.998000
H          10.321000     25.676000     -1.219000
C           8.110000     25.433000     -1.516000
H           9.902000     24.095000     -1.551000
H           7.834000     26.377000     -1.031000
H           7.358000     24.650000     -1.360000
C           8.071000     25.741000     -3.041000
H           7.183000     26.383000     -3.105000
C           7.970000     24.493000     -3.918000
H           8.918000     26.408000     -3.242000
H           7.962000     24.730000     -4.989000
H           7.126000     23.831000     -3.687000
H           8.837000     23.881000     -3.643000
C          -7.088000     28.050000      9.632000
C          -5.913000     27.899000      8.972000
N          -7.106000     28.004000     11.016000
C          -4.725000     27.542000      9.588000
C          -5.924000     27.808000     11.653000
C          -4.689000     27.486000     10.969000
C          -3.465000     26.985000     11.717000
C          -2.664000     25.949000     11.170000
C          -3.134000     27.334000     13.016000
N          -1.559000     25.463000     11.788000
N          -3.775000     28.350000     13.625000
C          -2.010000     26.784000     13.721000
C          -1.216000     25.818000     13.054000
S          -2.906000     28.534000     15.027000
N          -1.774000     27.291000     14.881000
C           0.023000     25.150000     13.561000
S           0.720000     25.273000     15.255000
C           0.931000     24.368000     12.833000
C           2.119000     24.257000     14.844000
S           0.883000     23.877000     11.144000
C           2.055000     23.881000     13.549000
C           3.095000     23.837000     15.820000
C           2.220000     22.698000     11.497000
C           2.745000     22.922000     12.760000
N           4.382000     23.848000     15.358000
S           2.931000     23.945000     17.496000
C           5.269000     23.750000     16.380000
C           4.651000     23.676000     17.664000
C          -8.411000     28.091000      8.882000
H          -5.862000     28.054000      7.899000
H          -3.832000     27.250000      9.042000
H          -6.015000     27.887000     12.736000
H          -2.953000     25.535000     10.205000
H           2.559000     21.951000     10.792000
H           3.651000     22.460000     13.137000
H           6.313000     23.622000     16.129000
H           5.011000     23.260000     18.596000
H          -8.200000     28.202000      7.812000
C          -9.293000     29.196000      9.387000
H          -8.955000     27.148000      9.016000
H          -8.854000     29.491000     10.348000
H         -10.338000     28.973000      9.636000
C          -9.247000     30.442000      8.436000
H          -8.201000     30.770000      8.483000
C         -10.154000     31.579000      9.065000
H          -9.492000     30.188000      7.398000
H          -9.871000     31.682000     10.121000
H         -11.220000     31.330000      9.132000
C          -9.991000     33.014000      8.429000
H          -8.971000     33.397000      8.558000
C         -10.988000     34.019000      9.076000
H         -10.173000     32.945000      7.349000
H         -11.997000     33.613000      8.929000
H         -10.850000     35.014000      8.637000
H         -10.948000     34.181000     10.160000
$end

--------------------------------------------------------------

             Standard Nuclear Orientation (Angstroms)
    I     Atom           X                Y                Z
 ----------------------------------------------------------------
    1      C       8.4659713886    -5.9660469673    -0.6451853954
    2      C       8.8963787805    -5.0195311443    -1.5538565537
    3      N       7.6493580286    -5.6889735090     0.3913732951
    4      C       8.6426228316    -3.6531638041    -1.2640510844
    5      C       7.3584933104    -4.3331475778     0.6288259428
    6      C       7.8149443498    -3.2807970158    -0.1942546992
    7      C       7.4929682332    -1.7828341043    -0.0611100557
    8      C       7.4912347100    -0.9843050805    -1.2079306141
    9      C       7.0833663833    -1.1932355429     1.1439944464
   10      N       7.1535657318     0.3092293825    -1.1345667662
   11      N       6.9058475123    -1.8878035588     2.2817217079
   12      C       6.8088515272     0.1834222116     1.2156046473
   13      C       6.8925679160     0.9412461550     0.0573644145
   14      S       6.3703983244    -0.7797890042     3.3611826447
   15      N       6.5439941007     0.5990547969     2.4164793692
   16      C       6.4593153249     2.2954770831     0.0159906832
   17      S       5.1319452956     2.9837072646     0.9666204863
   18      C       6.7409455200     3.2160930561    -1.0219961489
   19      C       5.3383882774     4.5759536616     0.1012733268
   20      S       7.7637165158     3.0011666024    -2.4037964635
   21      C       6.0876304344     4.4533438362    -0.9941590175
   22      C       4.4393161762     5.7203486631     0.3241060828
   23      C       7.2460903080     4.5853687421    -2.9678396263
   24      C       6.3647356532     5.2583261672    -2.1157543744
   25      N       4.5516968865     6.7722283512    -0.3898306775
   26      S       3.3014775053     5.7811914742     1.6848431300
   27      C       3.5584417051     7.6428727934    -0.0604184738
   28      C       2.7688490397     7.2845305492     1.0004459185
   29      C       8.9003895939    -7.3797872409    -0.8455931340
   30      H       9.5391294297    -5.4039327571    -2.3398610085
   31      H       9.1515495348    -2.8563420564    -1.7970742670
   32      H       6.6403744244    -4.2084218869     1.4376786907
   33      H       7.8643988278    -1.3040447178    -2.1807369183
   34      H       7.7711870717     4.9043772316    -3.8590904173
   35      H       5.9473375215     6.2444520458    -2.2813428739
   36      H       3.4403673275     8.5682235587    -0.6082381545
   37      H       1.8828716835     7.7758187723     1.3804380317
   38      H       9.6346599481    -7.4692199099    -1.6563254231
   39      C       7.6874794958    -8.3942052638    -1.0292318247
   40      H       9.5517679017    -7.6551995295    -0.0073119332
   41      H       7.1658153815    -8.2462922655    -1.9833713830
   42      H       6.9317491793    -8.2221670978    -0.2531953835
   43      C       8.0557845671    -9.8921097967    -0.9350119491
   44      H       8.5783257452   -10.1537420359    -1.8634220356
   45      C       6.7472216620   -10.7324636719    -0.7024232825
   46      H       8.8481931666   -10.1387059689    -0.2165184283
   47      H       6.0413503285   -10.5527651669    -1.5221739201
   48      H       6.3113373517   -10.5071831426     0.2784857608
   49      C       6.9786527960   -12.2714389127    -0.7046229186
   50      H       5.9651556058   -12.6379588698    -0.9126867704
   51      C       7.5504875994   -12.8091506237     0.6071335655
   52      H       7.5526860299   -12.4950182752    -1.6119250265
   53      H       7.7230855559   -13.8920640356     0.5791605823
   54      H       6.9699587803   -12.5577296976     1.5036349922
   55      H       8.4822289422   -12.2522996872     0.7608641890
   56      C     -10.6300354258    -3.2104742279     1.1834208012
   57      C      -9.3547662921    -3.6123860787     0.9571875126
   58      N     -10.9716467871    -1.8813972582     0.9970016861
   59      C      -8.3093095635    -2.7428349476     0.6942235245
   60      C      -9.9943414135    -1.0334503861     0.5881382505
   61      C      -8.5979695860    -1.4053805750     0.4955172273
   62      C      -7.5012105081    -0.3677140462     0.3250804353
   63      C      -6.2742917596    -0.4986083725     1.0262530673
   64      C      -7.6487196212     0.8368037198    -0.3428574458
   65      N      -5.2579631746     0.3920449858     0.9124207233
   66      N      -8.7396977126     1.0577167176    -1.1011332871
   67      C      -6.6138863208     1.8296896246    -0.4215887648
   68      C      -5.3886586456     1.5655007764     0.2398508745
   69      S      -8.3691067937     2.4889899901    -1.8552819397
   70      N      -6.8691124697     2.8463571695    -1.1696473962
   71      C      -4.1591576398     2.4178554403     0.2544386573
   72      S      -3.9937935477     4.1153577611    -0.4250571764
   73      C      -2.8819722643     2.0673857432     0.7148086259
   74      C      -2.2690275741     4.2056498571    -0.0062401836
   75      S      -2.3324819654     0.5723360814     1.4624669171
   76      C      -1.8723796127     3.0548513079     0.5775663715
   77      C      -1.4809045556     5.4003541758    -0.1881624160
   78      C      -0.7939874526     1.4226696418     1.9231039437
   79      C      -0.7131885012     2.6557227017     1.2953924805
   80      N      -0.2115861470     5.1644869485    -0.6388634571
   81      S      -2.0811923038     6.9455439770    -0.5037239755
   82      C       0.3698960349     6.3073742447    -1.0821964025
   83      C      -0.4773956402     7.4513076273    -0.9843739435
   84      C     -11.6510064319    -4.1498218398     1.8077238277
   85      H      -9.0992194041    -4.6669732318     0.9794748299
   86      H      -7.2657717145    -3.0458734565     0.6891817230
   87      H     -10.3720436677    -0.0348885286     0.3699039179
   88      H      -6.1482139906    -1.3612872320     1.6789640153
   89      H      -0.0474666532     0.9934881655     2.5776762899
   90      H       0.1748566361     3.2782847046     1.2812014039
   91      H       1.4179346898     6.2687078751    -1.3457127961
   92      H      -0.2346358451     8.5036280749    -0.9138802735
   93      H     -11.2363655483    -5.1646147165     1.8045059269
   94      C     -12.9651727744    -4.0894965022     1.0843278934
   95      H     -11.8369183879    -3.8715493351     2.8523013297
   96      H     -12.9126201802    -3.1763691936     0.4787672084
   97      H     -13.8881290729    -3.9642327990     1.6641689713
   98      C     -13.1343156591    -5.3040996499     0.1070035469
   99      H     -12.3211096215    -5.1733368242    -0.6179143959
  100      C     -14.5130666480    -5.1375935779    -0.6561349979
  101      H     -13.0077813425    -6.2697399658     0.6105041398
  102      H     -14.5558368898    -4.1105049476    -1.0422614693
  103      H     -15.4006874665    -5.1827818138    -0.0135361293
  104      C     -14.7222087914    -6.0805456922    -1.9040896742
  105      H     -13.9723370539    -5.8896423278    -2.6818931730
  106      C     -16.1392718969    -5.8780447725    -2.5152922040
  107      H     -14.5947004640    -7.1228223876    -1.5852073812
  108      H     -16.8665675784    -6.0785354555    -1.7181909070
  109      H     -16.2622807988    -6.5259400678    -3.3910150462
  110      H     -16.4289098965    -4.8783577553    -2.8611761394
 ----------------------------------------------------------------

    9   -5663.5056872065      9.07E-06 Convergence criterion met
 Total energy in the final basis set = -5663.5056872065

                    Orbital Energies (a.u.)
 --------------------------------------------------------------

 Alpha MOs
 -- Occupied --
-88.987 -88.980 -88.937 -88.927 -88.927 -88.924 -88.910 -88.907
-14.390 -14.387 -14.386 -14.386 -14.350 -14.349 -14.348 -14.346
-14.333 -14.330 -10.272 -10.271 -10.268 -10.259 -10.257 -10.254
-10.254 -10.250 -10.249 -10.244 -10.242 -10.242 -10.241 -10.241
-10.241 -10.240 -10.234 -10.234 -10.232 -10.232 -10.230 -10.230
-10.229 -10.227 -10.226 -10.225 -10.223 -10.222 -10.219 -10.218
-10.213 -10.208 -10.206 -10.206 -10.201 -10.198 -10.197 -10.192
-10.186 -10.185 -10.180 -10.178 -10.178 -10.177 -10.176 -10.176
-10.175 -10.172 -10.170 -10.169  -8.043  -8.036  -7.999  -7.988
 -7.985  -7.982  -7.970  -7.966  -6.008  -6.003  -6.001  -6.000
 -5.996  -5.993  -5.963  -5.959  -5.957  -5.952  -5.950  -5.949
 -5.947  -5.946  -5.945  -5.943  -5.942  -5.939  -5.935  -5.931
 -5.931  -5.927  -5.927  -5.922  -1.042  -1.037  -0.990  -0.971
 -0.957  -0.951  -0.931  -0.926  -0.919  -0.917  -0.912  -0.905
 -0.845  -0.835  -0.831  -0.830  -0.816  -0.815  -0.811  -0.803
 -0.801  -0.799  -0.798  -0.796  -0.782  -0.776  -0.766  -0.765
 -0.751  -0.747  -0.743  -0.738  -0.724  -0.718  -0.709  -0.705
 -0.692  -0.691  -0.679  -0.672  -0.656  -0.651  -0.651  -0.643
 -0.640  -0.634  -0.629  -0.625  -0.612  -0.610  -0.598  -0.598
 -0.594  -0.593  -0.588  -0.583  -0.577  -0.574  -0.572  -0.563
 -0.556  -0.554  -0.542  -0.536  -0.530  -0.525  -0.516  -0.515
 -0.508  -0.507  -0.499  -0.497  -0.485  -0.484  -0.480  -0.475
 -0.474  -0.472  -0.469  -0.465  -0.457  -0.456  -0.453  -0.450
 -0.448  -0.444  -0.443  -0.438  -0.437  -0.435  -0.434  -0.433
 -0.428  -0.427  -0.426  -0.422  -0.421  -0.419  -0.416  -0.412
 -0.408  -0.406  -0.405  -0.405  -0.402  -0.399  -0.395  -0.395
 -0.394  -0.393  -0.390  -0.389  -0.387  -0.385  -0.382  -0.381
 -0.380  -0.378  -0.375  -0.375  -0.364  -0.363  -0.357  -0.356
 -0.355  -0.349  -0.349  -0.347  -0.345  -0.342  -0.341  -0.339
 -0.338  -0.338  -0.336  -0.332  -0.330  -0.325  -0.322  -0.318
 -0.316  -0.315  -0.314  -0.311  -0.310  -0.305  -0.302  -0.298
 -0.296  -0.295  -0.294  -0.291  -0.290  -0.287  -0.284  -0.281
 -0.272  -0.271  -0.267  -0.264  -0.257  -0.254  -0.252  -0.248
 -0.245  -0.245  -0.235  -0.232  -0.196  -0.194

          Ground-State Mulliken Net Atomic Charges

     Atom                 Charge (a.u.)
  ----------------------------------------
      1 C                     0.293672
      2 C                    -0.115362
      3 N                    -0.497731
      4 C                    -0.104148
      5 C                     0.062398
      6 C                     0.065580
      7 C                     0.033850
      8 C                     0.062732
      9 C                     0.226167
     10 N                    -0.512798
     11 N                    -0.552641
     12 C                     0.243664
     13 C                     0.275048
     14 S                     0.586680
     15 N                    -0.582266
     16 C                    -0.186618
     17 S                     0.310120
     18 C                    -0.126233
     19 C                    -0.265443
     20 S                     0.282525
     21 C                     0.193954
     22 C                     0.080375
     23 C                    -0.316434
     24 C                    -0.041158
     25 N                    -0.433840
     26 S                     0.259929
     27 C                     0.109380
     28 C                    -0.301743
     29 C                    -0.236759
     30 H                     0.090581
     31 H                     0.101288
     32 H                     0.123719
     33 H                     0.117005
     34 H                     0.132389
     35 H                     0.130408
     36 H                     0.108111
     37 H                     0.136440
     38 H                     0.089038
     39 C                    -0.174008
     40 H                     0.118288
     41 H                     0.094894
     42 H                     0.124899
     43 C                    -0.182081
     44 H                     0.085511
     45 C                    -0.180936
     46 H                     0.090829
     47 H                     0.090764
     48 H                     0.097559
     49 C                    -0.178403
     50 H                     0.087083
     51 C                    -0.316220
     52 H                     0.091704
     53 H                     0.103056
     54 H                     0.104486
     55 H                     0.104875
     56 C                     0.275131
     57 C                    -0.133398
     58 N                    -0.487693
     59 C                    -0.074932
     60 C                     0.089680
     61 C                     0.038526
     62 C                     0.037070
     63 C                     0.065460
     64 C                     0.197315
     65 N                    -0.535545
     66 N                    -0.538447
     67 C                     0.258024
     68 C                     0.321059
     69 S                     0.570275
     70 N                    -0.583725
     71 C                    -0.219925
     72 S                     0.298186
     73 C                    -0.125540
     74 C                    -0.226327
     75 S                     0.275964
     76 C                     0.197605
     77 C                     0.007093
     78 C                    -0.315402
     79 C                    -0.058107
     80 N                    -0.400868
     81 S                     0.300237
     82 C                     0.127083
     83 C                    -0.332551
     84 C                    -0.218601
     85 H                     0.084000
     86 H                     0.101844
     87 H                     0.122490
     88 H                     0.113713
     89 H                     0.130015
     90 H                     0.121127
     91 H                     0.131863
     92 H                     0.139168
     93 H                     0.097020
     94 C                    -0.189852
     95 H                     0.122553
     96 H                     0.129555
     97 H                     0.087381
     98 C                    -0.184041
     99 H                     0.095324
    100 C                    -0.177078
    101 H                     0.089494
    102 H                     0.096800
    103 H                     0.088614
    104 C                    -0.179190
    105 H                     0.093233
    106 C                    -0.321434
    107 H                     0.093736
    108 H                     0.101198
    109 H                     0.098084
    110 H                     0.102557
  ----------------------------------------
  Sum of atomic charges =     0.000000

                    Cartesian Multipole Moments
 -----------------------------------------------------------------
    Charge (ESU x 10^10)
                 0.0000
    Dipole Moment (Debye)
         X       2.2806      Y       2.3193      Z      -0.7330
       Tot       3.3343
    Quadrupole Moments (Debye-Ang)
        XX    -462.2222     XY       1.0536     YY    -400.8030
        XZ     -16.2416     YZ      -1.5179     ZZ    -439.0362

 Total job time:  79.40s(wall), 930.03s(cpu)
        *  Thank you very much for using Q-Chem.  Have a nice day.  *
