 Q-Chem 4.4, Q-Chem, Inc., Pleasanton, CA (2016)
 Q-Chem 4.4.2 for Intel X86 Linux

User input:
--------------------------------------------------------------
$comment
SP
$end

$rem
MEM_STATIC 5000
MEM_TOTAL 20000
JOBTYPE SP
EXCHANGE B3LYP
BASIS 6-31g(d,p)
$end

$molecule
0 1
C           1.502000     -9.959000     -3.888000
C           0.224000     -9.587000     -3.600000
N           1.811000    -10.520000     -5.092000
C          -0.770000     -9.594000     -4.598000
C           0.865000    -10.530000     -6.019000
C          -0.442000    -10.078000     -5.836000
C          -1.577000    -10.314000     -6.824000
C          -1.681000    -11.641000     -7.418000
C          -2.530000     -9.324000     -7.138000
N          -2.743000    -11.931000     -8.179000
N          -2.511000     -8.096000     -6.688000
C          -3.503000     -9.660000     -8.087000
C          -3.631000    -10.947000     -8.574000
S          -3.772000     -7.350000     -7.449000
N          -4.254000     -8.572000     -8.379000
C          -4.669000    -11.249000     -9.515000
S          -5.737000    -10.179000    -10.546000
C          -4.972000    -12.614000     -9.826000
C          -6.458000    -11.615000    -11.339000
S          -4.417000    -14.134000     -9.234000
C          -5.961000    -12.811000    -10.785000
C          -7.670000    -11.533000    -12.244000
C          -5.475000    -15.064000    -10.277000
C          -6.213000    -14.195000    -10.991000
N          -7.938000    -12.563000    -12.999000
S          -8.572000    -10.018000    -12.610000
C          -8.956000    -12.273000    -13.827000
C          -9.411000    -10.947000    -13.830000
C           2.513000    -10.045000     -2.833000
H          -0.088000     -9.279000     -2.606000
H          -1.789000     -9.317000     -4.343000
H           1.215000    -11.006000     -6.934000
H          -1.085000    -12.528000     -7.208000
H          -5.319000    -16.132000    -10.352000
H          -6.995000    -14.556000    -11.651000
H          -9.425000    -13.048000    -14.419000
H         -10.198000    -10.483000    -14.410000
H           3.460000    -10.432000     -3.231000
C           2.097000    -10.825000     -1.572000
H           2.677000     -9.017000     -2.487000
H           1.908000    -11.851000     -1.910000
H           1.188000    -10.476000     -1.067000
C           3.281000    -10.720000     -0.457000
H           4.306000    -10.931000     -0.785000
C           2.855000    -11.278000      0.913000
H           3.283000     -9.648000     -0.224000
H           2.522000    -12.294000      0.665000
H           1.956000    -10.788000      1.307000
C           3.997000    -11.319000      1.918000
H           4.845000    -11.937000      1.597000
C           3.464000    -12.238000      3.062000
H           4.285000    -10.282000      2.133000
H           3.278000    -13.236000      2.646000
H           2.574000    -11.842000      3.564000
H           4.269000    -12.519000      3.752000
C           6.713000    -14.123000    -17.684000
C           7.295000    -13.117000    -16.845000
N           5.706000    -14.860000    -17.321000
C           6.877000    -13.000000    -15.565000
C           5.291000    -14.740000    -16.052000
C           5.832000    -13.885000    -15.127000
C           5.375000    -13.739000    -13.696000
C           6.270000    -13.693000    -12.655000
C           4.028000    -13.936000    -13.252000
N           5.975000    -13.628000    -11.324000
N           2.969000    -13.992000    -14.114000
C           3.654000    -13.897000    -11.901000
C           4.663000    -13.672000    -10.962000
S           1.583000    -14.085000    -13.119000
N           2.314000    -13.933000    -11.692000
C           4.254000    -13.690000     -9.565000
S           2.598000    -14.048000     -8.824000
C           5.064000    -13.254000     -8.506000
C           3.150000    -13.601000     -7.196000
S           6.770000    -12.907000     -8.596000
C           4.497000    -13.267000     -7.239000
C           2.371000    -13.736000     -6.016000
C           6.772000    -12.705000     -6.819000
C           5.483000    -12.858000     -6.296000
N           1.091000    -14.145000     -6.142000
S           2.897000    -13.617000     -4.350000
C           0.520000    -14.351000     -4.925000
C           1.348000    -14.168000     -3.891000
C           7.118000    -14.166000    -19.177000
H           7.919000    -12.319000    -17.238000
H           7.165000    -12.155000    -14.947000
H           4.544000    -15.478000    -15.764000
H           7.351000    -13.698000    -12.788000
H           7.658000    -12.510000     -6.231000
H           5.328000    -12.652000     -5.243000
H          -0.513000    -14.675000     -4.931000
H           1.034000    -14.133000     -2.856000
H           6.413000    -13.568000    -19.768000
C           7.344000    -15.577000    -19.778000
H           8.041000    -13.575000    -19.217000
H           6.365000    -16.064000    -19.864000
H           7.889000    -16.296000    -19.153000
C           8.080000    -15.701000    -21.124000
H           9.151000    -15.467000    -21.166000
C           7.433000    -14.842000    -22.167000
H           8.026000    -16.695000    -21.586000
H           7.639000    -13.821000    -21.821000
H           6.347000    -14.970000    -22.246000
C           8.126000    -15.058000    -23.595000
H           9.187000    -14.794000    -23.693000
C           7.292000    -14.225000    -24.640000
H           8.021000    -16.133000    -23.786000
H           6.207000    -14.384000    -24.598000
H           7.660000    -14.562000    -25.617000
H           7.499000    -13.176000    -24.397000
$end

--------------------------------------------------------------

             Standard Nuclear Orientation (Angstroms)
    I     Atom           X                Y                Z
 ----------------------------------------------------------------
    1      C       5.4005836744    -3.2192911728    -1.6538793932
    2      C       6.3284516042    -2.2256572688    -1.7336589014
    3      N       4.1034923997    -2.9392306672    -1.3393347411
    4      C       5.9403381909    -0.8725617009    -1.6827731238
    5      C       3.7529080777    -1.6631360560    -1.2843968083
    6      C       4.6219448263    -0.5847588463    -1.4514887683
    7      C       4.2589469623     0.8635107342    -1.1501371916
    8      C       3.5115570104     1.1244877853     0.0737419849
    9      C       4.6531908449     1.9342768372    -1.9777462260
   10      N       3.2967273812     2.3918025474     0.4463363007
   11      N       5.2958456356     1.8089787695    -3.1100625309
   12      C       4.2257016330     3.2140752396    -1.6041220528
   13      C       3.5898181405     3.4462556591    -0.3992708434
   14      S       5.3994696767     3.3449132037    -3.7066574287
   15      N       4.5650941854     4.1088747233    -2.5618044529
   16      C       3.2071073289     4.7813107717    -0.0453085839
   17      S       3.0593608808     6.3154895383    -1.0316916226
   18      C       2.7871204470     5.0695300922     1.2934578790
   19      C       2.4080736438     7.1973509945     0.3856761162
   20      S       2.7027275899     4.1540335846     2.7507268968
   21      C       2.3887734823     6.3811176622     1.5336010489
   22      C       2.2213155267     8.7005020966     0.4044156441
   23      C       2.1058153277     5.4982817795     3.7040398264
   24      C       2.0305199062     6.5713337042     2.8962705732
   25      N       1.4777512567     9.2108241375     1.3475129832
   26      S       2.6610770354     9.8023212639    -0.9503497741
   27      C       1.3108371157    10.5278420169     1.1386791382
   28      C       1.8100140787    11.0458740431    -0.0645561586
   29      C       5.8092811697    -4.6241161715    -1.6094375171
   30      H       7.3923660462    -2.4223338569    -1.8318850685
   31      H       6.6976081155    -0.0947555248    -1.7236976126
   32      H       2.7022459555    -1.5542676976    -1.0187696531
   33      H       3.2185048731     0.4229755268     0.8535406742
   34      H       1.7364617574     5.3010641373     4.7016710918
   35      H       1.7550724463     7.5402855390     3.2996389393
   36      H       0.8565628592    11.1542743486     1.8951627360
   37      H       1.7844661460    12.0565849765    -0.4504003140
   38      H       4.9396329575    -5.2789816435    -1.4685645227
   39      C       6.9143016512    -4.9658346135    -0.5927098044
   40      H       6.2513849542    -4.8414381792    -2.5895963760
   41      H       6.4912273615    -4.7307467781     0.3913546524
   42      H       7.8493798926    -4.4005359837    -0.6884863237
   43      C       7.3344793659    -6.5318166057    -0.7578070130
   44      H       6.5262642422    -7.2722949531    -0.7925939492
   45      C       8.5856488735    -6.8983575836     0.0607054029
   46      H       7.7656078874    -6.5490918195    -1.7664232754
   47      H       8.3094292514    -6.5829337173     1.0750325222
   48      H       9.4516741619    -6.2732504015    -0.1898504005
   49      C       8.8997638355    -8.3870601575     0.0296178359
   50      H       8.0923755113    -9.0164945317     0.4245931041
   51      C       9.9295057947    -8.5826837200     1.1866610154
   52      H       9.1734620749    -8.6452919056    -1.0013737441
   53      H       9.4443690153    -8.3087514519     2.1317850378
   54      H      10.8632903139    -8.0278762456     1.0412129555
   55      H      10.0804301950    -9.6465127709     1.4070596903
   56      C      -9.7556707433    -1.2386378267    -0.5639264819
   57      C      -9.0930460569    -2.0637835346    -1.5307481230
   58      N      -9.1317832817    -0.6198661713     0.3936084124
   59      C      -7.7760921907    -2.3292368453    -1.3824914059
   60      C      -7.8249990488    -0.8821524958     0.5368105517
   61      C      -7.1023092596    -1.7288709702    -0.2632633783
   62      C      -5.6315431722    -2.0331081356    -0.1142235736
   63      C      -5.1516409347    -3.3185731023    -0.1782209315
   64      C      -4.6613096100    -1.1108710778     0.3941853604
   65      N      -3.8601596310    -3.7203415604     0.0047248209
   66      N      -4.9131563597     0.2260215820     0.5243860934
   67      C      -3.3212289450    -1.4568988141     0.6201203442
   68      C      -2.9433146045    -2.7731605297     0.3461443466
   69      S      -3.4306170993     0.9174739640     1.0179860781
   70      N      -2.5203816301    -0.4086959869     0.9371241471
   71      C      -1.5598028404    -3.1172307745     0.6406352044
   72      S      -0.2251873328    -2.0913751460     1.4061433209
   73      C      -0.9398786355    -4.3018319787     0.2162639435
   74      C       1.0051912308    -3.3355684491     1.1011046107
   75      S      -1.7434359659    -5.6957468107    -0.4547368447
   76      C       0.4077668440    -4.4444982794     0.5170046763
   77      C       2.3515687926    -3.2635504959     1.5478113106
   78      C      -0.1802495243    -6.5627194253    -0.3969126763
   79      C       0.8398605969    -5.7256863836     0.0691452895
   80      N       2.7566336800    -2.1353342371     2.1679786351
   81      S       3.5554698761    -4.5349432065     1.5718062390
   82      C       4.0214827463    -2.2677454226     2.6498397328
   83      C       4.5566318083    -3.4791207671     2.4643289344
   84      C     -11.2326760494    -0.8490644109    -0.8121418708
   85      H      -9.5493297974    -2.3316321818    -2.4797956720
   86      H      -7.1992994653    -2.8059636619    -2.1692154327
   87      H      -7.3877044363    -0.4503713865     1.4356628730
   88      H      -5.7746280963    -4.1850781350    -0.3957778779
   89      H      -0.0513230420    -7.6010765779    -0.6688637490
   90      H       1.8583102577    -6.0966608091     0.0489397448
   91      H       4.4315637718    -1.4042801473     3.1581332217
   92      H       5.5972947943    -3.7200359683     2.6376102532
   93      H     -11.2770869758     0.1089536781    -1.3451887830
   94      C     -12.1594052501    -0.8770492334     0.4302702340
   95      H     -11.5724410358    -1.5697806785    -1.5657583620
   96      H     -11.8785359729    -0.0356098352     1.0753269667
   97      H     -12.0369685475    -1.7253368808     1.1158563491
   98      C     -13.6838173097    -0.8536432733     0.2195380971
   99      H     -14.1723642488    -1.7344229134    -0.2153298297
  100      C     -14.0855261988     0.3036944341    -0.6427486299
  101      H     -14.2694856358    -0.6702803711     1.1293549236
  102      H     -13.6646839178     0.0494977930    -1.6240074347
  103      H     -13.6704348959     1.2675398853    -0.3253810884
  104      C     -15.6798528227     0.3963670093    -0.7677422705
  105      H     -16.2050958876    -0.4451165331    -1.2378977455
  106      C     -16.0010193103     1.7135267307    -1.5698721575
  107      H     -16.0272860556     0.4812869964     0.2691809400
  108      H     -15.4896093044     2.6134023375    -1.2052439932
  109      H     -17.0830080795     1.8507370683    -1.4515690444
  110      H     -15.6626876212     1.5123382274    -2.5932752327
 ----------------------------------------------------------------

   10   -5663.5053114746      4.12E-06 Convergence criterion met
 Total energy in the final basis set = -5663.5053114746

                    Orbital Energies (a.u.)
 --------------------------------------------------------------

 Alpha MOs
 -- Occupied --
-88.987 -88.983 -88.933 -88.929 -88.926 -88.922 -88.908 -88.900
-14.383 -14.382 -14.375 -14.374 -14.347 -14.347 -14.341 -14.338
-14.323 -14.323 -10.277 -10.264 -10.257 -10.253 -10.253 -10.250
-10.247 -10.246 -10.245 -10.245 -10.240 -10.238 -10.237 -10.234
-10.234 -10.233 -10.229 -10.227 -10.226 -10.226 -10.221 -10.220
-10.220 -10.220 -10.218 -10.217 -10.217 -10.215 -10.211 -10.209
-10.207 -10.205 -10.203 -10.202 -10.201 -10.195 -10.193 -10.191
-10.189 -10.186 -10.185 -10.185 -10.181 -10.179 -10.179 -10.176
-10.176 -10.170 -10.169 -10.168  -8.043  -8.038  -7.990  -7.990
 -7.987  -7.978  -7.967  -7.961  -6.008  -6.003  -6.002  -6.000
 -5.997  -5.995  -5.954  -5.953  -5.951  -5.951  -5.950  -5.947
 -5.947  -5.946  -5.944  -5.943  -5.939  -5.935  -5.931  -5.928
 -5.925  -5.923  -5.921  -5.917  -1.041  -1.022  -0.978  -0.966
 -0.950  -0.948  -0.946  -0.939  -0.908  -0.905  -0.904  -0.890
 -0.842  -0.835  -0.826  -0.825  -0.811  -0.808  -0.808  -0.807
 -0.806  -0.801  -0.796  -0.794  -0.788  -0.779  -0.764  -0.760
 -0.746  -0.745  -0.738  -0.733  -0.728  -0.718  -0.711  -0.707
 -0.693  -0.690  -0.671  -0.671  -0.651  -0.650  -0.642  -0.641
 -0.631  -0.630  -0.625  -0.623  -0.607  -0.606  -0.597  -0.596
 -0.594  -0.591  -0.582  -0.582  -0.579  -0.575  -0.574  -0.559
 -0.546  -0.539  -0.538  -0.537  -0.520  -0.515  -0.512  -0.510
 -0.509  -0.500  -0.498  -0.492  -0.490  -0.483  -0.479  -0.476
 -0.472  -0.469  -0.468  -0.462  -0.462  -0.459  -0.457  -0.451
 -0.444  -0.442  -0.438  -0.435  -0.434  -0.431  -0.430  -0.428
 -0.424  -0.424  -0.422  -0.420  -0.417  -0.413  -0.413  -0.408
 -0.407  -0.406  -0.404  -0.403  -0.401  -0.399  -0.394  -0.393
 -0.393  -0.391  -0.389  -0.388  -0.386  -0.382  -0.380  -0.378
 -0.375  -0.373  -0.371  -0.371  -0.364  -0.360  -0.357  -0.353
 -0.351  -0.348  -0.348  -0.346  -0.345  -0.341  -0.339  -0.339
 -0.336  -0.335  -0.333  -0.332  -0.330  -0.328  -0.327  -0.315
 -0.310  -0.309  -0.306  -0.302  -0.300  -0.297  -0.295  -0.294
 -0.294  -0.290  -0.289  -0.288  -0.287  -0.281  -0.279  -0.278
 -0.276  -0.267  -0.261  -0.259  -0.253  -0.252  -0.250  -0.248
 -0.246  -0.242  -0.231  -0.230  -0.190  -0.188

          Ground-State Mulliken Net Atomic Charges

     Atom                 Charge (a.u.)
  ----------------------------------------
      1 C                     0.269856
      2 C                    -0.112472
      3 N                    -0.484862
      4 C                    -0.053564
      5 C                     0.069279
      6 C                     0.048394
      7 C                    -0.051484
      8 C                     0.069961
      9 C                     0.273887
     10 N                    -0.517631
     11 N                    -0.575460
     12 C                     0.212631
     13 C                     0.305394
     14 S                     0.595695
     15 N                    -0.566749
     16 C                    -0.213311
     17 S                     0.332370
     18 C                    -0.128699
     19 C                    -0.242108
     20 S                     0.277942
     21 C                     0.164542
     22 C                     0.047415
     23 C                    -0.314221
     24 C                    -0.053152
     25 N                    -0.399880
     26 S                     0.266195
     27 C                     0.125526
     28 C                    -0.314559
     29 C                    -0.226639
     30 H                     0.081714
     31 H                     0.103066
     32 H                     0.108909
     33 H                     0.149771
     34 H                     0.143371
     35 H                     0.115637
     36 H                     0.113158
     37 H                     0.140305
     38 H                     0.114605
     39 C                    -0.189470
     40 H                     0.106211
     41 H                     0.093523
     42 H                     0.095647
     43 C                    -0.189275
     44 H                     0.095873
     45 C                    -0.170064
     46 H                     0.092927
     47 H                     0.086589
     48 H                     0.092248
     49 C                    -0.173189
     50 H                     0.099176
     51 C                    -0.321902
     52 H                     0.098055
     53 H                     0.105848
     54 H                     0.103941
     55 H                     0.092737
     56 C                     0.268892
     57 C                    -0.121533
     58 N                    -0.468385
     59 C                    -0.073192
     60 C                     0.081768
     61 C                     0.042323
     62 C                     0.051814
     63 C                     0.046901
     64 C                     0.194435
     65 N                    -0.521159
     66 N                    -0.566443
     67 C                     0.227313
     68 C                     0.304897
     69 S                     0.600896
     70 N                    -0.556893
     71 C                    -0.214951
     72 S                     0.365243
     73 C                    -0.158793
     74 C                    -0.237355
     75 S                     0.296627
     76 C                     0.182783
     77 C                     0.073311
     78 C                    -0.305358
     79 C                    -0.097869
     80 N                    -0.448630
     81 S                     0.307665
     82 C                     0.132094
     83 C                    -0.319174
     84 C                    -0.226754
     85 H                     0.092763
     86 H                     0.105679
     87 H                     0.106624
     88 H                     0.111322
     89 H                     0.128664
     90 H                     0.112388
     91 H                     0.116361
     92 H                     0.131257
     93 H                     0.124389
     94 C                    -0.175362
     95 H                     0.091802
     96 H                     0.116114
     97 H                     0.092660
     98 C                    -0.181639
     99 H                     0.087856
    100 C                    -0.165835
    101 H                     0.086919
    102 H                     0.088522
    103 H                     0.091771
    104 C                    -0.192934
    105 H                     0.095041
    106 C                    -0.315018
    107 H                     0.091551
    108 H                     0.103196
    109 H                     0.096236
    110 H                     0.105499
  ----------------------------------------
  Sum of atomic charges =     0.000000

                    Cartesian Multipole Moments
 -----------------------------------------------------------------
    Charge (ESU x 10^10)
                 0.0000
    Dipole Moment (Debye)
         X       3.9901      Y       0.4530      Z      -1.2256
       Tot       4.1986
    Quadrupole Moments (Debye-Ang)
        XX    -417.4640     XY      -2.4670     YY    -386.4688
        XZ       8.8280     YZ       3.7898     ZZ    -436.8676

 Total job time:  90.91s(wall), 1072.16s(cpu)
        *  Thank you very much for using Q-Chem.  Have a nice day.  *
