 Q-Chem 4.4, Q-Chem, Inc., Pleasanton, CA (2016)
 Q-Chem 4.4.2 for Intel X86 Linux

User input:
--------------------------------------------------------------
$comment
SP
$end

$rem
MEM_STATIC 5000
MEM_TOTAL 20000
JOBTYPE SP
EXCHANGE B3LYP
BASIS 6-31g(d,p)
$end

$molecule
0 1
C          15.532000    -24.923000    -11.151000
C          15.703000    -23.914000    -10.166000
N          14.803000    -26.001000    -10.848000
C          15.246000    -24.082000     -8.848000
C          14.333000    -26.134000     -9.572000
C          14.514000    -25.217000     -8.470000
C          13.851000    -25.355000     -7.166000
C          12.531000    -25.944000     -7.053000
C          14.396000    -24.897000     -5.929000
N          11.965000    -26.220000     -5.841000
N          15.605000    -24.206000     -5.859000
C          13.781000    -25.090000     -4.730000
C          12.546000    -25.770000     -4.696000
S          15.731000    -23.821000     -4.298000
N          14.368000    -24.515000     -3.623000
C          11.740000    -25.948000     -3.503000
S          12.289000    -26.030000     -1.750000
C          10.401000    -26.176000     -3.515000
C          10.708000    -26.256000     -1.136000
S           9.264000    -26.292000     -4.804000
C           9.942000    -26.503000     -2.232000
C          10.348000    -26.485000      0.280000
C           8.074000    -26.750000     -3.556000
C           8.546000    -26.821000     -2.282000
N           9.437000    -27.390000      0.516000
S          11.120000    -25.779000      1.662000
C           9.279000    -27.590000      1.860000
C           9.952000    -26.640000      2.625000
C          15.828000    -24.710000    -12.633000
H          16.229000    -22.991000    -10.393000
H          15.423000    -23.283000     -8.133000
H          13.723000    -27.035000     -9.530000
H          12.021000    -26.335000     -7.932000
H           7.020000    -26.851000     -3.779000
H           7.917000    -27.060000     -1.433000
H           8.540000    -28.276000      2.252000
H           9.946000    -26.355000      3.669000
H          16.887000    -24.480000    -12.805000
C          15.171000    -23.473000    -13.262000
H          15.600000    -25.612000    -13.214000
H          15.579000    -23.379000    -14.276000
H          15.590000    -22.608000    -12.735000
C          13.633000    -23.518000    -13.283000
H          13.240000    -23.587000    -12.262000
C          13.098000    -24.678000    -14.110000
H          13.249000    -22.546000    -13.616000
H          12.009000    -24.559000    -14.177000
H          13.257000    -25.652000    -13.631000
C          13.609000    -24.859000    -15.565000
H          13.294000    -23.967000    -16.121000
C          13.007000    -26.099000    -16.254000
H          14.701000    -24.882000    -15.665000
H          11.920000    -25.953000    -16.223000
H          13.188000    -26.980000    -15.625000
H          13.317000    -26.181000    -17.303000
C          17.212000    -21.761000     -0.505000
C          17.422000    -21.716000      0.862000
N          17.044000    -22.917000     -1.221000
C          17.478000    -22.956000      1.530000
C          17.050000    -24.076000     -0.498000
C          17.206000    -24.143000      0.880000
C          17.003000    -25.365000      1.754000
C          16.233000    -25.307000      2.972000
C          17.570000    -26.675000      1.478000
N          15.970000    -26.355000      3.745000
N          18.374000    -26.984000      0.462000
C          17.296000    -27.768000      2.341000
C          16.447000    -27.563000      3.437000
S          18.769000    -28.555000      0.622000
N          18.010000    -28.876000      2.023000
C          15.932000    -28.605000      4.278000
S          15.129000    -28.146000      5.778000
C          15.708000    -29.917000      4.068000
C          14.908000    -29.863000      6.242000
S          15.835000    -30.877000      2.601000
C          15.298000    -30.628000      5.138000
C          14.233000    -30.288000      7.359000
C          15.563000    -32.356000      3.606000
C          15.222000    -32.033000      4.921000
N          14.180000    -31.553000      7.633000
S          13.725000    -29.153000      8.576000
C          13.664000    -31.760000      8.842000
C          13.439000    -30.592000      9.600000
C          17.037000    -20.535000     -1.354000
H          17.596000    -20.815000      1.443000
H          17.707000    -23.040000      2.588000
H          16.945000    -24.983000     -1.090000
H          15.742000    -24.388000      3.289000
H          15.679000    -33.331000      3.151000
H          14.993000    -32.802000      5.649000
H          13.557000    -32.769000      9.218000
H          13.202000    -30.554000     10.655000
H          17.548000    -19.650000     -0.954000
C          15.617000    -20.184000     -1.917000
H          17.752000    -20.703000     -2.169000
H          15.313000    -20.811000     -2.764000
H          15.656000    -19.156000     -2.300000
C          14.660000    -20.252000     -0.671000
H          13.628000    -20.276000     -1.044000
C          14.672000    -19.068000      0.223000
H          14.714000    -21.192000     -0.108000
H          14.760000    -18.165000     -0.394000
H          15.619000    -19.110000      0.775000
C          13.553000    -19.107000      1.229000
H          12.570000    -19.129000      0.742000
C          13.589000    -18.039000      2.372000
H          13.595000    -20.090000      1.714000
H          13.291000    -17.095000      1.900000
H          14.531000    -17.946000      2.927000
H          12.783000    -18.234000      3.090000
$end

--------------------------------------------------------------

             Standard Nuclear Orientation (Angstroms)
    I     Atom           X                Y                Z
 ----------------------------------------------------------------
    1      C       9.5660045995    -0.4090797920     2.3055590607
    2      C       8.8668471792     0.7272879286     1.8183277960
    3      N       9.0343553058    -1.6205778264     2.1185950504
    4      C       7.5762213438     0.6237559587     1.2726510747
    5      C       7.7939614794    -1.7091948141     1.5526134386
    6      C       6.9576789162    -0.6225766542     1.0966019814
    7      C       5.6992078275    -0.8045605449     0.3602858927
    8      C       5.5082524017    -1.9293337853    -0.5344270127
    9      C       4.5950527169     0.0983862747     0.4101510381
   10      N       4.2978156714    -2.1991236026    -1.1067314565
   11      N       4.6416423694     1.2917377929     1.1297367232
   12      C       3.4211543658    -0.1276560906    -0.2409576397
   13      C       3.2784461192    -1.3036679000    -1.0060795780
   14      S       3.2282883140     1.9918502688     0.7934409675
   15      N       2.4703572290     0.8691662406    -0.1864320056
   16      C       2.1243223500    -1.6119242486    -1.8292110068
   17      S       0.3829175833    -1.0619284630    -1.6143899780
   18      C       2.1480465657    -2.4648262564    -2.8861141843
   19      C      -0.1839452136    -1.9068767754    -2.9900214399
   20      S       3.4219123644    -3.3786471994    -3.6002172659
   21      C       0.8502952669    -2.7111763064    -3.3539306220
   22      C      -1.5899820830    -1.9949651806    -3.4399078197
   23      C       2.1628751648    -4.1018399716    -4.6371288070
   24      C       0.8904931192    -3.6759696428    -4.4122301782
   25      N      -2.0027456151    -3.1624447997    -3.8537430595
   26      S      -2.7821040779    -0.7413279836    -3.3322838095
   27      C      -3.3425455082    -3.1411828171    -4.1290323154
   28      C      -3.8712686179    -1.8524240804    -4.1146520532
   29      C      11.0349788767    -0.3791515249     2.7185092654
   30      H       9.2959652866     1.7228842748     1.8874621969
   31      H       7.0830769630     1.5310452853     0.9341400742
   32      H       7.5534416183    -2.7643057604     1.4319648274
   33      H       6.2824543129    -2.6867823620    -0.6462530130
   34      H       2.4078058668    -4.7493057052    -5.4687796202
   35      H       0.0431323012    -4.0177964364    -4.9942070569
   36      H      -3.8584517322    -4.0073621182    -4.5214035509
   37      H      -4.8046469777    -1.4051567512    -4.4308067206
   38      H      11.2041147245     0.3012829123     3.5625276549
   39      C      11.9955538899     0.2218777304     1.6824018972
   40      H      11.3749929459    -1.3720611499     3.0373664579
   41      H      12.9764162564     0.2993177175     2.1675905889
   42      H      11.6879766839     1.2663602353     1.5560390890
   43      C      12.0856883717    -0.5752843682     0.3692688637
   44      H      11.1037243050    -0.6227625159    -0.1156470025
   45      C      12.6127670837    -1.9867984311     0.5827403643
   46      H      12.6779112461    -0.0059022601    -0.3575083249
   47      H      12.7657790958    -2.4337051026    -0.4079325136
   48      H      11.8910972002    -2.6391410167     1.0897312225
   49      C      13.9427133374    -2.1801099214     1.3604167943
   50      H      14.7257888868    -1.6892491724     0.7689158145
   51      C      14.3195808259    -3.6647916434     1.5289874931
   52      H      13.9754058099    -1.6836672467     2.3378976755
   53      H      14.3849047911    -4.0682459149     0.5107520437
   54      H      13.4760148887    -4.1975070954     1.9863426687
   55      H      15.2940201480    -3.7917011749     2.0164164401
   56      C       0.0217537419     5.2232791926     0.4775087780
   57      C      -1.2965588065     5.6375201600     0.4049109415
   58      N       0.4233360149     4.0174387619     0.9892670547
   59      C      -2.2636930035     4.7467830126     0.9130435808
   60      C      -0.5733243767     3.1818429762     1.4069915413
   61      C      -1.9282667016     3.4767931413     1.3373876897
   62      C      -3.0757738346     2.5153542661     1.5766191024
   63      C      -4.1950720796     2.4299079546     0.6712692437
   64      C      -3.1773198848     1.6274998473     2.7234268155
   65      N      -5.1970978227     1.5664190694     0.7950971703
   66      N      -2.3194176329     1.5571047568     3.7398918947
   67      C      -4.2771918289     0.7384230894     2.8430856028
   68      C      -5.2367044977     0.7145096088     1.8219070759
   69      S      -2.8997725166     0.4505635916     4.7831660000
   70      N      -4.2939223001     0.0856379351     4.0314355654
   71      C      -6.2894349383    -0.2539838598     1.7121390455
   72      S      -7.5756445870     0.0407793489     0.5441196149
   73      C      -6.4132645716    -1.5185519398     2.1606407659
   74      C      -8.4542899165    -1.4311827867     1.0671261695
   75      S      -5.2522584153    -2.5633781621     2.9670035070
   76      C      -7.6071353537    -2.1090610757     1.9497082746
   77      C      -9.6057211824    -1.8998052586     0.4852859692
   78      C      -6.5887559464    -3.7504762868     3.2427250910
   79      C      -7.7560318178    -3.3812656743     2.5711705037
   80      N     -10.1934220945    -2.9439276790     0.9777552668
   81      S     -10.4602373524    -0.9434761200    -0.6905604042
   82      C     -11.3858222691    -3.1312599170     0.4175102703
   83      C     -11.8040094122    -2.0997267489    -0.4487875057
   84      C       1.1661990754     6.0075924128    -0.0965989219
   85      H      -1.6339699819     6.6030801259     0.0395540599
   86      H      -3.3181713042     4.9992319021     0.9696657633
   87      H      -0.2305035810     2.2428606788     1.8370196185
   88      H      -4.2379230400     3.0316459463    -0.2354866135
   89      H      -6.4073447861    -4.6113071763     3.8729363021
   90      H      -8.6445074921    -4.0004384674     2.6031396855
   91      H     -12.0030573596    -3.9644014437     0.7270293156
   92      H     -12.7994495311    -1.9731086942    -0.8533920506
   93      H       0.9814260145     7.0888232946    -0.1304322821
   94      C       1.8750736995     5.4959375465    -1.3974740371
   95      H       1.8712607573     6.0532429992     0.7427329842
   96      H       2.5466399488     4.6458291783    -1.2263935441
   97      H       2.5075633550     6.3104224176    -1.7737255890
   98      C       0.7061812955     5.2174499987    -2.4119316426
   99      H       1.1145104382     4.6161263897    -3.2343708371
  100      C       0.1483604602     6.4060267759    -3.1028420278
  101      H      -0.0821969685     4.5591880197    -2.0263984016
  102      H       0.9717714414     7.0918139151    -3.3384950691
  103      H      -0.4451705859     6.9454105968    -2.3544684639
  104      C      -0.7729362878     6.0246966985    -4.2304579528
  105      H      -0.2567077175     5.4263490772    -4.9916610710
  106      C      -1.6021569715     7.1764033665    -4.8894980187
  107      H      -1.4965168969     5.3084995441    -3.8220822211
  108      H      -0.8876117703     7.7364842657    -5.5046878609
  109      H      -2.1635084914     7.8284247134    -4.2084762612
  110      H      -2.3024157637     6.7588631746    -5.6233118999
 ----------------------------------------------------------------

   10   -5663.5125928628      3.62E-06 Convergence criterion met
 Total energy in the final basis set = -5663.5125928628

                    Orbital Energies (a.u.)
 --------------------------------------------------------------

 Alpha MOs
 -- Occupied --
-88.991 -88.982 -88.928 -88.928 -88.918 -88.913 -88.907 -88.903
-14.386 -14.385 -14.381 -14.379 -14.350 -14.345 -14.342 -14.340
-14.338 -14.326 -10.270 -10.262 -10.260 -10.259 -10.257 -10.255
-10.251 -10.246 -10.245 -10.240 -10.236 -10.236 -10.235 -10.234
-10.234 -10.234 -10.233 -10.233 -10.232 -10.231 -10.230 -10.230
-10.227 -10.226 -10.226 -10.225 -10.218 -10.216 -10.216 -10.212
-10.208 -10.207 -10.204 -10.204 -10.199 -10.195 -10.195 -10.190
-10.184 -10.181 -10.181 -10.180 -10.179 -10.176 -10.173 -10.172
-10.172 -10.171 -10.170 -10.169  -8.047  -8.037  -7.989  -7.989
 -7.978  -7.973  -7.968  -7.963  -6.012  -6.006  -6.004  -6.001
 -5.996  -5.995  -5.953  -5.953  -5.950  -5.950  -5.946  -5.946
 -5.942  -5.939  -5.937  -5.934  -5.933  -5.932  -5.929  -5.929
 -5.927  -5.924  -5.923  -5.918  -1.041  -1.025  -0.987  -0.976
 -0.968  -0.946  -0.938  -0.931  -0.921  -0.909  -0.904  -0.892
 -0.844  -0.837  -0.833  -0.829  -0.817  -0.812  -0.810  -0.807
 -0.805  -0.802  -0.799  -0.792  -0.787  -0.775  -0.770  -0.761
 -0.750  -0.745  -0.741  -0.734  -0.725  -0.715  -0.713  -0.707
 -0.696  -0.689  -0.678  -0.665  -0.658  -0.649  -0.649  -0.640
 -0.638  -0.636  -0.631  -0.619  -0.614  -0.609  -0.602  -0.598
 -0.598  -0.591  -0.586  -0.582  -0.581  -0.569  -0.568  -0.554
 -0.551  -0.547  -0.544  -0.530  -0.529  -0.520  -0.510  -0.509
 -0.509  -0.505  -0.499  -0.494  -0.488  -0.482  -0.477  -0.474
 -0.473  -0.470  -0.470  -0.466  -0.462  -0.461  -0.452  -0.445
 -0.444  -0.444  -0.441  -0.439  -0.436  -0.435  -0.433  -0.429
 -0.428  -0.426  -0.425  -0.420  -0.419  -0.418  -0.416  -0.412
 -0.410  -0.408  -0.407  -0.403  -0.400  -0.399  -0.397  -0.394
 -0.393  -0.391  -0.389  -0.388  -0.388  -0.381  -0.380  -0.379
 -0.378  -0.376  -0.376  -0.368  -0.363  -0.361  -0.354  -0.351
 -0.350  -0.349  -0.348  -0.345  -0.343  -0.342  -0.342  -0.339
 -0.337  -0.334  -0.330  -0.328  -0.326  -0.324  -0.318  -0.314
 -0.313  -0.311  -0.310  -0.306  -0.304  -0.303  -0.302  -0.299
 -0.298  -0.296  -0.293  -0.289  -0.287  -0.286  -0.283  -0.281
 -0.278  -0.273  -0.267  -0.262  -0.259  -0.251  -0.250  -0.249
 -0.245  -0.238  -0.237  -0.226  -0.191  -0.189

          Ground-State Mulliken Net Atomic Charges

     Atom                 Charge (a.u.)
  ----------------------------------------
      1 C                     0.283525
      2 C                    -0.124439
      3 N                    -0.475508
      4 C                    -0.066751
      5 C                     0.044538
      6 C                     0.048084
      7 C                     0.019983
      8 C                     0.056951
      9 C                     0.209988
     10 N                    -0.523114
     11 N                    -0.539707
     12 C                     0.210851
     13 C                     0.269928
     14 S                     0.632914
     15 N                    -0.559909
     16 C                    -0.220609
     17 S                     0.291291
     18 C                    -0.063731
     19 C                    -0.196068
     20 S                     0.282803
     21 C                     0.094926
     22 C                     0.057436
     23 C                    -0.313946
     24 C                    -0.039524
     25 N                    -0.412498
     26 S                     0.277016
     27 C                     0.117789
     28 C                    -0.305868
     29 C                    -0.229156
     30 H                     0.086887
     31 H                     0.115110
     32 H                     0.100803
     33 H                     0.119569
     34 H                     0.113382
     35 H                     0.118758
     36 H                     0.118302
     37 H                     0.139864
     38 H                     0.099148
     39 C                    -0.182019
     40 H                     0.120187
     41 H                     0.097740
     42 H                     0.084384
     43 C                    -0.175256
     44 H                     0.101365
     45 C                    -0.178154
     46 H                     0.086168
     47 H                     0.085727
     48 H                     0.109911
     49 C                    -0.179267
     50 H                     0.087593
     51 C                    -0.317503
     52 H                     0.091406
     53 H                     0.100953
     54 H                     0.106452
     55 H                     0.101082
     56 C                     0.260448
     57 C                    -0.107456
     58 N                    -0.486396
     59 C                    -0.094728
     60 C                     0.086523
     61 C                     0.073039
     62 C                    -0.001453
     63 C                     0.064054
     64 C                     0.237604
     65 N                    -0.515247
     66 N                    -0.556045
     67 C                     0.212276
     68 C                     0.304649
     69 S                     0.612648
     70 N                    -0.544451
     71 C                    -0.228864
     72 S                     0.295597
     73 C                    -0.106418
     74 C                    -0.211884
     75 S                     0.255363
     76 C                     0.144562
     77 C                     0.073047
     78 C                    -0.304408
     79 C                    -0.043128
     80 N                    -0.427897
     81 S                     0.259741
     82 C                     0.132407
     83 C                    -0.319170
     84 C                    -0.228229
     85 H                     0.100794
     86 H                     0.100843
     87 H                     0.115565
     88 H                     0.113414
     89 H                     0.132376
     90 H                     0.131250
     91 H                     0.112832
     92 H                     0.132295
     93 H                     0.094154
     94 C                    -0.179104
     95 H                     0.110407
     96 H                     0.110091
     97 H                     0.096374
     98 C                    -0.185338
     99 H                     0.084049
    100 C                    -0.150993
    101 H                     0.104609
    102 H                     0.086685
    103 H                     0.082731
    104 C                    -0.181333
    105 H                     0.094706
    106 C                    -0.323707
    107 H                     0.092391
    108 H                     0.105236
    109 H                     0.102941
    110 H                     0.100765
  ----------------------------------------
  Sum of atomic charges =     0.000000

                    Cartesian Multipole Moments
 -----------------------------------------------------------------
    Charge (ESU x 10^10)
                 0.0000
    Dipole Moment (Debye)
         X      -4.6857      Y       2.5284      Z      -1.3554
       Tot       5.4942
    Quadrupole Moments (Debye-Ang)
        XX    -401.6123     XY      27.2261     YY    -428.1351
        XZ       8.2621     YZ      -0.7994     ZZ    -436.1072

 Total job time:  90.32s(wall), 1062.92s(cpu)
        *  Thank you very much for using Q-Chem.  Have a nice day.  *
