 Q-Chem 4.4, Q-Chem, Inc., Pleasanton, CA (2016)
 Q-Chem 4.4.2 for Intel X86 Linux

User input:
--------------------------------------------------------------
$comment
SP
$end

$rem
MEM_STATIC 5000
MEM_TOTAL 20000
JOBTYPE SP
EXCHANGE B3LYP
BASIS 6-31g(d,p)
$end

$molecule
0 1
C          27.043000     25.676000     -2.177000
C          26.603000     24.361000     -2.260000
N          26.261000     26.728000     -1.807000
C          25.238000     24.133000     -1.970000
C          24.999000     26.475000     -1.513000
C          24.366000     25.206000     -1.596000
C          22.865000     25.049000     -1.475000
C          22.329000     23.924000     -0.789000
C          21.838000     25.894000     -1.978000
N          21.017000     23.662000     -0.579000
N          22.126000     27.063000     -2.597000
C          20.451000     25.652000     -1.787000
C          20.119000     24.431000     -1.157000
S          20.662000     27.686000     -3.033000
N          19.657000     26.579000     -2.395000
C          18.702000     24.023000     -1.121000
S          17.390000     24.570000     -2.169000
C          18.241000     22.945000     -0.315000
C          16.359000     23.285000     -1.685000
S          19.059000     22.055000      0.948000
C          16.971000     22.512000     -0.718000
C          15.005000     23.167000     -2.143000
C          17.592000     21.062000      0.984000
C          16.585000     21.362000      0.028000
N          14.136000     22.731000     -1.298000
S          14.481000     23.420000     -3.773000
C          12.836000     22.601000     -1.875000
C          12.859000     22.973000     -3.210000
C          28.518000     25.987000     -2.519000
H          27.233000     23.595000     -2.701000
H          24.906000     23.104000     -2.071000
H          24.397000     27.370000     -1.357000
H          22.980000     23.235000     -0.254000
H          17.571000     20.253000      1.702000
H          15.643000     20.860000     -0.161000
H          11.978000     22.347000     -1.266000
H          12.054000     23.101000     -3.922000
H          29.074000     25.053000     -2.375000
C          29.328000     26.972000     -1.576000
H          28.511000     26.284000     -3.575000
H          29.225000     26.478000     -0.602000
H          28.820000     27.940000     -1.487000
C          30.812000     27.082000     -1.909000
H          31.164000     27.977000     -1.381000
C          31.198000     27.283000     -3.391000
H          31.373000     26.226000     -1.513000
H          30.643000     28.151000     -3.768000
H          30.850000     26.359000     -3.869000
C          32.680000     27.452000     -3.577000
H          33.039000     28.468000     -3.370000
C          33.296000     27.056000     -4.925000
H          33.169000     26.824000     -2.822000
H          34.237000     27.592000     -5.103000
H          32.617000     27.414000     -5.708000
H          33.410000     25.972000     -5.048000
C          14.422000      9.170000      3.257000
C          15.598000      9.379000      4.028000
N          13.856000     10.141000      2.544000
C          16.209000     10.639000      4.023000
C          14.424000     11.354000      2.502000
C          15.620000     11.629000      3.177000
C          16.181000     13.001000      3.334000
C          17.597000     13.216000      3.338000
C          15.390000     14.192000      3.343000
N          18.159000     14.434000      3.365000
N          14.005000     14.202000      3.374000
C          15.992000     15.443000      3.343000
C          17.399000     15.513000      3.468000
S          13.610000     15.797000      3.176000
N          15.101000     16.474000      3.269000
C          18.164000     16.798000      3.445000
S          19.760000     16.903000      2.712000
C          17.793000     17.990000      3.931000
C          19.848000     18.660000      3.113000
S          16.519000     18.439000      5.109000
C          18.679000     19.013000      3.731000
C          21.001000     19.587000      2.944000
C          17.106000     20.095000      5.033000
C          18.327000     20.236000      4.416000
N          22.015000     19.088000      2.205000
S          21.263000     21.157000      3.638000
C          23.006000     20.007000      2.074000
C          22.738000     21.145000      2.805000
C          13.659000      7.840000      3.251000
H          15.962000      8.602000      4.692000
H          17.115000     10.762000      4.609000
H          14.080000     12.054000      1.742000
H          18.275000     12.366000      3.277000
H          16.575000     20.822000      5.633000
H          18.972000     21.107000      4.433000
H          23.914000     19.835000      1.510000
H          23.324000     22.052000      2.866000
H          13.242000      7.808000      2.237000
C          12.583000      7.633000      4.366000
H          14.323000      6.976000      3.375000
H          11.834000      8.430000      4.287000
H          13.149000      7.685000      5.304000
C          11.917000      6.188000      4.372000
H          12.674000      5.401000      4.262000
C          10.911000      6.071000      3.258000
H          11.470000      5.998000      5.356000
H          11.304000      5.441000      2.450000
H          10.570000      7.057000      2.917000
C           9.541000      5.509000      3.720000
H           9.233000      6.163000      4.546000
C           9.503000      4.042000      4.239000
H           8.797000      5.581000      2.917000
H          10.085000      3.386000      3.580000
H           8.460000      3.707000      4.182000
H           9.806000      3.878000      5.280000
$end

--------------------------------------------------------------

             Standard Nuclear Orientation (Angstroms)
    I     Atom           X                Y                Z
 ----------------------------------------------------------------
    1      C     -10.1736028695     2.4841342119    -0.9601654979
    2      C      -8.9393970029     2.7691152171    -1.5304599004
    3      N     -10.4130181804     1.4335607677    -0.1270366079
    4      C      -7.8868984989     1.8713335215    -1.2379809676
    5      C      -9.4005036872     0.6327632521     0.1497787456
    6      C      -8.0886148259     0.7387275989    -0.3846912469
    7      C      -7.0585127290    -0.3562139631    -0.2050147434
    8      C      -5.6954730589    -0.0105334498     0.0097987580
    9      C      -7.2441164885    -1.7657447888    -0.2281900723
   10      N      -4.6706595040    -0.8727183396     0.2110011274
   11      N      -8.4768980564    -2.3133991451    -0.3421651211
   12      C      -6.1961027539    -2.7043594813    -0.0294850869
   13      C      -4.8949470199    -2.1625501116     0.0772920773
   14      S      -8.2194543217    -3.9428347382    -0.3557065928
   15      N      -6.6098379336    -3.9993489644    -0.1355720313
   16      C      -3.7468998634    -3.0886103974     0.0702868262
   17      S      -3.6933654455    -4.7434000079    -0.5442556142
   18      C      -2.4294994003    -2.6696263885     0.4066637280
   19      C      -1.9766361320    -4.7777558609    -0.5341492120
   20      S      -1.8727840219    -1.1744249514     1.1213900041
   21      C      -1.4723520823    -3.5981695575    -0.0228413301
   22      C      -1.2257143240    -5.9502165955    -0.8783239700
   23      C      -0.2503387873    -1.8448495239     0.8813142797
   24      C      -0.1609094141    -3.1005158042     0.2230669252
   25      N      -0.1476455686    -6.1734116005    -0.2095685974
   26      S      -1.5730570637    -6.9976969068    -2.2115992673
   27      C       0.5472404005    -7.3324820930    -0.6716487673
   28      C      -0.1266631572    -7.9088848895    -1.7368960678
   29      C     -11.3681938113     3.4128435943    -1.2760157227
   30      H      -8.8489556553     3.5306958192    -2.2985434565
   31      H      -6.9384958398     2.0932785851    -1.7181255136
   32      H      -9.6860292147    -0.2583244822     0.7085298736
   33      H      -5.4000026561     1.0264022778     0.1588240512
   34      H       0.5805578561    -1.2337180300     1.2077726464
   35      H       0.7177260197    -3.6642646433    -0.0689536575
   36      H       1.4136674317    -7.7107887948    -0.1446295656
   37      H       0.0446907862    -8.8401797023    -2.2609960560
   38      H     -10.9413268678     4.3779474951    -1.5736515290
   39      C     -12.3241979193     3.8554265213    -0.0903722273
   40      H     -11.8886371807     2.9351843760    -2.1152858642
   41      H     -11.6127828394     4.3190098012     0.6041060853
   42      H     -12.7391034666     2.9828445093     0.4287260478
   43      C     -13.3685323770     4.8958375570    -0.4804432688
   44      H     -14.1059325820     4.8879278850     0.3318937146
   45      C     -14.1658041009     4.6540905535    -1.7810728028
   46      H     -12.9327114265     5.9022910928    -0.5176505178
   47      H     -14.6088899518     3.6521962203    -1.7222453111
   48      H     -13.3945358069     4.6951347373    -2.5600622723
   49      C     -15.2123185337     5.7078242800    -2.0133092675
   50      H     -16.1366292838     5.5465405385    -1.4444303769
   51      C     -15.6516701865     5.9945595608    -3.4548809806
   52      H     -14.8064927977     6.6501992692    -1.6250247693
   53      H     -16.6593383036     6.4284814690    -3.4827690327
   54      H     -15.7489933965     5.0269394731    -3.9613724009
   55      H     -14.9280438368     6.5975320867    -4.0169931037
   56      C      11.2932975346     2.3064483086    -1.5978548904
   57      C      10.6655310322     3.3845935725    -0.9162318213
   58      N      10.6832695888     1.1411916655    -1.8018373921
   59      C       9.3484616599     3.2386179332    -0.4635007960
   60      C       9.4166169658     0.9730235891    -1.3980210592
   61      C       8.6998078525     2.0046657115    -0.7786946295
   62      C       7.3724905733     1.8110334104    -0.1287028048
   63      C       6.3832134348     2.8461232147    -0.1635860423
   64      C       6.9305013836     0.5728802004     0.4333160426
   65      N       5.1357635130     2.6916065316     0.3055517704
   66      N       7.7403394078    -0.5403699716     0.5886300120
   67      C       5.6269496657     0.4257189391     0.8877403839
   68      C       4.7874807441     1.5637758418     0.9048405556
   69      S       6.7011599345    -1.7264426177     1.0912150304
   70      N       5.3416524482    -0.8374656458     1.3181915448
   71      C       3.3563786220     1.5239385007     1.3376669670
   72      S       2.1373840819     2.5353865699     0.5717981047
   73      C       2.8032309371     0.7695336476     2.2966257546
   74      C       0.8622212800     1.8396127998     1.6420563396
   75      S       3.5383918288    -0.1267906425     3.6635574392
   76      C       1.4508353141     0.9059699540     2.4513390809
   77      C      -0.5642505798     2.2495234133     1.7622658322
   78      C       1.9138972692    -0.5141236351     4.2146214814
   79      C       0.9192539569     0.2118439806     3.6021945860
   80      N      -0.9854548516     3.0950910366     0.7974236918
   81      S      -1.7158734146     1.8780449452     3.0076366984
   82      C      -2.3005069096     3.3899000597     0.9633415168
   83      C      -2.8034441615     2.8205799235     2.1140620316
   84      C      12.7492807589     2.3618318152    -2.0755059322
   85      H      11.2320132048     4.2737603152    -0.6601040175
   86      H       8.8914990141     4.0860310979     0.0389303622
   87      H       8.8699197432     0.1097052448    -1.7745042370
   88      H       6.6169710719     3.8047163148    -0.6244131635
   89      H       1.8402764356    -1.1276391397     5.1026916917
   90      H      -0.1154073787     0.2968242694     3.9139785998
   91      H      -2.8592084283     4.0378019698     0.2998509533
   92      H      -3.8186155580     2.8531412787     2.4857242357
   93      H      12.7304834506     1.7325758431    -2.9737222663
   94      C      13.8502601851     1.9379965813    -1.0498071472
   95      H      13.0541620352     3.3725766569    -2.3725080743
   96      H      13.6587189057     0.9062699461    -0.7315256860
   97      H      13.7453542326     2.6542144077    -0.2258345953
   98      C      15.3405169943     2.1334958979    -1.5718527964
   99      H      15.4663513950     3.1090341483    -2.0586883186
  100      C      15.7020502312     1.0414803184    -2.5432006705
  101      H      16.0242627326     2.1687224385    -0.7142888885
  102      H      15.7236313055     1.4311847021    -3.5688115863
  103      H      15.0543867752     0.1635406283    -2.4227351227
  104      C      17.0602728183     0.3610576848    -2.2294420955
  105      H      16.9758846026     0.0332859834    -1.1852676173
  106      C      18.3456023547     1.2307578887    -2.3496233687
  107      H      17.2129039892    -0.5204051371    -2.8644665196
  108      H      18.3187338285     1.8315293051    -3.2670615342
  109      H      19.1934312054     0.5412296601    -2.4448077261
  110      H      18.5877573996     1.8754142438    -1.4962974533
 ----------------------------------------------------------------

   10   -5663.5215287839      5.33E-06 Convergence criterion met
 Total energy in the final basis set = -5663.5215287839

                    Orbital Energies (a.u.)
 --------------------------------------------------------------

 Alpha MOs
 -- Occupied --
-88.992 -88.987 -88.934 -88.924 -88.922 -88.921 -88.909 -88.908
-14.389 -14.388 -14.386 -14.380 -14.350 -14.347 -14.340 -14.339
-14.330 -14.328 -10.269 -10.262 -10.262 -10.259 -10.259 -10.257
-10.256 -10.255 -10.242 -10.240 -10.240 -10.236 -10.235 -10.234
-10.234 -10.233 -10.231 -10.230 -10.230 -10.230 -10.228 -10.228
-10.228 -10.224 -10.223 -10.223 -10.223 -10.222 -10.218 -10.217
-10.217 -10.217 -10.206 -10.203 -10.202 -10.200 -10.200 -10.193
-10.187 -10.186 -10.185 -10.180 -10.179 -10.178 -10.176 -10.174
-10.174 -10.173 -10.171 -10.171  -8.047  -8.042  -7.995  -7.986
 -7.981  -7.979  -7.968  -7.968  -6.012  -6.008  -6.006  -6.005
 -6.002  -6.000  -5.959  -5.956  -5.952  -5.950  -5.946  -5.946
 -5.943  -5.942  -5.942  -5.939  -5.938  -5.935  -5.933  -5.932
 -5.929  -5.929  -5.924  -5.924  -1.032  -1.030  -0.967  -0.967
 -0.964  -0.962  -0.944  -0.939  -0.916  -0.907  -0.900  -0.895
 -0.843  -0.839  -0.833  -0.826  -0.816  -0.809  -0.805  -0.805
 -0.804  -0.801  -0.795  -0.793  -0.783  -0.782  -0.765  -0.764
 -0.749  -0.745  -0.740  -0.738  -0.725  -0.717  -0.709  -0.704
 -0.693  -0.690  -0.674  -0.671  -0.658  -0.656  -0.647  -0.641
 -0.635  -0.634  -0.628  -0.623  -0.612  -0.607  -0.600  -0.594
 -0.593  -0.586  -0.585  -0.582  -0.579  -0.575  -0.556  -0.554
 -0.549  -0.545  -0.544  -0.540  -0.526  -0.517  -0.516  -0.511
 -0.510  -0.506  -0.503  -0.496  -0.484  -0.480  -0.476  -0.476
 -0.473  -0.470  -0.467  -0.466  -0.465  -0.464  -0.452  -0.447
 -0.445  -0.441  -0.437  -0.435  -0.433  -0.433  -0.430  -0.430
 -0.426  -0.424  -0.420  -0.420  -0.419  -0.417  -0.414  -0.413
 -0.411  -0.406  -0.405  -0.404  -0.404  -0.401  -0.400  -0.394
 -0.394  -0.394  -0.390  -0.390  -0.389  -0.386  -0.382  -0.382
 -0.379  -0.378  -0.376  -0.373  -0.366  -0.363  -0.360  -0.356
 -0.354  -0.352  -0.346  -0.345  -0.344  -0.343  -0.342  -0.340
 -0.336  -0.333  -0.332  -0.330  -0.328  -0.327  -0.320  -0.319
 -0.315  -0.312  -0.312  -0.311  -0.302  -0.300  -0.297  -0.297
 -0.295  -0.294  -0.292  -0.289  -0.287  -0.284  -0.281  -0.279
 -0.277  -0.274  -0.268  -0.267  -0.254  -0.251  -0.251  -0.249
 -0.246  -0.242  -0.232  -0.226  -0.194  -0.192

          Ground-State Mulliken Net Atomic Charges

     Atom                 Charge (a.u.)
  ----------------------------------------
      1 C                     0.254640
      2 C                    -0.109800
      3 N                    -0.472525
      4 C                    -0.085312
      5 C                     0.084510
      6 C                     0.029207
      7 C                     0.047795
      8 C                     0.035130
      9 C                     0.187051
     10 N                    -0.517993
     11 N                    -0.549993
     12 C                     0.234526
     13 C                     0.315080
     14 S                     0.606202
     15 N                    -0.555655
     16 C                    -0.242253
     17 S                     0.325719
     18 C                    -0.128161
     19 C                    -0.231138
     20 S                     0.317840
     21 C                     0.171456
     22 C                     0.063438
     23 C                    -0.326279
     24 C                    -0.052654
     25 N                    -0.427476
     26 S                     0.259912
     27 C                     0.110678
     28 C                    -0.303860
     29 C                    -0.232413
     30 H                     0.098659
     31 H                     0.098041
     32 H                     0.114006
     33 H                     0.104853
     34 H                     0.134421
     35 H                     0.114151
     36 H                     0.124170
     37 H                     0.132404
     38 H                     0.094115
     39 C                    -0.182507
     40 H                     0.121560
     41 H                     0.094615
     42 H                     0.116974
     43 C                    -0.187036
     44 H                     0.093976
     45 C                    -0.165028
     46 H                     0.088684
     47 H                     0.094677
     48 H                     0.094628
     49 C                    -0.175196
     50 H                     0.093608
     51 C                    -0.322645
     52 H                     0.090109
     53 H                     0.101187
     54 H                     0.100763
     55 H                     0.103032
     56 C                     0.266610
     57 C                    -0.111781
     58 N                    -0.478685
     59 C                    -0.072601
     60 C                     0.107824
     61 C                     0.013825
     62 C                     0.029138
     63 C                     0.059136
     64 C                     0.202832
     65 N                    -0.504378
     66 N                    -0.550409
     67 C                     0.239516
     68 C                     0.276007
     69 S                     0.614953
     70 N                    -0.548494
     71 C                    -0.244536
     72 S                     0.343431
     73 C                    -0.088628
     74 C                    -0.212072
     75 S                     0.260824
     76 C                     0.107622
     77 C                     0.036388
     78 C                    -0.296159
     79 C                    -0.068681
     80 N                    -0.432299
     81 S                     0.310453
     82 C                     0.136534
     83 C                    -0.321945
     84 C                    -0.218035
     85 H                     0.090765
     86 H                     0.108398
     87 H                     0.111453
     88 H                     0.113059
     89 H                     0.132874
     90 H                     0.112935
     91 H                     0.117734
     92 H                     0.128208
     93 H                     0.120827
     94 C                    -0.180272
     95 H                     0.091057
     96 H                     0.110695
     97 H                     0.086343
     98 C                    -0.178946
     99 H                     0.091563
    100 C                    -0.163382
    101 H                     0.094898
    102 H                     0.092196
    103 H                     0.101723
    104 C                    -0.187091
    105 H                     0.092215
    106 C                    -0.321736
    107 H                     0.091181
    108 H                     0.098970
    109 H                     0.101221
    110 H                     0.102830
  ----------------------------------------
  Sum of atomic charges =     0.000000

                    Cartesian Multipole Moments
 -----------------------------------------------------------------
    Charge (ESU x 10^10)
                 0.0000
    Dipole Moment (Debye)
         X       1.5468      Y      -0.0690      Z       0.1830
       Tot       1.5591
    Quadrupole Moments (Debye-Ang)
        XX    -432.0395     XY      -1.0618     YY    -409.8526
        XZ       9.1338     YZ       3.2170     ZZ    -438.2742

 Total job time:  89.25s(wall), 1050.90s(cpu)
        *  Thank you very much for using Q-Chem.  Have a nice day.  *
