 Q-Chem 4.4, Q-Chem, Inc., Pleasanton, CA (2016)
 Q-Chem 4.4.2 for Intel X86 Linux

User input:
--------------------------------------------------------------
$comment
SP
$end

$rem
MEM_STATIC 5000
MEM_TOTAL 20000
JOBTYPE SP
EXCHANGE B3LYP
BASIS 6-31g(d,p)
$end

$molecule
0 1
C          14.797000     19.737000     15.106000
C          13.550000     20.192000     14.737000
N          15.827000     19.583000     14.242000
C          13.196000     20.298000     13.342000
C          15.517000     19.770000     12.917000
C          14.204000     19.946000     12.422000
C          13.881000     19.999000     10.958000
C          12.660000     19.451000     10.467000
C          14.756000     20.575000      9.991000
N          12.414000     19.309000      9.210000
N          15.794000     21.416000     10.216000
C          14.463000     20.424000      8.646000
C          13.276000     19.761000      8.266000
S          16.277000     22.016000      8.808000
N          15.282000     21.227000      7.896000
C          12.842000     19.701000      6.873000
S          13.502000     20.457000      5.416000
C          11.930000     18.730000      6.468000
C          12.542000     19.392000      4.329000
S          11.290000     17.447000      7.406000
C          11.725000     18.595000      5.084000
C          12.620000     19.383000      2.828000
C          10.524000     16.757000      5.901000
C          10.860000     17.467000      4.759000
N          11.477000     19.537000      2.166000
S          14.092000     19.321000      1.930000
C          11.727000     19.591000      0.841000
C          13.057000     19.584000      0.507000
C          15.154000     19.424000     16.547000
H          12.798000     20.334000     15.508000
H          12.168000     20.429000     13.019000
H          16.298000     19.437000     12.235000
H          11.902000     19.022000     11.121000
H           9.876000     15.892000      5.955000
H          10.588000     17.164000      3.755000
H          10.909000     19.647000      0.134000
H          13.554000     19.584000     -0.454000
H          15.685000     20.257000     17.023000
C          15.951000     18.110000     16.745000
H          14.167000     19.246000     16.991000
H          16.920000     18.383000     16.307000
H          15.589000     17.309000     16.089000
C          16.037000     17.490000     18.183000
H          16.096000     18.306000     18.913000
C          17.279000     16.611000     18.249000
H          15.059000     17.037000     18.386000
H          18.169000     17.159000     17.918000
H          17.106000     15.770000     17.566000
C          17.432000     15.970000     19.659000
H          17.634000     16.811000     20.333000
C          18.601000     14.960000     19.775000
H          16.496000     15.509000     19.998000
H          18.545000     14.097000     19.100000
H          18.570000     14.578000     20.803000
H          19.582000     15.447000     19.717000
C          14.422000      9.170000      3.257000
C          15.598000      9.379000      4.028000
N          13.856000     10.141000      2.544000
C          16.209000     10.639000      4.023000
C          14.424000     11.354000      2.502000
C          15.620000     11.629000      3.177000
C          16.181000     13.001000      3.334000
C          17.597000     13.216000      3.338000
C          15.390000     14.192000      3.343000
N          18.159000     14.434000      3.365000
N          14.005000     14.202000      3.374000
C          15.992000     15.443000      3.343000
C          17.399000     15.513000      3.468000
S          13.610000     15.797000      3.176000
N          15.101000     16.474000      3.269000
C          18.164000     16.798000      3.445000
S          19.760000     16.903000      2.712000
C          17.793000     17.990000      3.931000
C          19.848000     18.660000      3.113000
S          16.519000     18.439000      5.109000
C          18.679000     19.013000      3.731000
C          21.001000     19.587000      2.944000
C          17.106000     20.095000      5.033000
C          18.327000     20.236000      4.416000
N          22.015000     19.088000      2.205000
S          21.263000     21.157000      3.638000
C          23.006000     20.007000      2.074000
C          22.738000     21.145000      2.805000
C          13.659000      7.840000      3.251000
H          15.962000      8.602000      4.692000
H          17.115000     10.762000      4.609000
H          14.080000     12.054000      1.742000
H          18.275000     12.366000      3.277000
H          16.575000     20.822000      5.633000
H          18.972000     21.107000      4.433000
H          23.914000     19.835000      1.510000
H          23.324000     22.052000      2.866000
H          13.242000      7.808000      2.237000
C          12.583000      7.633000      4.366000
H          14.323000      6.976000      3.375000
H          11.834000      8.430000      4.287000
H          13.149000      7.685000      5.304000
C          11.917000      6.188000      4.372000
H          12.674000      5.401000      4.262000
C          10.911000      6.071000      3.258000
H          11.470000      5.998000      5.356000
H          11.304000      5.441000      2.450000
H          10.570000      7.057000      2.917000
C           9.541000      5.509000      3.720000
H           9.233000      6.163000      4.546000
C           9.503000      4.042000      4.239000
H           8.797000      5.581000      2.917000
H          10.085000      3.386000      3.580000
H           8.460000      3.707000      4.182000
H           9.806000      3.878000      5.280000
$end

--------------------------------------------------------------

             Standard Nuclear Orientation (Angstroms)
    I     Atom           X                Y                Z
 ----------------------------------------------------------------
    1      C      -8.5332116879    -3.1271103771    -0.4904575059
    2      C      -8.3184092217    -3.0853000876    -1.8507173341
    3      N      -7.9038888122    -2.3203454160     0.3950903559
    4      C      -7.2111328453    -2.3340218962    -2.3911774209
    5      C      -6.9061868649    -1.5353685978    -0.1294058016
    6      C      -6.4187142061    -1.6430486863    -1.4525631639
    7      C      -5.2299815597    -0.8764645198    -1.9522604834
    8      C      -4.3386663775    -1.4612822422    -2.8987125305
    9      C      -4.9194544956     0.4446222689    -1.5154623158
   10      N      -3.2136993430    -0.9230707553    -3.2235302743
   11      N      -5.7410876623     1.3194535993    -0.8870205263
   12      C      -3.7118897322     1.0093402929    -1.8903701651
   13      C      -2.8476315498     0.2917938593    -2.7454274203
   14      S      -5.0337222184     2.7599838510    -0.8709046134
   15      N      -3.6986923855     2.3413885798    -1.5685888861
   16      C      -1.6337319825     0.8928522485    -3.2909378725
   17      S      -1.0038500078     2.5426289388    -3.1838371262
   18      C      -0.6110532898     0.0817243678    -3.7755096966
   19      C       0.6264491050     2.0455134961    -3.7603742364
   20      S      -0.5222686110    -1.6283179507    -3.7171526078
   21      C       0.6054689275     0.7155693005    -4.0821369884
   22      C       1.8217306658     2.9493839103    -3.8765046153
   23      C       1.1961996398    -1.5386037320    -4.3227095662
   24      C       1.6483899678    -0.2346260008    -4.4504827403
   25      N       2.4306173795     2.9915643172    -5.0579811420
   26      S       2.3596947552     4.0167472967    -2.6321726499
   27      C       3.4230677812     3.9052117831    -5.0214913053
   28      C       3.4985235161     4.6246078496    -3.8564673864
   29      C      -9.5574983420    -4.0503463460     0.1422914142
   30      H      -8.9072781660    -3.7355556589    -2.4914279227
   31      H      -6.8771984720    -2.4609436374    -3.4161909359
   32      H      -6.2818757572    -1.0606219948     0.6261240150
   33      H      -4.5012760885    -2.4486905895    -3.3287169927
   34      H       1.7509696953    -2.4387809682    -4.5528315534
   35      H       2.6681937041     0.0313381899    -4.7016249085
   36      H       4.0770199236     4.0337261611    -5.8746850993
   37      H       4.1945679509     5.3850859662    -3.5282522453
   38      H     -10.5007018100    -3.5297314746     0.3466278371
   39      C      -9.0700800135    -4.7775924210     1.4207848712
   40      H      -9.6640762427    -4.8284941273    -0.6232908358
   41      H      -9.0208421104    -3.9430153332     2.1323962212
   42      H      -8.0262794532    -5.1029889063     1.3337301893
   43      C      -9.8736843420    -6.0236344007     1.9319007757
   44      H     -10.9407884283    -5.8514369289     1.7478521416
   45      C      -9.5988806553    -6.1894220895     3.4207118369
   46      H      -9.6289099513    -6.8512715413     1.2551406548
   47      H      -9.7834138257    -5.2546904224     3.9631039639
   48      H      -8.5380784099    -6.4521247248     3.5175876414
   49      C     -10.3777438347    -7.4072616929     3.9974516814
   50      H     -11.4356147859    -7.1277592573     3.9256990577
   51      C     -10.0561051986    -7.7238821491     5.4794830827
   52      H     -10.2433783031    -8.3035164948     3.3792193350
   53      H      -9.0061663219    -7.9603001127     5.6922385803
   54      H     -10.6525293498    -8.6081723132     5.7363451809
   55      H     -10.4371457264    -6.9559727514     6.1636009621
   56      C       7.1459344379    -3.7990921721     1.9413591471
   57      C       6.2340495828    -3.6356126183     3.0197090192
   58      N       7.2359966685    -2.9206182274     0.9454985529
   59      C       5.4160357107    -2.4998543805     3.0627500489
   60      C       6.4812414909    -1.8134766387     0.9639138853
   61      C       5.6049152939    -1.5391978484     2.0215005445
   62      C       4.5995230908    -0.4391016786     1.9945017428
   63      C       4.2627697786     0.2732951854     3.1904887472
   64      C       4.0169733728     0.0824021108     0.7974584589
   65      N       3.4507596904     1.3411659923     3.2102005828
   66      N       4.1904298161    -0.4792541736    -0.4570299151
   67      C       3.2015116370     1.2052971513     0.8366233109
   68      C       2.8534606592     1.7408253049     2.0984648673
   69      S       3.4805321098     0.6062659171    -1.4851084041
   70      N       2.7930887621     1.6226579643    -0.3967941801
   71      C       2.0126401619     2.9660024365     2.2685850821
   72      S       2.3032336190     4.1039613005     3.5785984662
   73      C       0.9857848210     3.3757636648     1.5120371030
   74      C       0.9485551012     5.1450354756     2.9984220489
   75      S      -0.0303179509     2.4964374890     0.3260010017
   76      C       0.4210292394     4.5676668869     1.8752764760
   77      C       0.3754116343     6.3571117911     3.6462465404
   78      C      -1.0180124654     3.9439415631     0.1781074530
   79      C      -0.7859338906     4.8903108584     1.1486411681
   80      N       1.1074543828     6.8406210262     4.6727212035
   81      S      -1.1308158441     7.1636478008     3.3364749333
   82      C       0.5324104175     7.9603903946     5.1818812957
   83      C      -0.6743731514     8.2294448927     4.5715436064
   84      C       8.0358169711    -5.0382711330     1.7875749479
   85      H       6.1002742139    -4.4286593657     3.7479273979
   86      H       4.7419885257    -2.3960817807     3.9078847363
   87      H       6.7336499879    -1.0106325346     0.2727790974
   88      H       4.7054953717    -0.0218180260     4.1406504396
   89      H      -1.8424110636     3.8948911348    -0.5207852474
   90      H      -1.4005828448     5.7519446569     1.3826259119
   91      H       0.9500178558     8.5302177513     6.0022743789
   92      H      -1.3364641260     9.0672789450     4.7431117916
   93      H       8.9275567544    -4.6326801671     1.2942138961
   94      C       7.4220668837    -6.2653235850     1.0382398359
   95      H       8.3406466396    -5.4572028726     2.7541891785
   96      H       7.1326626821    -5.9538623933     0.0274539367
   97      H       6.5575907773    -6.5530408852     1.6488164622
   98      C       8.3548585333    -7.5541977763     1.0203496830
   99      H       8.7885685169    -7.7447077416     2.0103595836
  100      C       9.4628177725    -7.3842046683     0.0152379142
  101      H       7.7434137719    -8.4424707551     0.8171960006
  102      H      10.4177030509    -7.1996624055     0.5235205702
  103      H       9.2132268975    -6.6235963255    -0.7357197037
  104      C       9.6213474830    -8.5963668713    -0.9396019281
  105      H       8.6255858414    -8.7407124550    -1.3783263355
  106      C      10.0637282068    -9.9516324104    -0.3147430531
  107      H      10.3319483419    -8.3709026872    -1.7444257106
  108      H      10.8865944765    -9.7976011868     0.3941338645
  109      H      10.4576587615   -10.5694671894    -1.1310897344
  110      H       9.2810373291   -10.5567918767     0.1580814494
 ----------------------------------------------------------------

    9   -5663.5079772678      9.65E-06 Convergence criterion met
 Total energy in the final basis set = -5663.5079772678

                    Orbital Energies (a.u.)
 --------------------------------------------------------------

 Alpha MOs
 -- Occupied --
-89.000 -88.989 -88.932 -88.931 -88.926 -88.917 -88.906 -88.903
-14.384 -14.384 -14.382 -14.374 -14.348 -14.347 -14.345 -14.338
-14.332 -14.328 -10.272 -10.267 -10.265 -10.259 -10.256 -10.254
-10.254 -10.253 -10.246 -10.240 -10.239 -10.237 -10.235 -10.232
-10.231 -10.229 -10.229 -10.228 -10.227 -10.227 -10.227 -10.227
-10.227 -10.226 -10.225 -10.223 -10.221 -10.218 -10.218 -10.216
-10.216 -10.216 -10.211 -10.206 -10.202 -10.202 -10.201 -10.198
-10.186 -10.184 -10.183 -10.180 -10.177 -10.177 -10.177 -10.175
-10.173 -10.172 -10.171 -10.171  -8.056  -8.044  -7.994  -7.991
 -7.984  -7.975  -7.966  -7.963  -6.021  -6.015  -6.014  -6.009
 -6.003  -6.002  -5.958  -5.955  -5.955  -5.952  -5.951  -5.949
 -5.949  -5.945  -5.941  -5.939  -5.936  -5.931  -5.931  -5.928
 -5.927  -5.924  -5.922  -5.919  -1.052  -1.027  -0.974  -0.971
 -0.965  -0.961  -0.943  -0.933  -0.911  -0.910  -0.898  -0.892
 -0.839  -0.838  -0.834  -0.830  -0.818  -0.815  -0.807  -0.806
 -0.803  -0.800  -0.796  -0.792  -0.782  -0.781  -0.764  -0.763
 -0.747  -0.744  -0.739  -0.735  -0.722  -0.720  -0.713  -0.707
 -0.693  -0.690  -0.678  -0.671  -0.655  -0.653  -0.644  -0.644
 -0.636  -0.633  -0.627  -0.626  -0.610  -0.607  -0.598  -0.593
 -0.590  -0.588  -0.584  -0.578  -0.576  -0.572  -0.570  -0.554
 -0.552  -0.546  -0.542  -0.541  -0.525  -0.524  -0.516  -0.515
 -0.510  -0.506  -0.503  -0.500  -0.485  -0.482  -0.480  -0.476
 -0.473  -0.472  -0.469  -0.465  -0.464  -0.462  -0.453  -0.449
 -0.445  -0.441  -0.437  -0.434  -0.432  -0.430  -0.429  -0.428
 -0.427  -0.423  -0.422  -0.420  -0.419  -0.418  -0.416  -0.414
 -0.411  -0.410  -0.409  -0.408  -0.405  -0.402  -0.400  -0.399
 -0.398  -0.397  -0.393  -0.391  -0.388  -0.386  -0.382  -0.381
 -0.379  -0.377  -0.375  -0.368  -0.365  -0.362  -0.356  -0.353
 -0.352  -0.350  -0.346  -0.343  -0.343  -0.342  -0.340  -0.337
 -0.336  -0.333  -0.333  -0.329  -0.326  -0.322  -0.319  -0.316
 -0.313  -0.312  -0.311  -0.306  -0.302  -0.301  -0.298  -0.297
 -0.296  -0.294  -0.293  -0.289  -0.287  -0.286  -0.283  -0.279
 -0.275  -0.274  -0.266  -0.264  -0.257  -0.255  -0.250  -0.248
 -0.242  -0.240  -0.234  -0.230  -0.197  -0.190

          Ground-State Mulliken Net Atomic Charges

     Atom                 Charge (a.u.)
  ----------------------------------------
      1 C                     0.280932
      2 C                    -0.119767
      3 N                    -0.477652
      4 C                    -0.084160
      5 C                     0.083043
      6 C                     0.043653
      7 C                     0.003310
      8 C                     0.073456
      9 C                     0.216058
     10 N                    -0.492900
     11 N                    -0.554609
     12 C                     0.200043
     13 C                     0.267605
     14 S                     0.632937
     15 N                    -0.559605
     16 C                    -0.185640
     17 S                     0.317185
     18 C                    -0.132313
     19 C                    -0.239655
     20 S                     0.282333
     21 C                     0.179793
     22 C                    -0.015960
     23 C                    -0.313671
     24 C                    -0.056326
     25 N                    -0.390233
     26 S                     0.326266
     27 C                     0.126704
     28 C                    -0.316683
     29 C                    -0.232353
     30 H                     0.089877
     31 H                     0.105514
     32 H                     0.104947
     33 H                     0.113022
     34 H                     0.129888
     35 H                     0.116037
     36 H                     0.115958
     37 H                     0.132487
     38 H                     0.118937
     39 C                    -0.181795
     40 H                     0.086507
     41 H                     0.116114
     42 H                     0.092392
     43 C                    -0.182405
     44 H                     0.086814
     45 C                    -0.161680
     46 H                     0.092691
     47 H                     0.099471
     48 H                     0.092687
     49 C                    -0.179440
     50 H                     0.092172
     51 C                    -0.321915
     52 H                     0.093213
     53 H                     0.103534
     54 H                     0.097625
     55 H                     0.103461
     56 C                     0.265784
     57 C                    -0.111580
     58 N                    -0.478846
     59 C                    -0.072811
     60 C                     0.107377
     61 C                     0.014188
     62 C                     0.027894
     63 C                     0.058570
     64 C                     0.198810
     65 N                    -0.504245
     66 N                    -0.554942
     67 C                     0.246900
     68 C                     0.277183
     69 S                     0.626589
     70 N                    -0.564950
     71 C                    -0.250249
     72 S                     0.335577
     73 C                    -0.095763
     74 C                    -0.217035
     75 S                     0.269809
     76 C                     0.134709
     77 C                     0.035496
     78 C                    -0.313988
     79 C                    -0.072346
     80 N                    -0.431589
     81 S                     0.300514
     82 C                     0.132848
     83 C                    -0.323919
     84 C                    -0.217940
     85 H                     0.090299
     86 H                     0.108470
     87 H                     0.110295
     88 H                     0.111767
     89 H                     0.148843
     90 H                     0.102755
     91 H                     0.118649
     92 H                     0.126117
     93 H                     0.120354
     94 C                    -0.179817
     95 H                     0.090792
     96 H                     0.110228
     97 H                     0.086523
     98 C                    -0.179901
     99 H                     0.091651
    100 C                    -0.162801
    101 H                     0.094916
    102 H                     0.092163
    103 H                     0.101551
    104 C                    -0.187152
    105 H                     0.092134
    106 C                    -0.321948
    107 H                     0.091022
    108 H                     0.099001
    109 H                     0.101170
    110 H                     0.102971
  ----------------------------------------
  Sum of atomic charges =     0.000000

                    Cartesian Multipole Moments
 -----------------------------------------------------------------
    Charge (ESU x 10^10)
                 0.0000
    Dipole Moment (Debye)
         X      -0.6464      Y       0.4331      Z      -0.4305
       Tot       0.8892
    Quadrupole Moments (Debye-Ang)
        XX    -434.4752     XY      -7.0445     YY    -401.0481
        XZ       2.7110     YZ       0.2804     ZZ    -449.1514

 Total job time:  83.41s(wall), 985.46s(cpu)
        *  Thank you very much for using Q-Chem.  Have a nice day.  *
