 Q-Chem 4.4, Q-Chem, Inc., Pleasanton, CA (2016)
 Q-Chem 4.4.2 for Intel X86 Linux

User input:
--------------------------------------------------------------
$comment
SP
$end

$rem
MEM_STATIC 5000
MEM_TOTAL 20000
JOBTYPE SP
EXCHANGE B3LYP
BASIS 6-31g(d,p)
$end

$molecule
0 1
C          10.455000     -2.624000      3.942000
C          11.806000     -3.017000      4.102000
N          10.043000     -1.365000      3.738000
C          12.788000     -2.017000      3.959000
C          10.954000     -0.385000      3.517000
C          12.349000     -0.676000      3.752000
C          13.262000      0.517000      3.482000
C          14.415000      0.607000      4.301000
C          13.034000      1.617000      2.588000
N          15.298000      1.560000      4.371000
N          11.995000      1.814000      1.779000
C          14.087000      2.628000      2.544000
C          15.147000      2.562000      3.476000
S          12.298000      3.245000      1.087000
N          13.795000      3.618000      1.708000
C          16.152000      3.706000      3.505000
S          16.225000      5.001000      2.310000
C          17.025000      4.028000      4.508000
C          17.382000      6.009000      3.272000
S          17.317000      3.070000      5.975000
C          17.649000      5.317000      4.466000
C          17.988000      7.304000      2.792000
C          18.417000      4.400000      6.516000
C          18.472000      5.488000      5.583000
N          17.985000      7.467000      1.444000
S          19.096000      8.261000      3.629000
C          18.820000      8.500000      1.095000
C          19.565000      9.075000      2.134000
C           9.338000     -3.656000      3.975000
H          12.091000     -4.040000      4.329000
H          13.860000     -2.181000      4.000000
H          10.648000      0.658000      3.442000
H          14.588000     -0.320000      4.847000
H          18.855000      4.384000      7.505000
H          19.123000      6.340000      5.745000
H          18.893000      8.909000      0.096000
H          20.348000      9.818000      2.069000
H           8.622000     -3.296000      3.226000
C           8.711000     -3.780000      5.405000
H           9.735000     -4.615000      3.618000
H           8.036000     -2.938000      5.604000
H           9.551000     -3.717000      6.107000
C           8.080000     -5.159000      5.587000
H           8.701000     -5.954000      5.156000
C           6.693000     -5.275000      4.966000
H           7.992000     -5.387000      6.656000
H           6.704000     -4.965000      3.914000
H           6.004000     -4.599000      5.487000
C           6.246000     -6.733000      5.008000
H           6.880000     -7.438000      4.457000
C           4.817000     -6.849000      4.501000
H           6.360000     -7.131000      6.024000
H           4.715000     -6.237000      3.597000
H           4.109000     -6.539000      5.280000
H           4.583000     -7.839000      4.090000
C          14.422000      9.170000      3.257000
C          15.598000      9.379000      4.028000
N          13.856000     10.141000      2.544000
C          16.209000     10.639000      4.023000
C          14.424000     11.354000      2.502000
C          15.620000     11.629000      3.177000
C          16.181000     13.001000      3.334000
C          17.597000     13.216000      3.338000
C          15.390000     14.192000      3.343000
N          18.159000     14.434000      3.365000
N          14.005000     14.202000      3.374000
C          15.992000     15.443000      3.343000
C          17.399000     15.513000      3.468000
S          13.610000     15.797000      3.176000
N          15.101000     16.474000      3.269000
C          18.164000     16.798000      3.445000
S          19.760000     16.903000      2.712000
C          17.793000     17.990000      3.931000
C          19.848000     18.660000      3.113000
S          16.519000     18.439000      5.109000
C          18.679000     19.013000      3.731000
C          21.001000     19.587000      2.944000
C          17.106000     20.095000      5.033000
C          18.327000     20.236000      4.416000
N          22.015000     19.088000      2.205000
S          21.263000     21.157000      3.638000
C          23.006000     20.007000      2.074000
C          22.738000     21.145000      2.805000
C          13.659000      7.840000      3.251000
H          15.962000      8.602000      4.692000
H          17.115000     10.762000      4.609000
H          14.080000     12.054000      1.742000
H          18.275000     12.366000      3.277000
H          16.575000     20.822000      5.633000
H          18.972000     21.107000      4.433000
H          23.914000     19.835000      1.510000
H          23.324000     22.052000      2.866000
H          13.242000      7.808000      2.237000
C          12.583000      7.633000      4.366000
H          14.323000      6.976000      3.375000
H          11.834000      8.430000      4.287000
H          13.149000      7.685000      5.304000
C          11.917000      6.188000      4.372000
H          12.674000      5.401000      4.262000
C          10.911000      6.071000      3.258000
H          11.470000      5.998000      5.356000
H          11.304000      5.441000      2.450000
H          10.570000      7.057000      2.917000
C           9.541000      5.509000      3.720000
H           9.233000      6.163000      4.546000
C           9.503000      4.042000      4.239000
H           8.797000      5.581000      2.917000
H          10.085000      3.386000      3.580000
H           8.460000      3.707000      4.182000
H           9.806000      3.878000      5.280000
$end

--------------------------------------------------------------

             Standard Nuclear Orientation (Angstroms)
    I     Atom           X                Y                Z
 ----------------------------------------------------------------
    1      C      11.7141151810    -0.0758402749    -0.0289824207
    2      C      11.5470532048     1.3149671941     0.1783696476
    3      N      10.7139617644    -0.9459501489    -0.2265753118
    4      C      10.2365871480     1.8250964585     0.0933999611
    5      C       9.4473316196    -0.4907452929    -0.3927036218
    6      C       9.1716943421     0.8978546854    -0.1067924616
    7      C       7.7070858322     1.2721061827    -0.3179221122
    8      C       7.1961817504     2.2703436813     0.5485471115
    9      C       6.7577725810     0.6544771848    -1.2002818869
   10      N       5.9749036609     2.7018041032     0.6715094325
   11      N       6.9604754557    -0.3529452526    -2.0469356397
   12      C       5.4124211194     1.2224615880    -1.1832771087
   13      C       5.0851589441     2.1936533096    -0.2105150060
   14      S       5.5042655073    -0.6201373483    -2.7000014634
   15      N       4.5912681982     0.5878592102    -2.0122811510
   16      C       3.6390082167     2.6627764819    -0.1201074689
   17      S       2.3820118802     2.2533331825    -1.2874529168
   18      C       3.0315824163     3.3067005415     0.9230692671
   19      C       1.0312459475     2.8878159663    -0.2612852931
   20      S       3.8439708484     3.9097304600     2.3830339766
   21      C       1.6003241966     3.3708567630     0.9297690865
   22      C      -0.4127310167     2.9462046229    -0.6927737536
   23      C       2.2062648774     4.3771338391     2.9921597715
   24      C       1.1550120316     4.0251987477     2.0820679379
   25      N      -0.6052717988     2.9193774421    -2.0366079508
   26      S      -1.7014132110     3.5596294603     0.2056082202
   27      C      -1.8947591588     3.2876897482    -2.3327217696
   28      C      -2.6828121434     3.7129568733    -1.2541619123
   29      C      13.1036477041    -0.6939362047    -0.0599467373
   30      H      12.3813702833     1.9744525638     0.3980900600
   31      H       9.9654622369     2.8727774719     0.1747435337
   32      H       8.6079040074    -1.1819751633    -0.4610596754
   33      H       7.9969708303     2.7794820577     1.0841672784
   34      H       2.0804211384     4.7558773729     3.9976137430
   35      H       0.1210411980     4.2808919735     2.2857203120
   36      H      -2.3317785859     3.2228530643    -3.3203559250
   37      H      -3.6762042219     4.1397408021    -1.2739269413
   38      H      13.0311660588    -1.4711405457    -0.8306326807
   39      C      13.5116817966    -1.2632987717     1.3410312948
   40      H      13.8159127337     0.0605470352    -0.4179587042
   41      H      13.0114002700    -2.2219517089     1.5278278152
   42      H      13.1452707727    -0.5381899192     2.0774639894
   43      C      15.0329201586    -1.3024750698     1.4722755852
   44      H      15.5037733468    -0.4050291044     1.0523767708
   45      C      15.6665156470    -2.5111612703     0.7936737684
   46      H      15.3119429006    -1.3251052812     2.5325223409
   47      H      15.3431392598    -2.5921596176    -0.2512147328
   48      H      15.3347113256    -3.4266513793     1.2985715330
   49      C      17.1831066544    -2.3459889269     0.7910635304
   50      H      17.5622653906    -1.4686147169     0.2534436383
   51      C      17.8370024366    -3.5966458537     0.2246506444
   52      H      17.5367824253    -2.1143577578     1.8034451040
   53      H      17.2857447128    -3.9052724380    -0.6714679601
   54      H      17.8572077534    -4.3925289817     0.9798769626
   55      H      18.8249889629    -3.4075033347    -0.2133958499
   56      C      -0.7036959948    -1.0792671057    -0.3385792533
   57      C      -1.3345175097    -0.1055518479     0.4830294205
   58      N      -1.3952503516    -1.9615568657    -1.0561329801
   59      C      -2.7328069517    -0.0429662039     0.5256401433
   60      C      -2.7346212955    -1.9187415839    -1.0530790946
   61      C      -3.4370774351    -0.9498980095    -0.3253679567
   62      C      -4.9131852321    -0.9823700967    -0.1209044262
   63      C      -5.6692945475     0.2322686268    -0.0557241037
   64      C      -5.6943671007    -2.1798658233    -0.1222730458
   65      N      -7.0086341344     0.2655301130     0.0161100406
   66      N      -5.1559549327    -3.4561023455    -0.1471462572
   67      C      -7.0806770837    -2.1221313452    -0.0751948012
   68      C      -7.6961339341    -0.8620223065     0.1078682367
   69      S      -6.4711542096    -4.4437010606    -0.3319532921
   70      N      -7.6781863489    -3.3456411182    -0.1664335724
   71      C      -9.1787430452    -0.6674232810     0.1391802651
   72      S      -9.9289638631     0.7780500558    -0.5266316879
   73      C     -10.1110063263    -1.4940762696     0.6313499626
   74      C     -11.5639591587     0.1517796340    -0.0905471293
   75      S      -9.9820313769    -2.8764604703     1.7648138500
   76      C     -11.4065690203    -1.0794592953     0.4859709043
   77      C     -12.8757264646     0.8485337060    -0.1959003378
   78      C     -11.7367976377    -2.9904259478     1.7427177021
   79      C     -12.3682935199    -1.9068992097     1.1782765990
   80      N     -12.8418358816     1.9988726555    -0.9022216029
   81      S     -14.3981019337     0.4471758522     0.5365372391
   82      C     -14.0810831142     2.5489454899    -0.9763105583
   83      C     -14.9964030240     1.8308580695    -0.2361964323
   84      C       0.8184975579    -1.2533599946    -0.3995993672
   85      H      -0.7429873734     0.5160400828     1.1469846672
   86      H      -3.1841502516     0.7224693161     1.1499467108
   87      H      -3.2664758888    -2.4886376196    -1.8135297505
   88      H      -5.1583414117     1.1927035174    -0.1046803491
   89      H     -12.1752050462    -3.7834234534     2.3338555034
   90      H     -13.4220815570    -1.6598832972     1.2371740676
   91      H     -14.2999104007     3.4673830546    -1.5061511555
   92      H     -16.0585263638     2.0081556527    -0.1350748322
   93      H       0.9793129754    -1.5930896342    -1.4300512941
   94      C       1.4696482544    -2.1926041912     0.6670182351
   95      H       1.3538766154    -0.3057835295    -0.2645582343
   96      H       1.0308073620    -3.1930510077     0.5722773333
   97      H       1.2291823472    -1.7217344718     1.6279354297
   98      C       3.0595525744    -2.2325248616     0.6198208484
   99      H       3.4798777091    -1.2230250714     0.5262529338
  100      C       3.5275969335    -3.0763015860    -0.5359024391
  101      H       3.4425812353    -2.5971808362     1.5813197123
  102      H       3.9245977022    -2.4421165575    -1.3386556635
  103      H       2.7456300136    -3.7691383109    -0.8724481399
  104      C       4.5994141869    -4.1254177024    -0.1399843292
  105      H       4.1474188213    -4.6916109487     0.6846255163
  106      C       5.9784473929    -3.5955442230     0.3503171215
  107      H       4.8006748160    -4.8127795164    -0.9709818597
  108      H       6.3296040273    -2.7820491050    -0.2964098002
  109      H       6.6958129981    -4.4187321274     0.2450970547
  110      H       6.0434812402    -3.2837362550     1.3995703749
 ----------------------------------------------------------------

   10   -5663.5083355925      4.03E-06 Convergence criterion met
 Total energy in the final basis set = -5663.5083355925

                    Orbital Energies (a.u.)
 --------------------------------------------------------------

 Alpha MOs
 -- Occupied --
-88.991 -88.990 -88.935 -88.933 -88.922 -88.918 -88.914 -88.905
-14.394 -14.390 -14.385 -14.384 -14.358 -14.348 -14.347 -14.339
-14.330 -14.324 -10.276 -10.272 -10.268 -10.266 -10.262 -10.260
-10.256 -10.254 -10.253 -10.243 -10.239 -10.237 -10.237 -10.237
-10.236 -10.235 -10.233 -10.231 -10.230 -10.230 -10.229 -10.228
-10.228 -10.227 -10.227 -10.224 -10.222 -10.221 -10.220 -10.220
-10.217 -10.214 -10.212 -10.211 -10.208 -10.204 -10.200 -10.198
-10.183 -10.182 -10.181 -10.176 -10.176 -10.175 -10.175 -10.175
-10.174 -10.170 -10.170 -10.169  -8.046  -8.044  -7.996  -7.995
 -7.979  -7.976  -7.973  -7.966  -6.012  -6.009  -6.006  -6.004
 -6.004  -6.003  -5.960  -5.959  -5.957  -5.955  -5.953  -5.952
 -5.944  -5.941  -5.940  -5.937  -5.937  -5.936  -5.934  -5.933
 -5.931  -5.929  -5.927  -5.921  -1.045  -1.027  -0.972  -0.966
 -0.965  -0.962  -0.939  -0.936  -0.921  -0.913  -0.905  -0.893
 -0.840  -0.834  -0.831  -0.829  -0.816  -0.810  -0.809  -0.806
 -0.806  -0.800  -0.794  -0.792  -0.785  -0.779  -0.767  -0.762
 -0.750  -0.743  -0.742  -0.736  -0.723  -0.716  -0.709  -0.706
 -0.693  -0.690  -0.680  -0.672  -0.655  -0.653  -0.649  -0.643
 -0.632  -0.631  -0.627  -0.624  -0.609  -0.608  -0.598  -0.597
 -0.593  -0.591  -0.585  -0.582  -0.577  -0.576  -0.571  -0.551
 -0.547  -0.544  -0.543  -0.542  -0.529  -0.524  -0.516  -0.515
 -0.508  -0.507  -0.501  -0.500  -0.484  -0.481  -0.479  -0.476
 -0.474  -0.473  -0.467  -0.466  -0.464  -0.462  -0.451  -0.450
 -0.445  -0.443  -0.438  -0.434  -0.434  -0.433  -0.430  -0.429
 -0.428  -0.425  -0.421  -0.420  -0.418  -0.417  -0.416  -0.413
 -0.411  -0.410  -0.406  -0.402  -0.401  -0.400  -0.399  -0.399
 -0.398  -0.396  -0.394  -0.391  -0.389  -0.387  -0.387  -0.380
 -0.377  -0.373  -0.373  -0.371  -0.367  -0.363  -0.359  -0.355
 -0.354  -0.353  -0.349  -0.346  -0.343  -0.342  -0.340  -0.338
 -0.337  -0.337  -0.332  -0.332  -0.328  -0.326  -0.326  -0.316
 -0.316  -0.315  -0.313  -0.311  -0.305  -0.300  -0.299  -0.297
 -0.297  -0.295  -0.294  -0.292  -0.288  -0.285  -0.284  -0.282
 -0.280  -0.275  -0.268  -0.265  -0.257  -0.249  -0.247  -0.246
 -0.243  -0.241  -0.228  -0.228  -0.196  -0.191

          Ground-State Mulliken Net Atomic Charges

     Atom                 Charge (a.u.)
  ----------------------------------------
      1 C                     0.258003
      2 C                    -0.111319
      3 N                    -0.480469
      4 C                    -0.079685
      5 C                     0.089424
      6 C                     0.018553
      7 C                     0.028277
      8 C                     0.064611
      9 C                     0.216488
     10 N                    -0.501613
     11 N                    -0.550718
     12 C                     0.238512
     13 C                     0.300260
     14 S                     0.614625
     15 N                    -0.570825
     16 C                    -0.228049
     17 S                     0.367556
     18 C                    -0.143953
     19 C                    -0.253741
     20 S                     0.288927
     21 C                     0.178624
     22 C                     0.044532
     23 C                    -0.303086
     24 C                    -0.108907
     25 N                    -0.416836
     26 S                     0.274725
     27 C                     0.128880
     28 C                    -0.323406
     29 C                    -0.215623
     30 H                     0.097960
     31 H                     0.104789
     32 H                     0.128367
     33 H                     0.096492
     34 H                     0.130164
     35 H                     0.111125
     36 H                     0.122763
     37 H                     0.144731
     38 H                     0.121177
     39 C                    -0.174161
     40 H                     0.092189
     41 H                     0.112661
     42 H                     0.090238
     43 C                    -0.181154
     44 H                     0.088505
     45 C                    -0.161237
     46 H                     0.087714
     47 H                     0.095950
     48 H                     0.094760
     49 C                    -0.178143
     50 H                     0.091129
     51 C                    -0.318677
     52 H                     0.089540
     53 H                     0.100667
     54 H                     0.106212
     55 H                     0.094471
     56 C                     0.269892
     57 C                    -0.109844
     58 N                    -0.480134
     59 C                    -0.069804
     60 C                     0.107558
     61 C                     0.013067
     62 C                     0.029086
     63 C                     0.057004
     64 C                     0.202378
     65 N                    -0.505315
     66 N                    -0.549424
     67 C                     0.238827
     68 C                     0.275059
     69 S                     0.613517
     70 N                    -0.548178
     71 C                    -0.246234
     72 S                     0.336825
     73 C                    -0.091616
     74 C                    -0.216104
     75 S                     0.260623
     76 C                     0.135887
     77 C                     0.035207
     78 C                    -0.301342
     79 C                    -0.067878
     80 N                    -0.431441
     81 S                     0.301585
     82 C                     0.132778
     83 C                    -0.323392
     84 C                    -0.227485
     85 H                     0.091583
     86 H                     0.106920
     87 H                     0.109467
     88 H                     0.108582
     89 H                     0.128969
     90 H                     0.105998
     91 H                     0.118757
     92 H                     0.126572
     93 H                     0.118665
     94 C                    -0.181874
     95 H                     0.115266
     96 H                     0.107770
     97 H                     0.085846
     98 C                    -0.180528
     99 H                     0.093246
    100 C                    -0.168244
    101 H                     0.094032
    102 H                     0.088160
    103 H                     0.102816
    104 C                    -0.186966
    105 H                     0.093946
    106 C                    -0.332541
    107 H                     0.090173
    108 H                     0.100265
    109 H                     0.105078
    110 H                     0.104936
  ----------------------------------------
  Sum of atomic charges =     0.000000

                    Cartesian Multipole Moments
 -----------------------------------------------------------------
    Charge (ESU x 10^10)
                 0.0000
    Dipole Moment (Debye)
         X      -1.3616      Y       1.4972      Z       2.5101
       Tot       3.2243
    Quadrupole Moments (Debye-Ang)
        XX    -360.8958     XY      15.3431     YY    -437.0736
        XZ      -4.9226     YZ       2.1840     ZZ    -443.1999

 Total job time:  93.39s(wall), 1112.03s(cpu)
        *  Thank you very much for using Q-Chem.  Have a nice day.  *
