 Q-Chem 4.4, Q-Chem, Inc., Pleasanton, CA (2016)
 Q-Chem 4.4.2 for Intel X86 Linux

User input:
--------------------------------------------------------------
$comment
SP
$end

$rem
MEM_STATIC 5000
MEM_TOTAL 20000
JOBTYPE SP
EXCHANGE B3LYP
BASIS 6-31g(d,p)
$end

$molecule
0 1
C          10.847000     12.129000      7.680000
C          11.451000     13.260000      7.141000
N          10.173000     11.201000      6.940000
C          11.329000     13.539000      5.757000
C          10.234000     11.441000      5.602000
C          10.728000     12.588000      4.949000
C          10.380000     12.846000      3.530000
C           9.995000     14.115000      3.084000
C          10.515000     11.911000      2.464000
N           9.679000     14.398000      1.815000
N          10.848000     10.626000      2.651000
C          10.179000     12.240000      1.154000
C           9.831000     13.525000      0.803000
S          10.774000      9.970000      1.198000
N          10.270000     11.182000      0.276000
C           9.680000     13.928000     -0.617000
S           9.879000     12.956000     -2.025000
C           9.493000     15.257000     -1.030000
C           9.625000     14.347000     -3.184000
S           9.401000     16.645000      0.006000
C           9.461000     15.460000     -2.400000
C           9.948000     14.394000     -4.571000
C           9.414000     17.647000     -1.498000
C           9.451000     16.928000     -2.608000
N          10.299000     13.203000     -5.071000
S           9.273000     15.497000     -5.742000
C          10.254000     13.319000     -6.464000
C           9.973000     14.511000     -6.979000
C          11.085000     11.832000      9.149000
H          11.876000     13.960000      7.854000
H          11.730000     14.479000      5.390000
H           9.825000     10.640000      4.986000
H           9.858000     15.032000      3.657000
H           9.258000     18.716000     -1.443000
H           9.472000     17.317000     -3.619000
H          10.495000     12.439000     -7.046000
H           9.886000     14.803000     -8.017000
H          10.805000     10.797000      9.383000
C          10.240000     12.661000     10.157000
H          12.173000     11.723000      9.241000
H           9.476000     11.994000     10.576000
H           9.699000     13.509000      9.719000
C          11.258000     13.188000     11.202000
H          11.556000     12.354000     11.849000
C          10.649000     14.247000     12.105000
H          12.122000     13.624000     10.685000
H           9.915000     13.766000     12.762000
H          10.219000     15.040000     11.481000
C          11.751000     14.843000     13.004000
H          12.214000     13.993000     13.522000
C          11.314000     16.031000     13.959000
H          12.630000     15.151000     12.424000
H          12.054000     16.243000     14.740000
H          10.327000     15.782000     14.370000
H          11.218000     16.943000     13.356000
C          14.422000      9.170000      3.257000
C          15.598000      9.379000      4.028000
N          13.856000     10.141000      2.544000
C          16.209000     10.639000      4.023000
C          14.424000     11.354000      2.502000
C          15.620000     11.629000      3.177000
C          16.181000     13.001000      3.334000
C          17.597000     13.216000      3.338000
C          15.390000     14.192000      3.343000
N          18.159000     14.434000      3.365000
N          14.005000     14.202000      3.374000
C          15.992000     15.443000      3.343000
C          17.399000     15.513000      3.468000
S          13.610000     15.797000      3.176000
N          15.101000     16.474000      3.269000
C          18.164000     16.798000      3.445000
S          19.760000     16.903000      2.712000
C          17.793000     17.990000      3.931000
C          19.848000     18.660000      3.113000
S          16.519000     18.439000      5.109000
C          18.679000     19.013000      3.731000
C          21.001000     19.587000      2.944000
C          17.106000     20.095000      5.033000
C          18.327000     20.236000      4.416000
N          22.015000     19.088000      2.205000
S          21.263000     21.157000      3.638000
C          23.006000     20.007000      2.074000
C          22.738000     21.145000      2.805000
C          13.659000      7.840000      3.251000
H          15.962000      8.602000      4.692000
H          17.115000     10.762000      4.609000
H          14.080000     12.054000      1.742000
H          18.275000     12.366000      3.277000
H          16.575000     20.822000      5.633000
H          18.972000     21.107000      4.433000
H          23.914000     19.835000      1.510000
H          23.324000     22.052000      2.866000
H          13.242000      7.808000      2.237000
C          12.583000      7.633000      4.366000
H          14.323000      6.976000      3.375000
H          11.834000      8.430000      4.287000
H          13.149000      7.685000      5.304000
C          11.917000      6.188000      4.372000
H          12.674000      5.401000      4.262000
C          10.911000      6.071000      3.258000
H          11.470000      5.998000      5.356000
H          11.304000      5.441000      2.450000
H          10.570000      7.057000      2.917000
C           9.541000      5.509000      3.720000
H           9.233000      6.163000      4.546000
C           9.503000      4.042000      4.239000
H           8.797000      5.581000      2.917000
H          10.085000      3.386000      3.580000
H           8.460000      3.707000      4.182000
H           9.806000      3.878000      5.280000
$end

--------------------------------------------------------------

             Standard Nuclear Orientation (Angstroms)
    I     Atom           X                Y                Z
 ----------------------------------------------------------------
    1      C       1.8725769631    -5.2079726444    -1.5747529315
    2      C       0.8395091924    -4.3079555235    -1.8139979173
    3      N       3.1346024816    -4.8376696307    -1.2097498239
    4      C       1.0834547700    -2.9134580384    -1.7503715151
    5      C       3.2580890697    -3.4979564044    -1.0060722995
    6      C       2.3228691307    -2.4864497091    -1.3031781238
    7      C       2.7543349871    -1.0684950775    -1.3700427454
    8      C       2.3366336329    -0.2182309318    -2.3996438629
    9      C       3.5055870210    -0.3864263188    -0.3704385288
   10      N       2.6927566365     1.0677099864    -2.4988323767
   11      N       4.0337166731    -0.9994001887     0.6984043527
   12      C       3.8569573085     0.9536028454    -0.5049664445
   13      C       3.3791588849     1.7204797611    -1.5437823390
   14      S       4.8536392450     0.1397984538     1.4579926813
   15      N       4.6736244512     1.4164721805     0.5036641899
   16      C       3.5741480322     3.1910243703    -1.5767639223
   17      S       4.3840018046     4.1822866621    -0.4242080945
   18      C       2.9651409796     4.0328070455    -2.5213756614
   19      C       3.9636064442     5.7454105818    -1.2742606532
   20      S       1.9014451683     3.5346608483    -3.7975831630
   21      C       3.1880482839     5.3889794639    -2.3474742379
   22      C       4.0294096737     7.0675496747    -0.7470745818
   23      C       1.6153338871     5.2910991586    -4.1126288690
   24      C       2.3116497396     6.0875962559    -3.3181689219
   25      N       4.6493033546     7.1323030039     0.4375016423
   26      S       4.1038576595     8.5390648971    -1.6811920518
   27      C       4.9425917718     8.4801226474     0.6683568197
   28      C       4.5141232519     9.3698208254    -0.2204074232
   29      C       1.5346089605    -6.6873459212    -1.5679457934
   30      H      -0.0883967882    -4.7335161044    -2.1839745156
   31      H       0.2795122879    -2.2424875144    -2.0377128477
   32      H       4.2152311836    -3.1979837846    -0.5791842565
   33      H       1.7165220901    -0.4434006624    -3.2672539521
   34      H       1.0367115503     5.6044328162    -4.9711975678
   35      H       2.2912982830     7.1708430920    -3.3248853320
   36      H       5.4650462514     8.7274537822     1.5832740982
   37      H       4.6411546004    10.4441106701    -0.2268390685
   38      H       2.3421101096    -7.2647699516    -1.1000736064
   39      C       1.3854657973    -7.3582494676    -2.9625693083
   40      H       0.7838178317    -6.8004538784    -0.7757284805
   41      H       2.2695777706    -7.9880259540    -3.1234220229
   42      H       1.3480184893    -6.6613803180    -3.8090916574
   43      C       0.0530004861    -8.1491618048    -2.8913522506
   44      H       0.2096649904    -9.0399371055    -2.2709132151
   45      C      -0.3903438366    -8.6402579606    -4.2588468127
   46      H      -0.7340497609    -7.5055520310    -2.4787999900
   47      H       0.2963968273    -9.4295267846    -4.5862731159
   48      H      -0.4296266432    -7.7864411260    -4.9462903916
   49      C      -1.7932935753    -9.2695450300    -4.1424388454
   50      H      -1.7165458906   -10.0430123331    -3.3671639754
   51      C      -2.4573113140    -9.7635671807    -5.4949774058
   52      H      -2.4948333526    -8.6104975331    -3.6157479136
   53      H      -3.3222207868   -10.4172300679    -5.3301701432
   54      H      -1.6735482065   -10.2446988056    -6.0944094294
   55      H      -2.8223010066    -8.8853950466    -6.0428507735
   56      C       2.1928384048    -2.0327603356     3.9853454852
   57      C       1.0124280906    -2.6737772974     4.4509920731
   58      N       2.1614510197    -1.0356474712     3.1042400615
   59      C      -0.2358732746    -2.2310640530     3.9963552019
   60      C       0.9834540848    -0.5747161181     2.6619477269
   61      C      -0.2305790569    -1.1027314264     3.1191012734
   62      C      -1.5522837995    -0.7742793114     2.5133209653
   63      C      -2.7286168394    -0.6904152943     3.3260351868
   64      C      -1.7316903221    -0.3821414666     1.1501319798
   65      N      -3.9219394768    -0.2926423648     2.8592860253
   66      N      -0.7295839315    -0.4214317910     0.1943469347
   67      C      -2.9688654245     0.0527009118     0.6943745093
   68      C      -4.0753972241    -0.0268987741     1.5715434020
   69      S      -1.4067513521     0.3075558181    -1.1282548007
   70      N      -2.9532613111     0.4669620242    -0.6058032641
   71      C      -5.4482407484     0.4428063749     1.2086980757
   72      S      -6.5099073669     1.1830092802     2.4005427175
   73      C      -6.0507430385     0.3913501683     0.0132716877
   74      C      -7.7880301508     1.4096252047     1.1472903998
   75      S      -5.6843102423    -0.5737430263    -1.4518846629
   76      C      -7.3032681768     0.9386729952    -0.0427952462
   77      C      -9.1827806332     1.8975349399     1.3314484357
   78      C      -7.1498279031     0.0712038437    -2.1791965085
   79      C      -7.9871443024     0.7111054134    -1.2955459958
   80      N      -9.4319802895     2.4305651330     2.5468069608
   81      S     -10.5398691877     1.7865185450     0.2538743011
   82      C     -10.7119283846     2.8784465832     2.6170784379
   83      C     -11.4143918733     2.5793505812     1.4688991711
   84      C       3.5997883438    -2.4906344158     4.3877733618
   85      H       1.0803540344    -3.5603295298     5.0727092157
   86      H      -1.1191793634    -2.7304428118     4.3833335073
   87      H       0.9728499883     0.3758072690     2.1306014711
   88      H      -2.6707225887    -0.9178986123     4.3894281507
   89      H      -7.3665789309    -0.2483420630    -3.1898395738
   90      H      -9.0182655813     1.0001105542    -1.4635339023
   91      H     -11.1333078268     3.3581716414     3.4914051699
   92      H     -12.4356833004     2.8387891466     1.2251340145
   93      H       4.1691763922    -1.5532189799     4.3751816660
   94      C       4.2532964700    -3.6195286395     3.5261615230
   95      H       3.6324906059    -2.8968316862     5.4059591698
   96      H       4.3147609069    -3.2794082522     2.4854928701
   97      H       3.5801225863    -4.4772344043     3.6448280449
   98      C       5.6593563333    -4.1271523428     4.0710751280
   99      H       5.6309880404    -4.2862318509     5.1566196688
  100      C       6.7388159849    -3.1307313584     3.7414797969
  101      H       5.8720951071    -5.1209890107     3.6573168753
  102      H       7.0449808423    -2.5839011545     4.6422865509
  103      H       6.4436420035    -2.4756973363     2.9116841891
  104      C       7.9903408063    -3.7708481847     3.0856413486
  105      H       7.6022482742    -4.3255228151     2.2215949141
  106      C       8.8267308266    -4.7617254722     3.9467498987
  107      H       8.6828426918    -2.9991840296     2.7271660076
  108      H       8.9750676435    -4.3619144186     4.9574369473
  109      H       9.8184947223    -4.8332867974     3.4834936501
  110      H       8.4591385995    -5.7928248980     4.0107493423
 ----------------------------------------------------------------

    9   -5663.4994727856      6.67E-06 Convergence criterion met
 Total energy in the final basis set = -5663.4994727856

                    Orbital Energies (a.u.)
 --------------------------------------------------------------

 Alpha MOs
 -- Occupied --
-88.992 -88.982 -88.934 -88.924 -88.919 -88.918 -88.907 -88.902
-14.388 -14.387 -14.379 -14.372 -14.349 -14.342 -14.340 -14.339
-14.332 -14.330 -10.269 -10.263 -10.262 -10.259 -10.257 -10.255
-10.248 -10.242 -10.241 -10.238 -10.235 -10.235 -10.235 -10.234
-10.232 -10.230 -10.230 -10.229 -10.228 -10.224 -10.223 -10.223
-10.222 -10.222 -10.222 -10.221 -10.221 -10.219 -10.218 -10.217
-10.211 -10.210 -10.205 -10.204 -10.204 -10.201 -10.197 -10.195
-10.185 -10.185 -10.183 -10.181 -10.179 -10.179 -10.178 -10.177
-10.176 -10.176 -10.172 -10.169  -8.047  -8.037  -7.996  -7.985
 -7.977  -7.976  -7.967  -7.962  -6.012  -6.006  -6.005  -6.002
 -5.997  -5.996  -5.960  -5.956  -5.953  -5.949  -5.946  -5.942
 -5.942  -5.940  -5.938  -5.937  -5.934  -5.933  -5.932  -5.929
 -5.926  -5.923  -5.923  -5.918  -1.042  -1.030  -0.967  -0.965
 -0.964  -0.957  -0.946  -0.931  -0.915  -0.909  -0.902  -0.895
 -0.842  -0.838  -0.833  -0.830  -0.816  -0.809  -0.809  -0.809
 -0.805  -0.802  -0.795  -0.794  -0.783  -0.782  -0.767  -0.764
 -0.746  -0.744  -0.737  -0.737  -0.724  -0.722  -0.708  -0.707
 -0.692  -0.691  -0.674  -0.672  -0.655  -0.652  -0.647  -0.642
 -0.635  -0.633  -0.628  -0.625  -0.611  -0.606  -0.600  -0.594
 -0.593  -0.588  -0.585  -0.580  -0.579  -0.575  -0.573  -0.552
 -0.545  -0.544  -0.540  -0.539  -0.526  -0.519  -0.517  -0.513
 -0.512  -0.506  -0.503  -0.495  -0.487  -0.484  -0.478  -0.475
 -0.474  -0.470  -0.468  -0.466  -0.465  -0.464  -0.452  -0.447
 -0.440  -0.436  -0.434  -0.433  -0.432  -0.430  -0.430  -0.429
 -0.428  -0.427  -0.423  -0.422  -0.419  -0.415  -0.413  -0.412
 -0.410  -0.408  -0.405  -0.404  -0.403  -0.400  -0.400  -0.395
 -0.394  -0.393  -0.392  -0.389  -0.386  -0.382  -0.380  -0.379
 -0.379  -0.375  -0.375  -0.374  -0.366  -0.360  -0.356  -0.353
 -0.351  -0.348  -0.346  -0.345  -0.345  -0.343  -0.342  -0.341
 -0.339  -0.333  -0.330  -0.329  -0.328  -0.327  -0.325  -0.318
 -0.317  -0.315  -0.310  -0.308  -0.302  -0.301  -0.298  -0.296
 -0.295  -0.294  -0.291  -0.288  -0.286  -0.283  -0.281  -0.278
 -0.277  -0.268  -0.266  -0.264  -0.254  -0.252  -0.251  -0.248
 -0.245  -0.239  -0.233  -0.232  -0.193  -0.193

          Ground-State Mulliken Net Atomic Charges

     Atom                 Charge (a.u.)
  ----------------------------------------
      1 C                     0.253418
      2 C                    -0.110392
      3 N                    -0.472176
      4 C                    -0.071880
      5 C                     0.071024
      6 C                     0.067894
      7 C                     0.035236
      8 C                     0.033111
      9 C                     0.233125
     10 N                    -0.541655
     11 N                    -0.532742
     12 C                     0.167095
     13 C                     0.335894
     14 S                     0.637029
     15 N                    -0.551362
     16 C                    -0.212483
     17 S                     0.361273
     18 C                    -0.139957
     19 C                    -0.250079
     20 S                     0.268318
     21 C                     0.154377
     22 C                     0.049800
     23 C                    -0.309139
     24 C                    -0.054694
     25 N                    -0.423316
     26 S                     0.273443
     27 C                     0.109070
     28 C                    -0.292690
     29 C                    -0.245610
     30 H                     0.088297
     31 H                     0.095146
     32 H                     0.112089
     33 H                     0.112685
     34 H                     0.123754
     35 H                     0.104120
     36 H                     0.110990
     37 H                     0.136493
     38 H                     0.114374
     39 C                    -0.186665
     40 H                     0.112302
     41 H                     0.109234
     42 H                     0.101254
     43 C                    -0.172581
     44 H                     0.097200
     45 C                    -0.170398
     46 H                     0.094909
     47 H                     0.094371
     48 H                     0.088870
     49 C                    -0.183509
     50 H                     0.087411
     51 C                    -0.322352
     52 H                     0.085853
     53 H                     0.104275
     54 H                     0.104615
     55 H                     0.104995
     56 C                     0.277447
     57 C                    -0.115646
     58 N                    -0.481035
     59 C                    -0.069758
     60 C                     0.112837
     61 C                     0.011368
     62 C                     0.029167
     63 C                     0.059516
     64 C                     0.204374
     65 N                    -0.503817
     66 N                    -0.560135
     67 C                     0.237880
     68 C                     0.275840
     69 S                     0.616853
     70 N                    -0.545602
     71 C                    -0.246391
     72 S                     0.341628
     73 C                    -0.090643
     74 C                    -0.216033
     75 S                     0.256924
     76 C                     0.136061
     77 C                     0.034841
     78 C                    -0.300649
     79 C                    -0.067049
     80 N                    -0.430828
     81 S                     0.302265
     82 C                     0.133023
     83 C                    -0.322809
     84 C                    -0.222172
     85 H                     0.092448
     86 H                     0.108587
     87 H                     0.111742
     88 H                     0.113122
     89 H                     0.128946
     90 H                     0.106408
     91 H                     0.119663
     92 H                     0.127027
     93 H                     0.114459
     94 C                    -0.191609
     95 H                     0.092043
     96 H                     0.130516
     97 H                     0.086729
     98 C                    -0.178930
     99 H                     0.090005
    100 C                    -0.168540
    101 H                     0.098151
    102 H                     0.091484
    103 H                     0.099759
    104 C                    -0.187713
    105 H                     0.096817
    106 C                    -0.322070
    107 H                     0.090281
    108 H                     0.098224
    109 H                     0.101604
    110 H                     0.103730
  ----------------------------------------
  Sum of atomic charges =     0.000000

                    Cartesian Multipole Moments
 -----------------------------------------------------------------
    Charge (ESU x 10^10)
                 0.0000
    Dipole Moment (Debye)
         X      -3.4833      Y       0.0434      Z      -0.9804
       Tot       3.6189
    Quadrupole Moments (Debye-Ang)
        XX    -417.1647     XY       4.8327     YY    -405.3308
        XZ      21.9440     YZ     -12.0341     ZZ    -432.3510

 Total job time:  84.70s(wall), 1002.33s(cpu)
        *  Thank you very much for using Q-Chem.  Have a nice day.  *
