 Q-Chem 4.4, Q-Chem, Inc., Pleasanton, CA (2016)
 Q-Chem 4.4.2 for Intel X86 Linux

User input:
--------------------------------------------------------------
$comment
SP
$end

$rem
MEM_STATIC 5000
MEM_TOTAL 20000
JOBTYPE SP
EXCHANGE B3LYP
BASIS 6-31g(d,p)
$end

$molecule
0 1
C          14.797000     19.737000     15.106000
C          13.550000     20.192000     14.737000
N          15.827000     19.583000     14.242000
C          13.196000     20.298000     13.342000
C          15.517000     19.770000     12.917000
C          14.204000     19.946000     12.422000
C          13.881000     19.999000     10.958000
C          12.660000     19.451000     10.467000
C          14.756000     20.575000      9.991000
N          12.414000     19.309000      9.210000
N          15.794000     21.416000     10.216000
C          14.463000     20.424000      8.646000
C          13.276000     19.761000      8.266000
S          16.277000     22.016000      8.808000
N          15.282000     21.227000      7.896000
C          12.842000     19.701000      6.873000
S          13.502000     20.457000      5.416000
C          11.930000     18.730000      6.468000
C          12.542000     19.392000      4.329000
S          11.290000     17.447000      7.406000
C          11.725000     18.595000      5.084000
C          12.620000     19.383000      2.828000
C          10.524000     16.757000      5.901000
C          10.860000     17.467000      4.759000
N          11.477000     19.537000      2.166000
S          14.092000     19.321000      1.930000
C          11.727000     19.591000      0.841000
C          13.057000     19.584000      0.507000
C          15.154000     19.424000     16.547000
H          12.798000     20.334000     15.508000
H          12.168000     20.429000     13.019000
H          16.298000     19.437000     12.235000
H          11.902000     19.022000     11.121000
H           9.876000     15.892000      5.955000
H          10.588000     17.164000      3.755000
H          10.909000     19.647000      0.134000
H          13.554000     19.584000     -0.454000
H          15.685000     20.257000     17.023000
C          15.951000     18.110000     16.745000
H          14.167000     19.246000     16.991000
H          16.920000     18.383000     16.307000
H          15.589000     17.309000     16.089000
C          16.037000     17.490000     18.183000
H          16.096000     18.306000     18.913000
C          17.279000     16.611000     18.249000
H          15.059000     17.037000     18.386000
H          18.169000     17.159000     17.918000
H          17.106000     15.770000     17.566000
C          17.432000     15.970000     19.659000
H          17.634000     16.811000     20.333000
C          18.601000     14.960000     19.775000
H          16.496000     15.509000     19.998000
H          18.545000     14.097000     19.100000
H          18.570000     14.578000     20.803000
H          19.582000     15.447000     19.717000
C          27.043000     25.676000     -2.177000
C          26.603000     24.361000     -2.260000
N          26.261000     26.728000     -1.807000
C          25.238000     24.133000     -1.970000
C          24.999000     26.475000     -1.513000
C          24.366000     25.206000     -1.596000
C          22.865000     25.049000     -1.475000
C          22.329000     23.924000     -0.789000
C          21.838000     25.894000     -1.978000
N          21.017000     23.662000     -0.579000
N          22.126000     27.063000     -2.597000
C          20.451000     25.652000     -1.787000
C          20.119000     24.431000     -1.157000
S          20.662000     27.686000     -3.033000
N          19.657000     26.579000     -2.395000
C          18.702000     24.023000     -1.121000
S          17.390000     24.570000     -2.169000
C          18.241000     22.945000     -0.315000
C          16.359000     23.285000     -1.685000
S          19.059000     22.055000      0.948000
C          16.971000     22.512000     -0.718000
C          15.005000     23.167000     -2.143000
C          17.592000     21.062000      0.984000
C          16.585000     21.362000      0.028000
N          14.136000     22.731000     -1.298000
S          14.481000     23.420000     -3.773000
C          12.836000     22.601000     -1.875000
C          12.859000     22.973000     -3.210000
C          28.518000     25.987000     -2.519000
H          27.233000     23.595000     -2.701000
H          24.906000     23.104000     -2.071000
H          24.397000     27.370000     -1.357000
H          22.980000     23.235000     -0.254000
H          17.571000     20.253000      1.702000
H          15.643000     20.860000     -0.161000
H          11.978000     22.347000     -1.266000
H          12.054000     23.101000     -3.922000
H          29.074000     25.053000     -2.375000
C          29.328000     26.972000     -1.576000
H          28.511000     26.284000     -3.575000
H          29.225000     26.478000     -0.602000
H          28.820000     27.940000     -1.487000
C          30.812000     27.082000     -1.909000
H          31.164000     27.977000     -1.381000
C          31.198000     27.283000     -3.391000
H          31.373000     26.226000     -1.513000
H          30.643000     28.151000     -3.768000
H          30.850000     26.359000     -3.869000
C          32.680000     27.452000     -3.577000
H          33.039000     28.468000     -3.370000
C          33.296000     27.056000     -4.925000
H          33.169000     26.824000     -2.822000
H          34.237000     27.592000     -5.103000
H          32.617000     27.414000     -5.708000
H          33.410000     25.972000     -5.048000
$end

--------------------------------------------------------------

             Standard Nuclear Orientation (Angstroms)
    I     Atom           X                Y                Z
 ----------------------------------------------------------------
    1      C      11.0698087028    -4.0679253042    -1.6100178533
    2      C      11.2773548468    -2.8856965771    -2.2863719284
    3      N       9.9208125869    -4.3722152694    -0.9632353993
    4      C      10.3552945485    -1.7862670934    -2.1326298820
    5      C       8.9995770580    -3.3560247474    -0.8899147121
    6      C       9.2474700808    -2.0237556276    -1.2943625352
    7      C       8.2755704908    -0.9041689620    -1.0655156752
    8      C       8.7432301311     0.4106199099    -0.7742242693
    9      C       6.8618906433    -1.0824185006    -1.1127003192
   10      N       7.9609186509     1.3619645216    -0.3951976505
   11      N       6.1793649179    -2.1169664831    -1.6597095568
   12      C       6.0401597169    -0.0406391345    -0.7163052673
   13      C       6.6171463771     1.1906329207    -0.3368404863
   14      S       4.6252883090    -1.7219921929    -1.7274901129
   15      N       4.7392604267    -0.3204916908    -1.0440453830
   16      C       5.7995823897     2.3665855198    -0.0520078841
   17      S       4.0575090529     2.6357199377    -0.2027797460
   18      C       6.3252826701     3.4168109074     0.6958395939
   19      C       4.1199242489     4.1348585446     0.7902367596
   20      S       7.8518331575     3.4808705747     1.4711285518
   21      C       5.4214062594     4.4096656968     1.1117155388
   22      C       2.9310286769     4.9593546006     1.1975444721
   23      C       7.3540996535     5.0406559306     2.2756234258
   24      C       6.0411927927     5.3876510727     1.9980807331
   25      N       2.9693194661     6.2555317025     0.9028111417
   26      S       1.4893233249     4.3127859433     1.8907014885
   27      C       1.8016736639     6.8328787357     1.2553940167
   28      C       0.8471781412     5.9627998817     1.7162693633
   29      C      12.1013835680    -5.1801306795    -1.5826043416
   30      H      12.2129180486    -2.7487252527    -2.8212264429
   31      H      10.6013756391    -0.7807510801    -2.4592116388
   32      H       8.1869415693    -3.5533393037    -0.1923012601
   33      H       9.8013742189     0.6678365389    -0.7520500654
   34      H       8.0538417620     5.5992526600     2.8833862705
   35      H       5.5255743865     6.2235309159     2.4555209444
   36      H       1.6700720585     7.9026328557     1.1533345236
   37      H      -0.1517160031     6.1312523606     2.0962223219
   38      H      11.8814682040    -5.9551726229    -2.3264949375
   39      C      12.3144863358    -5.8303575729    -0.1923521351
   40      H      13.0272328024    -4.6354005614    -1.8041021824
   41      H      11.3679283030    -6.3718873128    -0.0654370794
   42      H      12.2955781369    -5.0873097226     0.6141857575
   43      C      13.5990267573    -6.6982873578     0.0449109972
   44      H      13.8288735643    -7.2429667974    -0.8785237614
   45      C      13.3170524065    -7.6631627802     1.1890556055
   46      H      14.4360410128    -5.9961489857     0.1414037035
   47      H      12.3934581932    -8.2267645218     1.0121607046
   48      H      13.1924848331    -7.0526767597     2.0920997563
   49      C      14.5525024170    -8.5666492261     1.4714834964
   50      H      14.6548848207    -9.1951051540     0.5787786235
   51      C      14.3953258413    -9.4918078398     2.7041610955
   52      H      15.4746080491    -7.9778971940     1.5529098317
   53      H      14.2232913302    -8.9782026858     3.6581757038
   54      H      15.3399322017   -10.0429893602     2.7912630773
   55      H      13.6554746235   -10.2847416173     2.5405450815
   56      C     -10.8132261467    -4.1762140278     0.6392898904
   57      C     -10.1633400551    -3.6672053335     1.7565509239
   58      N     -10.5026824355    -3.8521944521    -0.6466735298
   59      C      -9.1380670033    -2.7239710407     1.5148212438
   60      C      -9.5194668840    -2.9919945401    -0.8375459756
   61      C      -8.7847167716    -2.3317547585     0.1833187085
   62      C      -7.8433786604    -1.1852841120    -0.1196311507
   63      C      -6.6227622359    -1.0687346531     0.6014990510
   64      C      -7.9973839581    -0.1322138566    -1.0625459960
   65      N      -5.6743175877    -0.1180533635     0.4261541482
   66      N      -9.0520374263    -0.0927751173    -1.9103765497
   67      C      -7.0313098638     0.8882837770    -1.2725446251
   68      C      -5.9259859748     0.8818973601    -0.3915319612
   69      S      -8.8430456282     1.2896207096    -2.7860621131
   70      N      -7.4186651786     1.8096254368    -2.2001837823
   71      C      -5.0021660172     2.0314860855    -0.4170554484
   72      S      -5.3147725303     3.6594126861    -1.0261442359
   73      C      -3.7462647621     2.0131382542     0.2512381957
   74      C      -3.9295920604     4.3056800514    -0.2438044387
   75      S      -2.8828041416     0.6827233473     0.9866461996
   76      C      -3.2274180892     3.3059712248     0.4001644862
   77      C      -3.5240319648     5.6728764668    -0.3964444418
   78      C      -1.7183621978     1.9199293497     1.4894685012
   79      C      -2.0306833611     3.2686790070     1.1711685596
   80      N      -2.2583520665     5.9069931643    -0.4467014500
   81      S      -4.5905598996     7.0356497750    -0.3672541200
   82      C      -1.9681137389     7.3020792933    -0.5432695912
   83      C      -3.1402731159     8.0417900232    -0.5461732245
   84      C     -11.9667488072    -5.1837970844     0.8477889452
   85      H     -10.5529817925    -3.8504609576     2.7529111463
   86      H      -8.6636566727    -2.3142563816     2.4015764165
   87      H      -9.4103915297    -2.6733861433    -1.8740575561
   88      H      -6.3032005311    -1.8514625121     1.2870385580
   89      H      -0.8603585025     1.5784345000     2.0530791172
   90      H      -1.4953104595     4.1773782933     1.4216290625
   91      H      -0.9558766368     7.6519613872    -0.6998568493
   92      H      -3.3089321141     9.0982162306    -0.7100964096
   93      H     -11.8072332851    -5.6394669575     1.8322419735
   94      C     -12.0312411474    -6.4709685708    -0.0766591619
   95      H     -12.8816679685    -4.5786720285     0.8359316655
   96      H     -11.0490786822    -6.9233623237     0.1077799453
   97      H     -12.0498236825    -6.1941926882    -1.1378183395
   98      C     -13.1089834739    -7.4747821234     0.3184039083
   99      H     -13.2173956530    -8.1418400791    -0.5458839391
  100      C     -14.5225450834    -6.9258470299     0.6120615986
  101      H     -12.7874190301    -8.0896110145     1.1686125551
  102      H     -14.8370961936    -6.3280296087    -0.2523745934
  103      H     -14.3672749827    -6.2891742566     1.4917791531
  104      C     -15.5081124729    -8.0196511344     0.9149320359
  105      H     -15.9107012821    -8.5125865115     0.0211071288
  106      C     -16.7214574978    -7.6860747802     1.7923695928
  107      H     -14.9568047888    -8.8071734700     1.4435135418
  108      H     -17.5502013677    -8.3800036683     1.6023503924
  109      H     -17.0952115405    -6.7075525696     1.4681841538
  110      H     -16.4788192991    -7.6170082642     2.8598608204
 ----------------------------------------------------------------

    9   -5663.5215061578      8.73E-06 Convergence criterion met
 Total energy in the final basis set = -5663.5215061578

                    Orbital Energies (a.u.)
 --------------------------------------------------------------

 Alpha MOs
 -- Occupied --
-88.994 -88.990 -88.934 -88.929 -88.927 -88.923 -88.916 -88.903
-14.392 -14.383 -14.375 -14.368 -14.351 -14.346 -14.345 -14.344
-14.329 -14.328 -10.274 -10.267 -10.263 -10.261 -10.259 -10.257
-10.249 -10.248 -10.243 -10.242 -10.241 -10.239 -10.239 -10.237
-10.235 -10.234 -10.233 -10.232 -10.231 -10.231 -10.230 -10.228
-10.225 -10.224 -10.224 -10.224 -10.223 -10.223 -10.223 -10.219
-10.215 -10.213 -10.208 -10.206 -10.203 -10.202 -10.201 -10.200
-10.187 -10.181 -10.179 -10.176 -10.176 -10.175 -10.174 -10.174
-10.174 -10.171 -10.171 -10.170  -8.050  -8.045  -7.994  -7.991
 -7.987  -7.981  -7.976  -7.963  -6.015  -6.010  -6.009  -6.008
 -6.005  -6.003  -5.958  -5.955  -5.954  -5.952  -5.951  -5.951
 -5.948  -5.947  -5.946  -5.944  -5.942  -5.940  -5.938  -5.937
 -5.932  -5.928  -5.924  -5.919  -1.046  -1.035  -0.975  -0.972
 -0.968  -0.965  -0.940  -0.931  -0.912  -0.907  -0.903  -0.892
 -0.846  -0.834  -0.830  -0.828  -0.815  -0.809  -0.808  -0.806
 -0.805  -0.798  -0.795  -0.793  -0.784  -0.779  -0.767  -0.762
 -0.752  -0.746  -0.744  -0.737  -0.723  -0.718  -0.710  -0.708
 -0.694  -0.691  -0.675  -0.675  -0.659  -0.650  -0.644  -0.642
 -0.637  -0.633  -0.625  -0.625  -0.609  -0.605  -0.599  -0.594
 -0.590  -0.585  -0.583  -0.581  -0.576  -0.571  -0.569  -0.556
 -0.554  -0.549  -0.544  -0.543  -0.522  -0.519  -0.515  -0.515
 -0.507  -0.504  -0.502  -0.500  -0.483  -0.483  -0.478  -0.476
 -0.476  -0.472  -0.470  -0.467  -0.465  -0.460  -0.451  -0.448
 -0.448  -0.443  -0.441  -0.437  -0.434  -0.431  -0.430  -0.428
 -0.426  -0.421  -0.420  -0.420  -0.418  -0.415  -0.415  -0.414
 -0.412  -0.410  -0.407  -0.405  -0.404  -0.400  -0.398  -0.396
 -0.394  -0.393  -0.391  -0.391  -0.388  -0.386  -0.385  -0.384
 -0.383  -0.381  -0.374  -0.367  -0.366  -0.364  -0.360  -0.357
 -0.354  -0.350  -0.349  -0.346  -0.343  -0.339  -0.339  -0.336
 -0.333  -0.331  -0.331  -0.327  -0.325  -0.323  -0.320  -0.314
 -0.314  -0.312  -0.311  -0.301  -0.301  -0.298  -0.298  -0.297
 -0.295  -0.293  -0.292  -0.291  -0.288  -0.287  -0.283  -0.281
 -0.278  -0.271  -0.269  -0.262  -0.260  -0.254  -0.254  -0.252
 -0.247  -0.241  -0.231  -0.230  -0.197  -0.194

          Ground-State Mulliken Net Atomic Charges

     Atom                 Charge (a.u.)
  ----------------------------------------
      1 C                     0.280688
      2 C                    -0.119966
      3 N                    -0.478540
      4 C                    -0.083584
      5 C                     0.083988
      6 C                     0.043000
      7 C                     0.002485
      8 C                     0.072357
      9 C                     0.219553
     10 N                    -0.492855
     11 N                    -0.557678
     12 C                     0.189825
     13 C                     0.264702
     14 S                     0.630346
     15 N                    -0.539348
     16 C                    -0.183613
     17 S                     0.320303
     18 C                    -0.132671
     19 C                    -0.254985
     20 S                     0.277607
     21 C                     0.180090
     22 C                     0.009933
     23 C                    -0.314829
     24 C                    -0.049510
     25 N                    -0.390863
     26 S                     0.293666
     27 C                     0.121156
     28 C                    -0.303734
     29 C                    -0.232402
     30 H                     0.089134
     31 H                     0.105306
     32 H                     0.103923
     33 H                     0.111457
     34 H                     0.126049
     35 H                     0.114085
     36 H                     0.113335
     37 H                     0.136849
     38 H                     0.118658
     39 C                    -0.181379
     40 H                     0.086292
     41 H                     0.115887
     42 H                     0.092115
     43 C                    -0.182394
     44 H                     0.086728
     45 C                    -0.161415
     46 H                     0.092534
     47 H                     0.099367
     48 H                     0.092428
     49 C                    -0.179383
     50 H                     0.092143
     51 C                    -0.322020
     52 H                     0.093140
     53 H                     0.103444
     54 H                     0.097504
     55 H                     0.103361
     56 C                     0.255300
     57 C                    -0.109069
     58 N                    -0.471828
     59 C                    -0.084499
     60 C                     0.085308
     61 C                     0.030800
     62 C                     0.048867
     63 C                     0.036465
     64 C                     0.187061
     65 N                    -0.520402
     66 N                    -0.548789
     67 C                     0.236186
     68 C                     0.316362
     69 S                     0.609628
     70 N                    -0.556647
     71 C                    -0.240412
     72 S                     0.331700
     73 C                    -0.115382
     74 C                    -0.230002
     75 S                     0.302810
     76 C                     0.171163
     77 C                     0.061570
     78 C                    -0.326509
     79 C                    -0.038801
     80 N                    -0.429135
     81 S                     0.261582
     82 C                     0.104718
     83 C                    -0.303628
     84 C                    -0.233108
     85 H                     0.098924
     86 H                     0.098066
     87 H                     0.114174
     88 H                     0.111025
     89 H                     0.125450
     90 H                     0.099916
     91 H                     0.127584
     92 H                     0.134228
     93 H                     0.094598
     94 C                    -0.182685
     95 H                     0.121439
     96 H                     0.095583
     97 H                     0.117088
     98 C                    -0.187045
     99 H                     0.094245
    100 C                    -0.164769
    101 H                     0.088915
    102 H                     0.094638
    103 H                     0.094255
    104 C                    -0.175796
    105 H                     0.093910
    106 C                    -0.323004
    107 H                     0.090439
    108 H                     0.101456
    109 H                     0.100740
    110 H                     0.103042
  ----------------------------------------
  Sum of atomic charges =     0.000000

                    Cartesian Multipole Moments
 -----------------------------------------------------------------
    Charge (ESU x 10^10)
                 0.0000
    Dipole Moment (Debye)
         X      -1.4796      Y       3.0533      Z       2.3609
       Tot       4.1335
    Quadrupole Moments (Debye-Ang)
        XX    -426.1196     XY      -5.3748     YY    -416.6283
        XZ     -14.3596     YZ       2.9423     ZZ    -437.3458

 Total job time:  78.00s(wall), 911.48s(cpu)
        *  Thank you very much for using Q-Chem.  Have a nice day.  *
