 Q-Chem 4.4, Q-Chem, Inc., Pleasanton, CA (2016)
 Q-Chem 4.4.2 for Intel X86 Linux

User input:
--------------------------------------------------------------
$comment
SP
$end

$rem
MEM_STATIC 5000
MEM_TOTAL 20000
JOBTYPE SP
EXCHANGE B3LYP
BASIS 6-31g(d,p)
$end

$molecule
0 1
C         -22.262000      0.946000    -12.275000
C         -21.517000      0.034000    -13.049000
N         -21.697000      1.819000    -11.460000
C         -20.148000      0.023000    -12.914000
C         -20.376000      1.886000    -11.440000
C         -19.509000      0.973000    -12.098000
C         -18.012000      0.987000    -11.802000
C         -17.190000      0.147000    -12.644000
C         -17.342000      1.502000    -10.647000
N         -15.908000     -0.194000    -12.439000
N         -17.893000      2.259000     -9.718000
C         -15.969000      1.193000    -10.441000
C         -15.244000      0.313000    -11.326000
S         -16.727000      2.474000     -8.594000
N         -15.467000      1.765000     -9.376000
C         -13.829000     -0.183000    -11.114000
S         -12.869000     -0.019000     -9.639000
C         -13.094000     -0.912000    -12.011000
C         -11.482000     -0.883000    -10.277000
S         -13.449000     -1.382000    -13.595000
C         -11.804000     -1.211000    -11.556000
C         -10.218000     -0.906000     -9.638000
C         -11.775000     -1.963000    -13.736000
C         -11.004000     -1.865000    -12.575000
N          -9.487000     -1.978000     -9.924000
S          -9.768000     -0.008000     -8.239000
C          -8.322000     -1.981000     -9.208000
C          -8.346000     -1.100000     -8.165000
C         -23.804000      1.078000    -12.432000
H         -22.085000     -0.657000    -13.665000
H         -19.621000     -0.849000    -13.288000
H         -19.931000      2.557000    -10.707000
H         -17.633000     -0.330000    -13.517000
H         -11.478000     -2.396000    -14.682000
H          -9.994000     -2.232000    -12.433000
H          -7.510000     -2.639000     -9.487000
H          -7.556000     -0.951000     -7.440000
H         -24.170000      0.104000    -12.780000
C         -24.192000      2.209000    -13.370000
H         -24.224000      1.175000    -11.423000
H         -23.790000      1.949000    -14.357000
H         -23.725000      3.151000    -13.056000
C         -25.686000      2.467000    -13.623000
H         -25.916000      3.296000    -14.304000
C         -26.481000      2.634000    -12.352000
H         -26.113000      1.578000    -14.104000
H         -26.025000      3.522000    -11.897000
H         -26.334000      1.765000    -11.698000
C         -27.953000      2.883000    -12.503000
H         -28.303000      2.057000    -13.135000
C         -28.397000      4.253000    -13.075000
H         -28.419000      2.753000    -11.519000
H         -27.900000      5.037000    -12.492000
H         -29.492000      4.318000    -13.081000
H         -28.000000      4.421000    -14.084000
C         -15.683000      6.287000     -8.418000
C         -14.955000      5.543000     -7.436000
N         -15.467000      6.085000     -9.764000
C         -13.967000      4.639000     -7.863000
C         -14.447000      5.298000    -10.115000
C         -13.728000      4.442000     -9.269000
C         -12.514000      3.749000     -9.783000
C         -11.348000      3.592000     -9.035000
C         -12.471000      3.110000    -11.141000
N         -10.272000      2.911000     -9.569000
N         -13.581000      3.076000    -11.953000
C         -11.289000      2.558000    -11.631000
C         -10.167000      2.395000    -10.841000
S         -13.039000      2.290000    -13.262000
N         -11.427000      2.062000    -12.850000
C          -8.974000      1.742000    -11.221000
S          -8.675000      0.757000    -12.628000
C          -7.796000      1.940000    -10.533000
C          -7.017000      0.526000    -12.287000
S          -7.434000      2.856000     -9.111000
C          -6.688000      1.371000    -11.183000
C          -6.130000     -0.415000    -12.964000
C          -5.685000      2.466000     -9.450000
C          -5.473000      1.737000    -10.580000
N          -6.750000     -1.039000    -13.945000
S          -4.410000     -0.726000    -12.762000
C          -5.891000     -1.891000    -14.543000
C          -4.622000     -1.932000    -14.008000
C         -16.911000      7.076000     -8.068000
H         -15.274000      5.677000     -6.406000
H         -13.407000      4.021000     -7.168000
H         -14.251000      5.233000    -11.184000
H         -11.318000      3.861000     -7.980000
H          -4.898000      3.016000     -8.951000
H          -4.495000      1.693000    -11.046000
H          -6.345000     -2.425000    -15.368000
H          -3.699000     -2.394000    -14.333000
H         -16.994000      7.151000     -6.976000
C         -18.191000      6.536000     -8.636000
H         -16.779000      8.118000     -8.383000
H         -18.304000      5.445000     -8.604000
H         -18.148000      6.763000     -9.709000
C         -19.430000      7.131000     -7.901000
H         -19.465000      6.612000     -6.935000
C         -20.689000      6.983000     -8.750000
H         -19.259000      8.205000     -7.755000
H         -20.651000      7.668000     -9.605000
H         -21.505000      7.490000     -8.221000
C         -21.094000      5.464000     -9.116000
H         -20.279000      5.155000     -9.784000
C         -22.431000      5.354000     -9.808000
H         -20.991000      4.821000     -8.233000
H         -22.654000      4.288000     -9.939000
H         -22.361000      5.931000    -10.738000
H         -23.266000      5.780000     -9.239000
$end

--------------------------------------------------------------

             Standard Nuclear Orientation (Angstroms)
    I     Atom           X                Y                Z
 ----------------------------------------------------------------
    1      C       7.7771879638     2.6600738049     0.5107461546
    2      C       6.8657283402     3.7266008430     0.3780569254
    3      N       7.3971915011     1.3949085756     0.5339545795
    4      C       5.5219778250     3.4383329728     0.3168753273
    5      C       6.1161290835     1.1270967404     0.3413775741
    6      C       5.0848380982     2.1024789244     0.2840147036
    7      C       3.6205327493     1.6740080836     0.3163192494
    8      C       2.6480437431     2.7166390125     0.0766655848
    9      C       3.0659416905     0.4510526083     0.8112522376
   10      N       1.3236253695     2.6489673836     0.2844311314
   11      N       3.7562525225    -0.6250691649     1.1354803742
   12      C       1.6587405048     0.3443223597     0.9885640448
   13      C       0.7733481870     1.4594776146     0.7524301825
   14      S       2.6557872537    -1.6767913676     1.7287877150
   15      N       1.2802129530    -0.8393820969     1.3996280934
   16      C      -0.7123359522     1.4848382478     1.0444652435
   17      S      -1.6213871565     0.2827588662     1.9679110017
   18      C      -1.5773798310     2.4910488562     0.7045912973
   19      C      -3.1524501522     1.1278576225     1.8302040833
   20      S      -1.3221490025     3.9011965594    -0.1911328116
   21      C      -2.9014409065     2.2327386385     1.0796434268
   22      C      -4.3960844592     0.5475830594     2.1812042851
   23      C      -3.0783237071     4.1735165072    -0.1535794805
   24      C      -3.8151165623     3.2486286698     0.5905204972
   25      N      -5.3261244270     1.4307826529     2.5280834231
   26      S      -4.6588407291    -1.0865876538     2.6571772073
   27      C      -6.4688163346     0.8020987632     2.9390600294
   28      C      -6.2702374480    -0.5216783166     3.2088130065
   29      C       9.3146244912     2.8968225660     0.5020313289
   30      H       7.2848415889     4.7283621150     0.3975361136
   31      H       4.8318170616     4.2562243974     0.4977640727
   32      H       5.8134618396     0.0858995796     0.4406550220
   33      H       2.9875763699     3.6979955337    -0.2513038861
   34      H      -3.4550650401     5.0529497228    -0.6588291093
   35      H      -4.8781502315     3.2824703966     0.7997265096
   36      H      -7.3956009491     1.3531933176     3.0257437685
   37      H      -7.0151435909    -1.2137756143     3.5803532719
   38      H       9.4791179396     3.9140406803     0.8787875012
   39      C       9.9212549717     2.6864482816    -0.8753905820
   40      H       9.7447812831     2.2525264976     1.2790369342
   41      H       9.4761862176     3.4437641190    -1.5324746913
   42      H       9.6514321928     1.6993882960    -1.2715688913
   43      C      11.4368774213     2.8803060398    -1.0424736744
   44      H      11.8282187484     2.7135818630    -2.0538870491
   45      C      12.2482647567     2.0757059181    -0.0577786778
   46      H      11.6782079605     3.9259955670    -0.8137730326
   47      H      11.9783375325     1.0426670939    -0.3097212929
   48      H      11.9302898763     2.3027148224     0.9678162388
   49      C      13.7404574551     2.2087839296    -0.1428503736
   50      H      13.9190242093     3.2896949388    -0.0800387143
   51      C      14.4493904237     1.5946435299    -1.3763274166
   52      H      14.1704001192     1.7601552524     0.7605839713
   53      H      14.1184351845     0.5538381803    -1.4698520325
   54      H      15.5353357946     1.7182117786    -1.2828419136
   55      H      14.0946625252     2.0407524024    -2.3139142083
   56      C       2.3937036984    -4.8518217720    -0.6186311103
   57      C       1.5311233541    -5.0163352248     0.5112956456
   58      N       2.1427365401    -3.8838415622    -1.5668957352
   59      C       0.3828910076    -4.2119729196     0.6125515604
   60      C       0.9864435446    -3.2213553742    -1.4828210113
   61      C       0.1104293498    -3.2135720887    -0.3883112804
   62      C      -1.2170769891    -2.5499948043    -0.5133437073
   63      C      -2.3915096982    -3.0817448426     0.0173715727
   64      C      -1.3857375045    -1.2150291460    -1.1794925810
   65      N      -3.5813827252    -2.3933757044    -0.1131776871
   66      N      -0.3042521987    -0.5062275690    -1.6491625265
   67      C      -2.6537632566    -0.6689604412    -1.3688273680
   68      C      -3.7863101711    -1.2157886709    -0.7962285787
   69      S      -0.9912487826     0.8326529021    -2.2495588772
   70      N      -2.6166278282     0.4975910091    -1.9923653972
   71      C      -5.0853553675    -0.6637979415    -0.8391914979
   72      S      -5.5738869104     0.9258564277    -1.3622698075
   73      C      -6.2006469752    -1.4298795431    -0.5756092345
   74      C      -7.2448861953     0.6306767870    -1.1641880837
   75      S      -6.3735984122    -3.0786331123    -0.0817636427
   76      C      -7.3994353737    -0.7586756857    -0.8694063711
   77      C      -8.3013491402     1.6362479148    -1.2215618844
   78      C      -8.1649944036    -2.8386316660    -0.3253241239
   79      C      -8.5173877648    -1.6048489517    -0.7801692985
   80      N      -7.8176372797     2.8248853656    -1.5203943564
   81      S     -10.0489645246     1.4799169971    -1.0899331922
   82      C      -8.8289589284     3.7172827483    -1.5677698177
   83      C     -10.0810076876     3.2154283907    -1.2870865297
   84      C       3.7542114467    -5.4830464960    -0.6784559764
   85      H       1.8696815803    -5.7176364663     1.2690369577
   86      H      -0.2897070709    -4.2657116699     1.4630061280
   87      H       0.7822113204    -2.5290103246    -2.2978974070
   88      H      -2.3680030637    -3.9555147088     0.6671866687
   89      H      -8.8267562264    -3.6932292929    -0.3763553495
   90      H      -9.4841437652    -1.4290943006    -1.2385022979
   91      H      -8.4900601418     4.7135073649    -1.8218979859
   92      H     -11.0774046685     3.6291168432    -1.3710681989
   93      H       3.8496961022    -6.2149562783     0.1340517166
   94      C       4.9011009852    -4.5163998240    -0.6249527256
   95      H       3.8330764832    -6.0983610195    -1.5826580241
   96      H       4.7940493982    -3.6885111007     0.0872370101
   97      H       4.9050738671    -4.0201815855    -1.6039617532
   98      C       6.2333794893    -5.2406716282    -0.2646260112
   99      H       6.1633667579    -5.4484499314     0.8103941719
  100      C       7.4381409621    -4.3987496976    -0.6738976281
  101      H       6.2800722559    -6.1766729058    -0.8353749875
  102      H       7.5382633947    -4.3877076852    -1.7654779377
  103      H       8.3385203138    -4.9916981762    -0.4727133225
  104      C       7.5320858950    -2.9492630125     0.0300233188
  105      H       6.6723091820    -2.4193662926    -0.4011651203
  106      C       8.8207452705    -2.2230768603    -0.2708814604
  107      H       7.3021624722    -3.0317081633     1.0996424177
  108      H       8.8265917497    -1.2945729980     0.3131497000
  109      H       8.8680116736    -2.0875337239    -1.3581362352
  110      H       9.7235455922    -2.7766118168     0.0137457189
 ----------------------------------------------------------------

   10   -5663.5201350387      4.41E-06 Convergence criterion met
 Total energy in the final basis set = -5663.5201350387

                    Orbital Energies (a.u.)
 --------------------------------------------------------------

 Alpha MOs
 -- Occupied --
-88.980 -88.978 -88.937 -88.923 -88.922 -88.916 -88.914 -88.906
-14.382 -14.381 -14.377 -14.376 -14.351 -14.344 -14.343 -14.333
-14.329 -14.323 -10.273 -10.269 -10.259 -10.256 -10.254 -10.253
-10.252 -10.243 -10.241 -10.241 -10.239 -10.238 -10.234 -10.233
-10.232 -10.231 -10.231 -10.227 -10.226 -10.225 -10.225 -10.224
-10.223 -10.223 -10.221 -10.220 -10.217 -10.217 -10.216 -10.215
-10.214 -10.208 -10.208 -10.206 -10.201 -10.201 -10.196 -10.194
-10.183 -10.182 -10.178 -10.175 -10.172 -10.171 -10.171 -10.171
-10.171 -10.170 -10.165 -10.158  -8.035  -8.032  -7.997  -7.983
 -7.981  -7.975  -7.972  -7.967  -6.001  -5.998  -5.995  -5.993
 -5.992  -5.990  -5.961  -5.958  -5.954  -5.947  -5.945  -5.943
 -5.941  -5.940  -5.940  -5.938  -5.936  -5.936  -5.933  -5.932
 -5.931  -5.928  -5.927  -5.923  -1.041  -1.029  -0.981  -0.965
 -0.946  -0.943  -0.943  -0.932  -0.914  -0.912  -0.910  -0.899
 -0.847  -0.842  -0.825  -0.825  -0.815  -0.808  -0.805  -0.803
 -0.800  -0.796  -0.794  -0.791  -0.781  -0.777  -0.764  -0.763
 -0.749  -0.747  -0.740  -0.737  -0.721  -0.715  -0.713  -0.706
 -0.695  -0.691  -0.673  -0.666  -0.655  -0.648  -0.641  -0.639
 -0.633  -0.629  -0.622  -0.618  -0.612  -0.610  -0.601  -0.593
 -0.593  -0.585  -0.584  -0.582  -0.577  -0.572  -0.557  -0.550
 -0.549  -0.546  -0.540  -0.534  -0.526  -0.520  -0.520  -0.505
 -0.505  -0.504  -0.501  -0.498  -0.486  -0.481  -0.475  -0.471
 -0.470  -0.467  -0.467  -0.463  -0.453  -0.451  -0.444  -0.443
 -0.442  -0.440  -0.439  -0.436  -0.435  -0.432  -0.429  -0.425
 -0.424  -0.422  -0.422  -0.421  -0.419  -0.417  -0.414  -0.413
 -0.407  -0.406  -0.404  -0.403  -0.399  -0.398  -0.394  -0.392
 -0.391  -0.390  -0.389  -0.387  -0.386  -0.384  -0.382  -0.381
 -0.378  -0.376  -0.373  -0.368  -0.361  -0.355  -0.354  -0.353
 -0.352  -0.351  -0.349  -0.347  -0.346  -0.342  -0.341  -0.337
 -0.334  -0.333  -0.331  -0.327  -0.325  -0.325  -0.319  -0.314
 -0.311  -0.309  -0.306  -0.303  -0.302  -0.300  -0.299  -0.297
 -0.293  -0.292  -0.289  -0.287  -0.284  -0.283  -0.281  -0.273
 -0.270  -0.268  -0.266  -0.259  -0.256  -0.250  -0.247  -0.244
 -0.241  -0.240  -0.230  -0.226  -0.193  -0.191

          Ground-State Mulliken Net Atomic Charges

     Atom                 Charge (a.u.)
  ----------------------------------------
      1 C                     0.248443
      2 C                    -0.117973
      3 N                    -0.465718
      4 C                    -0.080813
      5 C                     0.051757
      6 C                     0.043053
      7 C                     0.039930
      8 C                     0.052805
      9 C                     0.247100
     10 N                    -0.527687
     11 N                    -0.565209
     12 C                     0.243954
     13 C                     0.296206
     14 S                     0.593861
     15 N                    -0.575336
     16 C                    -0.242007
     17 S                     0.289752
     18 C                    -0.084763
     19 C                    -0.212601
     20 S                     0.278855
     21 C                     0.134983
     22 C                     0.032338
     23 C                    -0.323537
     24 C                    -0.025146
     25 N                    -0.422061
     26 S                     0.301595
     27 C                     0.135935
     28 C                    -0.316321
     29 C                    -0.213099
     30 H                     0.090674
     31 H                     0.102302
     32 H                     0.135101
     33 H                     0.107988
     34 H                     0.121697
     35 H                     0.137622
     36 H                     0.116865
     37 H                     0.127544
     38 H                     0.085175
     39 C                    -0.169106
     40 H                     0.117359
     41 H                     0.088855
     42 H                     0.114492
     43 C                    -0.178015
     44 H                     0.091806
     45 C                    -0.164533
     46 H                     0.079879
     47 H                     0.086484
     48 H                     0.090134
     49 C                    -0.174967
     50 H                     0.084973
     51 C                    -0.319092
     52 H                     0.090328
     53 H                     0.104391
     54 H                     0.105006
     55 H                     0.101910
     56 C                     0.251604
     57 C                    -0.113197
     58 N                    -0.469037
     59 C                    -0.107886
     60 C                     0.081379
     61 C                     0.065329
     62 C                     0.043314
     63 C                     0.059338
     64 C                     0.190761
     65 N                    -0.572341
     66 N                    -0.542631
     67 C                     0.237582
     68 C                     0.335240
     69 S                     0.615744
     70 N                    -0.588846
     71 C                    -0.221467
     72 S                     0.387779
     73 C                    -0.096851
     74 C                    -0.224514
     75 S                     0.282484
     76 C                     0.110431
     77 C                     0.070650
     78 C                    -0.314046
     79 C                    -0.081291
     80 N                    -0.419164
     81 S                     0.279907
     82 C                     0.132848
     83 C                    -0.323388
     84 C                    -0.232127
     85 H                     0.093960
     86 H                     0.101422
     87 H                     0.115801
     88 H                     0.113013
     89 H                     0.118540
     90 H                     0.114901
     91 H                     0.114911
     92 H                     0.137761
     93 H                     0.087101
     94 C                    -0.170391
     95 H                     0.118704
     96 H                     0.102227
     97 H                     0.118570
     98 C                    -0.182469
     99 H                     0.091926
    100 C                    -0.182451
    101 H                     0.086933
    102 H                     0.089944
    103 H                     0.079828
    104 C                    -0.181350
    105 H                     0.111537
    106 C                    -0.322769
    107 H                     0.089401
    108 H                     0.127900
    109 H                     0.099827
    110 H                     0.094443
  ----------------------------------------
  Sum of atomic charges =     0.000000

                    Cartesian Multipole Moments
 -----------------------------------------------------------------
    Charge (ESU x 10^10)
                 0.0000
    Dipole Moment (Debye)
         X      -4.8437      Y      -0.0300      Z       0.8618
       Tot       4.9199
    Quadrupole Moments (Debye-Ang)
        XX    -386.5653     XY       4.9180     YY    -418.0907
        XZ       3.5252     YZ     -15.1778     ZZ    -450.0823

 Total job time:  113.96s(wall), 1349.86s(cpu)
        *  Thank you very much for using Q-Chem.  Have a nice day.  *
