 Q-Chem 4.4, Q-Chem, Inc., Pleasanton, CA (2016)
 Q-Chem 4.4.2 for Intel X86 Linux

User input:
--------------------------------------------------------------
$comment
SP
$end

$rem
MEM_STATIC 5000
MEM_TOTAL 20000
JOBTYPE SP
EXCHANGE B3LYP
BASIS 6-31g(d,p)
$end

$molecule
0 1
C          -3.156000     -9.386000      1.158000
C          -2.421000     -8.866000      0.031000
N          -4.273000     -8.823000      1.557000
C          -2.874000     -7.755000     -0.686000
C          -4.648000     -7.659000      0.944000
C          -3.999000     -7.038000     -0.191000
C          -4.539000     -5.783000     -0.858000
C          -5.885000     -5.488000     -0.832000
C          -3.718000     -4.826000     -1.481000
N          -6.425000     -4.401000     -1.479000
N          -2.390000     -4.834000     -1.470000
C          -4.229000     -3.691000     -2.094000
C          -5.635000     -3.462000     -2.062000
S          -1.911000     -3.524000     -2.349000
N          -3.338000     -2.910000     -2.769000
C          -6.305000     -2.357000     -2.712000
S          -5.548000     -1.034000     -3.675000
C          -7.649000     -2.015000     -2.664000
C          -7.084000     -0.173000     -3.956000
S          -8.902000     -2.946000     -1.903000
C          -8.021000     -0.827000     -3.262000
C          -7.303000      0.995000     -4.691000
C          -9.944000     -1.549000     -2.291000
C          -9.351000     -0.556000     -3.030000
N          -8.421000      1.149000     -5.374000
S          -6.178000      2.331000     -4.749000
C          -8.533000      2.460000     -5.860000
C          -7.378000      3.161000     -5.665000
C          -2.753000    -10.680000      1.919000
H          -1.564000     -9.449000     -0.292000
H          -2.380000     -7.572000     -1.636000
H          -5.524000     -7.199000      1.399000
H          -6.615000     -6.215000     -0.480000
H         -10.971000     -1.607000     -1.955000
H          -9.867000      0.328000     -3.387000
H          -9.457000      2.719000     -6.361000
H          -7.119000      4.182000     -5.912000
H          -1.717000    -10.852000      1.600000
C          -3.714000    -11.919000      1.698000
H          -2.718000    -10.508000      3.002000
H          -3.110000    -12.801000      1.946000
H          -3.923000    -12.009000      0.625000
C          -5.037000    -11.825000      2.447000
H          -4.701000    -11.652000      3.477000
C          -5.842000    -13.160000      2.401000
H          -5.657000    -11.045000      1.987000
H          -5.500000    -13.846000      3.186000
H          -5.480000    -13.717000      1.528000
C          -7.376000    -13.046000      2.484000
H          -7.665000    -12.302000      1.731000
C          -7.855000    -12.565000      3.844000
H          -7.782000    -14.003000      2.135000
H          -7.945000    -13.433000      4.509000
H          -8.853000    -12.111000      3.867000
H          -7.228000    -11.818000      4.347000
C         -15.683000      6.287000     -8.418000
C         -14.955000      5.543000     -7.436000
N         -15.467000      6.085000     -9.764000
C         -13.967000      4.639000     -7.863000
C         -14.447000      5.298000    -10.115000
C         -13.728000      4.442000     -9.269000
C         -12.514000      3.749000     -9.783000
C         -11.348000      3.592000     -9.035000
C         -12.471000      3.110000    -11.141000
N         -10.272000      2.911000     -9.569000
N         -13.581000      3.076000    -11.953000
C         -11.289000      2.558000    -11.631000
C         -10.167000      2.395000    -10.841000
S         -13.039000      2.290000    -13.262000
N         -11.427000      2.062000    -12.850000
C          -8.974000      1.742000    -11.221000
S          -8.675000      0.757000    -12.628000
C          -7.796000      1.940000    -10.533000
C          -7.017000      0.526000    -12.287000
S          -7.434000      2.856000     -9.111000
C          -6.688000      1.371000    -11.183000
C          -6.130000     -0.415000    -12.964000
C          -5.685000      2.466000     -9.450000
C          -5.473000      1.737000    -10.580000
N          -6.750000     -1.039000    -13.945000
S          -4.410000     -0.726000    -12.762000
C          -5.891000     -1.891000    -14.543000
C          -4.622000     -1.932000    -14.008000
C         -16.911000      7.076000     -8.068000
H         -15.274000      5.677000     -6.406000
H         -13.407000      4.021000     -7.168000
H         -14.251000      5.233000    -11.184000
H         -11.318000      3.861000     -7.980000
H          -4.898000      3.016000     -8.951000
H          -4.495000      1.693000    -11.046000
H          -6.345000     -2.425000    -15.368000
H          -3.699000     -2.394000    -14.333000
H         -16.994000      7.151000     -6.976000
C         -18.191000      6.536000     -8.636000
H         -16.779000      8.118000     -8.383000
H         -18.304000      5.445000     -8.604000
H         -18.148000      6.763000     -9.709000
C         -19.430000      7.131000     -7.901000
H         -19.465000      6.612000     -6.935000
C         -20.689000      6.983000     -8.750000
H         -19.259000      8.205000     -7.755000
H         -20.651000      7.668000     -9.605000
H         -21.505000      7.490000     -8.221000
C         -21.094000      5.464000     -9.116000
H         -20.279000      5.155000     -9.784000
C         -22.431000      5.354000     -9.808000
H         -20.991000      4.821000     -8.233000
H         -22.654000      4.288000     -9.939000
H         -22.361000      5.931000    -10.738000
H         -23.266000      5.780000     -9.239000
$end

--------------------------------------------------------------

             Standard Nuclear Orientation (Angstroms)
    I     Atom           X                Y                Z
 ----------------------------------------------------------------
    1      C      12.4521734615    -0.8244686385    -0.5236866598
    2      C      11.8509353863     0.4784819041    -0.3767626636
    3      N      11.7421016520    -1.9191384981    -0.3775534202
    4      C      10.4915354037     0.6266007586    -0.0874332801
    5      C      10.4457772562    -1.7808171187     0.0368138769
    6      C       9.7303681781    -0.5358446709     0.2192980000
    7      C       8.2606560552    -0.4843576974     0.6050561721
    8      C       7.4010855543    -1.5067606946     0.2655747066
    9      C       7.6993408888     0.5543908702     1.3692195691
   10      N       6.0526768687    -1.4704577017     0.5343759514
   11      N       8.3825072781     1.5421260969     1.9361691315
   12      C       6.3532248681     0.5904680781     1.7035623481
   13      C       5.5099170686    -0.4816302718     1.2915695286
   14      S       7.2732636887     2.4981807614     2.6936122897
   15      N       5.9134686102     1.7140641825     2.3388679658
   16      C       4.0822717499    -0.5405458640     1.5169199158
   17      S       3.0580050831     0.6795889425     2.3612515148
   18      C       3.2052590052    -1.5754729816     1.2247239082
   19      C       1.5592113188    -0.2753806025     2.2155517539
   20      S       3.6084397310    -3.0290008853     0.3641468137
   21      C       1.9031417155    -1.4445576034     1.6659536982
   22      C       0.2707291912     0.0606581978     2.6389921058
   23      C       1.9482824276    -3.5367608737     0.7812493455
   24      C       1.1829658992    -2.5916404084     1.4175330224
   25      N      -0.7789001973    -0.3231017763     1.9381815544
   26      S      -0.0681619693     0.9575005176     4.1000573455
   27      C      -1.9672587526    -0.0700933089     2.6390750268
   28      C      -1.7329446685     0.6743782121     3.7590348763
   29      C      13.9308788514    -1.0413016822    -0.9507461417
   30      H      12.4852337728     1.3277754122    -0.6113539977
   31      H      10.0885156145     1.6278760848    -0.2101026350
   32      H       9.9565219904    -2.7331663731     0.2359650318
   33      H       7.7056806330    -2.2952335504    -0.4206216164
   34      H       1.6553024869    -4.5294577189     0.4654887908
   35      H       0.1424166830    -2.7317078267     1.6873467489
   36      H      -2.8854470310    -0.4277707577     2.1909063889
   37      H      -2.4095242118     1.0437950630     4.5181806541
   38      H      14.3886573382    -0.0557752750    -0.7964167612
   39      C      14.1326364222    -1.6294078825    -2.4070798877
   40      H      14.4434909850    -1.7301361391    -0.2677864859
   41      H      15.1552350092    -1.3512078699    -2.6919322758
   42      H      13.4838881565    -1.0766299510    -3.0974944344
   43      C      13.8220413816    -3.1155948153    -2.5293301284
   44      H      14.4565201351    -3.5437782084    -1.7433144205
   45      C      14.2637968068    -3.7037819279    -3.9045588603
   46      H      12.7392437502    -3.2665990018    -2.4336900467
   47      H      15.3267171806    -3.9751859631    -3.8865275343
   48      H      14.3220942362    -2.8609539259    -4.6043190826
   49      C      13.4597091424    -4.9068908284    -4.4327756733
   50      H      12.4035469240    -4.6162888585    -4.3684494456
   51      C      13.6652566591    -6.1607095086    -3.5984550302
   52      H      13.6856116775    -4.9911105430    -5.5025238138
   53      H      14.5615857452    -6.6784767337    -3.9621310811
   54      H      12.8758493854    -6.9185212116    -3.6706116585
   55      H      13.7751483804    -6.0152780621    -2.5163642281
   56      C      -9.5268068686    -3.6899255745     1.2031642879
   57      C      -8.1201025397    -3.8031913535     1.4402250277
   58      N     -10.0403508096    -2.6392248950     0.4741398008
   59      C      -7.2675517287    -2.7905883868     0.9674868903
   60      C      -9.2056384176    -1.6516100926     0.1412100410
   61      C      -7.8064003410    -1.6828695838     0.2222572435
   62      C      -7.0265994590    -0.4408764980    -0.0377519088
   63      C      -5.9142561839    -0.0642195470     0.7136008576
   64      C      -7.3480402453     0.4830834693    -1.1767461141
   65      N      -5.2233448787     1.0877465729     0.3937436599
   66      N      -8.3428100812     0.1885551753    -2.0802316190
   67      C      -6.6633518145     1.6868376463    -1.3320060064
   68      C      -5.5457700168     2.0026466931    -0.5831211212
   69      S      -8.2880242883     1.4522890179    -3.0926625016
   70      N      -7.0920652862     2.3847906242    -2.3712785403
   71      C      -4.7276218788     3.1406454535    -0.7553141687
   72      S      -4.7203417028     4.2848769313    -2.0705922094
   73      C      -3.8754861268     3.5701238777     0.2394948297
   74      C      -3.5389825633     5.2988218301    -1.3670921556
   75      S      -3.4947792374     2.9104707186     1.7925897959
   76      C      -3.3068575481     4.8241663529    -0.0397255313
   77      C      -2.8535381846     6.4008385625    -2.0351521268
   78      C      -2.5447139391     4.4409915311     2.0770260307
   79      C      -2.5937771296     5.3395901839     1.0555573505
   80      N      -3.3086645329     6.5785559107    -3.2588406293
   81      S      -1.6663820364     7.5523484115    -1.4346437191
   82      C      -2.6513786291     7.6083146906    -3.8323919311
   83      C      -1.6824459264     8.2045199494    -3.0552331911
   84      C     -10.4686051170    -4.8327158823     1.4482181018
   85      H      -7.7913928039    -4.7226369893     1.9168660167
   86      H      -6.1894099088    -2.8382637332     1.0853269403
   87      H      -9.6636594432    -0.7977127366    -0.3552555122
   88      H      -5.4834420548    -0.7371406687     1.4537781000
   89      H      -2.2270474273     4.7066869104     3.0767079565
   90      H      -2.3316832259     6.3804631284     1.2087444875
   91      H      -2.9939856939     7.8081743947    -4.8396523234
   92      H      -1.0951699628     9.1059922084    -3.1712190037
   93      H      -9.9470729020    -5.6170514994     2.0119554419
   94      C     -11.0809143793    -5.4220309601     0.2111210537
   95      H     -11.2613374415    -4.5131987436     2.1351658871
   96      H     -10.4052393611    -5.5405042573    -0.6453258784
   97      H     -11.8099067443    -4.6767572653    -0.1321634516
   98      C     -11.6851555254    -6.8302132675     0.4962284485
   99      H     -10.8208142885    -7.5020236166     0.5692153035
  100      C     -12.7013550072    -7.2132120939    -0.5754228531
  101      H     -12.2204866858    -6.7863283105     1.4530605442
  102      H     -13.6106748112    -6.6107273921    -0.4665941887
  103      H     -13.1495395905    -8.1690532677    -0.2783635498
  104      C     -12.1162320728    -7.2919235504    -2.0776803737
  105      H     -11.8762786759    -6.2425115735    -2.2946754661
  106      C     -13.1087025315    -7.8368798487    -3.0759579011
  107      H     -11.1474004957    -7.8068058209    -2.0806168151
  108      H     -12.5965013036    -7.9295689374    -4.0415171354
  109      H     -13.9731465185    -7.1620078935    -3.0722921892
  110      H     -13.4909807383    -8.8343784728    -2.8283253758
 ----------------------------------------------------------------

   10   -5663.5180909719      3.60E-06 Convergence criterion met
 Total energy in the final basis set = -5663.5180909719

                    Orbital Energies (a.u.)
 --------------------------------------------------------------

 Alpha MOs
 -- Occupied --
-88.988 -88.983 -88.935 -88.926 -88.923 -88.918 -88.912 -88.905
-14.390 -14.388 -14.383 -14.380 -14.349 -14.346 -14.343 -14.342
-14.329 -14.329 -10.272 -10.264 -10.263 -10.261 -10.257 -10.255
-10.253 -10.248 -10.243 -10.241 -10.240 -10.239 -10.234 -10.233
-10.233 -10.232 -10.231 -10.231 -10.231 -10.230 -10.229 -10.229
-10.225 -10.225 -10.224 -10.224 -10.223 -10.221 -10.218 -10.216
-10.215 -10.213 -10.207 -10.206 -10.200 -10.200 -10.196 -10.189
-10.188 -10.184 -10.181 -10.180 -10.179 -10.177 -10.175 -10.174
-10.172 -10.169 -10.169 -10.167  -8.044  -8.038  -7.996  -7.988
 -7.982  -7.977  -7.970  -7.965  -6.009  -6.004  -6.003  -6.002
 -5.998  -5.996  -5.960  -5.956  -5.953  -5.952  -5.948  -5.946
 -5.945  -5.942  -5.941  -5.939  -5.937  -5.935  -5.933  -5.931
 -5.929  -5.926  -5.926  -5.921  -1.044  -1.034  -0.980  -0.969
 -0.951  -0.945  -0.938  -0.932  -0.917  -0.912  -0.910  -0.904
 -0.847  -0.841  -0.830  -0.827  -0.814  -0.812  -0.807  -0.807
 -0.802  -0.800  -0.796  -0.794  -0.781  -0.778  -0.768  -0.767
 -0.750  -0.750  -0.743  -0.740  -0.721  -0.716  -0.714  -0.707
 -0.697  -0.692  -0.674  -0.669  -0.653  -0.651  -0.648  -0.643
 -0.639  -0.632  -0.625  -0.624  -0.611  -0.609  -0.603  -0.597
 -0.596  -0.593  -0.586  -0.581  -0.578  -0.573  -0.562  -0.558
 -0.558  -0.545  -0.541  -0.538  -0.527  -0.526  -0.521  -0.517
 -0.507  -0.504  -0.503  -0.498  -0.487  -0.486  -0.476  -0.474
 -0.473  -0.472  -0.471  -0.467  -0.455  -0.451  -0.447  -0.444
 -0.442  -0.441  -0.439  -0.437  -0.435  -0.433  -0.429  -0.428
 -0.428  -0.425  -0.424  -0.422  -0.420  -0.414  -0.414  -0.414
 -0.413  -0.409  -0.408  -0.403  -0.400  -0.395  -0.394  -0.393
 -0.392  -0.391  -0.390  -0.390  -0.389  -0.387  -0.386  -0.384
 -0.380  -0.379  -0.376  -0.372  -0.365  -0.362  -0.358  -0.357
 -0.356  -0.354  -0.352  -0.350  -0.347  -0.346  -0.345  -0.339
 -0.337  -0.334  -0.331  -0.330  -0.327  -0.326  -0.318  -0.314
 -0.313  -0.312  -0.307  -0.306  -0.306  -0.303  -0.301  -0.297
 -0.296  -0.294  -0.292  -0.292  -0.289  -0.285  -0.285  -0.279
 -0.270  -0.269  -0.266  -0.263  -0.258  -0.252  -0.250  -0.248
 -0.243  -0.241  -0.231  -0.231  -0.196  -0.192

          Ground-State Mulliken Net Atomic Charges

     Atom                 Charge (a.u.)
  ----------------------------------------
      1 C                     0.270425
      2 C                    -0.127735
      3 N                    -0.464867
      4 C                    -0.052640
      5 C                     0.053694
      6 C                     0.033178
      7 C                     0.059675
      8 C                     0.044639
      9 C                     0.250536
     10 N                    -0.549026
     11 N                    -0.558850
     12 C                     0.170438
     13 C                     0.322916
     14 S                     0.598094
     15 N                    -0.540540
     16 C                    -0.218854
     17 S                     0.297417
     18 C                    -0.124664
     19 C                    -0.226501
     20 S                     0.288141
     21 C                     0.214466
     22 C                     0.029322
     23 C                    -0.317970
     24 C                    -0.046803
     25 N                    -0.419484
     26 S                     0.270698
     27 C                     0.131135
     28 C                    -0.306400
     29 C                    -0.228480
     30 H                     0.087629
     31 H                     0.111122
     32 H                     0.101047
     33 H                     0.121403
     34 H                     0.117359
     35 H                     0.111544
     36 H                     0.127334
     37 H                     0.132166
     38 H                     0.085934
     39 C                    -0.187508
     40 H                     0.115271
     41 H                     0.094265
     42 H                     0.092403
     43 C                    -0.147318
     44 H                     0.092143
     45 C                    -0.188004
     46 H                     0.118408
     47 H                     0.084587
     48 H                     0.082233
     49 C                    -0.175971
     50 H                     0.092865
     51 C                    -0.319833
     52 H                     0.093216
     53 H                     0.100914
     54 H                     0.098462
     55 H                     0.113546
     56 C                     0.249953
     57 C                    -0.111193
     58 N                    -0.470118
     59 C                    -0.097784
     60 C                     0.085873
     61 C                     0.050022
     62 C                     0.027393
     63 C                     0.066332
     64 C                     0.189347
     65 N                    -0.580322
     66 N                    -0.525254
     67 C                     0.226870
     68 C                     0.341679
     69 S                     0.592504
     70 N                    -0.581597
     71 C                    -0.213002
     72 S                     0.375837
     73 C                    -0.103647
     74 C                    -0.219672
     75 S                     0.293558
     76 C                     0.107277
     77 C                     0.072727
     78 C                    -0.313821
     79 C                    -0.077888
     80 N                    -0.416884
     81 S                     0.284861
     82 C                     0.133311
     83 C                    -0.322409
     84 C                    -0.232376
     85 H                     0.093641
     86 H                     0.097285
     87 H                     0.113910
     88 H                     0.106648
     89 H                     0.116722
     90 H                     0.114429
     91 H                     0.115769
     92 H                     0.137905
     93 H                     0.087844
     94 C                    -0.164180
     95 H                     0.118110
     96 H                     0.099069
     97 H                     0.117430
     98 C                    -0.183538
     99 H                     0.094077
    100 C                    -0.181767
    101 H                     0.088344
    102 H                     0.091790
    103 H                     0.081381
    104 C                    -0.181226
    105 H                     0.106664
    106 C                    -0.311819
    107 H                     0.091648
    108 H                     0.101280
    109 H                     0.106620
    110 H                     0.103211
  ----------------------------------------
  Sum of atomic charges =     0.000000

                    Cartesian Multipole Moments
 -----------------------------------------------------------------
    Charge (ESU x 10^10)
                 0.0000
    Dipole Moment (Debye)
         X       0.4065      Y       2.8055      Z       1.9961
       Tot       3.4670
    Quadrupole Moments (Debye-Ang)
        XX    -458.3470     XY      31.9662     YY    -401.8126
        XZ     -13.4814     YZ      -4.0798     ZZ    -433.0437

 Total job time:  86.11s(wall), 1005.99s(cpu)
        *  Thank you very much for using Q-Chem.  Have a nice day.  *
