 Q-Chem 4.4, Q-Chem, Inc., Pleasanton, CA (2016)
 Q-Chem 4.4.2 for Intel X86 Linux

User input:
--------------------------------------------------------------
$comment
SP
$end

$rem
MEM_STATIC 5000
MEM_TOTAL 20000
JOBTYPE SP
EXCHANGE B3LYP
BASIS 6-31g(d,p)
$end

$molecule
0 1
C         -27.509000     -0.549000     -4.751000
C         -26.807000     -1.660000     -4.230000
N         -26.897000      0.612000     -5.137000
C         -25.397000     -1.594000     -4.208000
C         -25.542000      0.662000     -5.067000
C         -24.730000     -0.414000     -4.629000
C         -23.228000     -0.400000     -4.736000
C         -22.595000      0.822000     -4.394000
C         -22.376000     -1.496000     -5.093000
N         -21.273000      0.956000     -4.481000
N         -22.809000     -2.680000     -5.371000
C         -21.048000     -1.287000     -5.289000
C         -20.467000      0.005000     -5.000000
S         -21.506000     -3.477000     -5.919000
N         -20.333000     -2.269000     -5.838000
C         -19.019000      0.241000     -5.186000
S         -17.790000     -1.058000     -5.292000
C         -18.462000      1.505000     -5.077000
C         -16.499000      0.180000     -5.497000
S         -19.179000      3.087000     -4.820000
C         -17.085000      1.442000     -5.426000
C         -15.081000     -0.140000     -5.713000
C         -17.625000      3.795000     -5.303000
C         -16.638000      2.814000     -5.516000
N         -14.296000      0.908000     -5.863000
S         -14.317000     -1.713000     -5.596000
C         -12.955000      0.463000     -5.745000
C         -12.855000     -0.861000     -5.687000
C         -28.907000     -0.563000     -5.106000
H         -27.271000     -2.592000     -3.920000
H         -24.864000     -2.397000     -3.708000
H         -25.041000      1.512000     -5.528000
H         -23.179000      1.670000     -4.040000
H         -17.641000      4.877000     -5.304000
H         -15.612000      3.118000     -5.688000
H         -12.180000      1.219000     -5.741000
H         -11.951000     -1.442000     -5.813000
H         -29.191000      0.497000     -5.111000
C         -29.961000     -1.208000     -4.160000
H         -29.045000     -0.974000     -6.114000
H         -29.728000     -2.254000     -3.924000
H         -30.928000     -1.133000     -4.671000
C         -30.004000     -0.414000     -2.849000
H         -29.105000     -0.561000     -2.237000
C         -31.228000     -0.858000     -2.042000
H         -30.162000      0.652000     -3.054000
H         -31.180000     -1.949000     -1.942000
H         -32.118000     -0.714000     -2.666000
C         -31.291000     -0.187000     -0.637000
H         -31.930000     -0.768000      0.040000
C         -31.797000      1.311000     -0.883000
H         -30.273000     -0.133000     -0.232000
H         -32.860000      1.285000     -1.156000
H         -31.198000      1.823000     -1.646000
H         -31.715000      1.861000      0.062000
C         -15.683000      6.287000     -8.418000
C         -14.955000      5.543000     -7.436000
N         -15.467000      6.085000     -9.764000
C         -13.967000      4.639000     -7.863000
C         -14.447000      5.298000    -10.115000
C         -13.728000      4.442000     -9.269000
C         -12.514000      3.749000     -9.783000
C         -11.348000      3.592000     -9.035000
C         -12.471000      3.110000    -11.141000
N         -10.272000      2.911000     -9.569000
N         -13.581000      3.076000    -11.953000
C         -11.289000      2.558000    -11.631000
C         -10.167000      2.395000    -10.841000
S         -13.039000      2.290000    -13.262000
N         -11.427000      2.062000    -12.850000
C          -8.974000      1.742000    -11.221000
S          -8.675000      0.757000    -12.628000
C          -7.796000      1.940000    -10.533000
C          -7.017000      0.526000    -12.287000
S          -7.434000      2.856000     -9.111000
C          -6.688000      1.371000    -11.183000
C          -6.130000     -0.415000    -12.964000
C          -5.685000      2.466000     -9.450000
C          -5.473000      1.737000    -10.580000
N          -6.750000     -1.039000    -13.945000
S          -4.410000     -0.726000    -12.762000
C          -5.891000     -1.891000    -14.543000
C          -4.622000     -1.932000    -14.008000
C         -16.911000      7.076000     -8.068000
H         -15.274000      5.677000     -6.406000
H         -13.407000      4.021000     -7.168000
H         -14.251000      5.233000    -11.184000
H         -11.318000      3.861000     -7.980000
H          -4.898000      3.016000     -8.951000
H          -4.495000      1.693000    -11.046000
H          -6.345000     -2.425000    -15.368000
H          -3.699000     -2.394000    -14.333000
H         -16.994000      7.151000     -6.976000
C         -18.191000      6.536000     -8.636000
H         -16.779000      8.118000     -8.383000
H         -18.304000      5.445000     -8.604000
H         -18.148000      6.763000     -9.709000
C         -19.430000      7.131000     -7.901000
H         -19.465000      6.612000     -6.935000
C         -20.689000      6.983000     -8.750000
H         -19.259000      8.205000     -7.755000
H         -20.651000      7.668000     -9.605000
H         -21.505000      7.490000     -8.221000
C         -21.094000      5.464000     -9.116000
H         -20.279000      5.155000     -9.784000
C         -22.431000      5.354000     -9.808000
H         -20.991000      4.821000     -8.233000
H         -22.654000      4.288000     -9.939000
H         -22.361000      5.931000    -10.738000
H         -23.266000      5.780000     -9.239000
$end

--------------------------------------------------------------

             Standard Nuclear Orientation (Angstroms)
    I     Atom           X                Y                Z
 ----------------------------------------------------------------
    1      C      11.2684391000     0.8320660597    -1.6150258934
    2      C      10.8863846791     2.1204694187    -1.1761441280
    3      N      10.4846887170    -0.2779768679    -1.4569087344
    4      C       9.5881888399     2.2742193527    -0.6432383945
    5      C       9.2564406670    -0.1070285378    -0.9040901420
    6      C       8.7392177072     1.1468002691    -0.4925591796
    7      C       7.3105254261     1.3376838862    -0.0566110052
    8      C       6.7787770375     0.3242330074     0.7807049252
    9      C       6.4570659814     2.4504987803    -0.3529536915
   10      N       5.5164106551     0.3761869278     1.2013483692
   11      N       6.8258985068     3.4708306870    -1.0526067258
   12      C       5.1432657727     2.4080878107    -0.0097171531
   13      C       4.6351394280     1.3080642687     0.7790171652
   14      S       5.4649736531     4.3229024534    -1.2875093598
   15      N       4.3366451545     3.3498957203    -0.4989114289
   16      C       3.2125910674     1.2597806709     1.1802912061
   17      S       2.1184741523     2.6781753229     1.1922405786
   18      C       2.6603358859     0.1455145410     1.7912340891
   19      C       0.7711587000     1.6341491253     1.7719822198
   20      S       3.3209309314    -1.4373809289     2.1666247086
   21      C       1.2604296099     0.3412695102     1.9456407286
   22      C      -0.6002829922     2.1122237963     1.9964199485
   23      C       1.6587064383    -1.9878262051     2.4555688771
   24      C       0.7278024981    -0.9355947882     2.3654251055
   25      N      -1.4475535724     1.1868659878     2.3999970663
   26      S      -1.1634677459     3.7717913124     1.9771172849
   27      C      -2.6137981221     1.8439785680     2.8672300993
   28      C      -2.6015201696     3.1503689285     2.6232352675
   29      C      12.4264158877     0.5601997597    -2.4309937078
   30      H      11.4903923420     3.0157121050    -1.2933417205
   31      H       9.3350546265     3.2351417132    -0.2056892122
   32      H       8.5662964953    -0.9490628657    -0.9305705661
   33      H       7.3990504261    -0.5091421824     1.1066231916
   34      H       1.6055069055    -3.0358009344     2.7199545358
   35      H      -0.3039087464    -1.1103671810     2.6477414505
   36      H      -3.3753709613     1.2314487503     3.3330530626
   37      H      -3.4478603944     3.8218237565     2.6824774639
   38      H      12.6206250137    -0.5078253252    -2.2701017147
   39      C      13.7978949788     1.2221750755    -2.1105396801
   40      H      12.1985013671     0.7254871583    -3.4915426445
   41      H      13.7372452378     2.3173167235    -2.0775642374
   42      H      14.4932314528     0.8967570716    -2.8931285317
   43      C      14.2836118219     0.7229414044    -0.7445781543
   44      H      13.6937656274     1.1287896804     0.0871204952
   45      C      15.7470115884     1.1359654434    -0.5590161251
   46      H      14.2854551238    -0.3737101387    -0.7181774829
   47      H      15.8086412376     2.2181858981    -0.7251054796
   48      H      16.3241956574     0.7318632069    -1.3991184598
   49      C      16.2944221452     0.7722175795     0.8538760059
   50      H      17.1768836412     1.3787298873     1.0939083551
   51      C      16.5752165140    -0.8029293092     0.8289200188
   52      H      15.5038465715     0.9585226754     1.5911315067
   53      H      17.4555091209    -0.9954561975     0.2018695235
   54      H      15.7015020399    -1.3668168137     0.4799674430
   55      H      16.8223565069    -1.1241489224     1.8477373645
   56      C      -1.4683568100    -4.7540752357     0.9542378872
   57      C      -1.7230813544    -3.7198370758     1.9099108621
   58      N      -2.1640881332    -4.8079904940    -0.2341337176
   59      C      -2.7406194806    -2.7866320530     1.6464084007
   60      C      -3.1897631098    -3.9670851588    -0.3885327447
   61      C      -3.4805900106    -2.8544616572     0.4132787403
   62      C      -4.7529517240    -2.1091906429     0.2037368934
   63      C      -5.5373828399    -1.6249021758     1.2496056735
   64      C      -5.2661202441    -1.7695427542    -1.1658000289
   65      N      -6.6905871322    -0.9162482757     0.9764344629
   66      N      -4.5456763877    -2.0742387788    -2.2974894662
   67      C      -6.5086606114    -1.1603049702    -1.3296620379
   68      C      -7.2361974107    -0.6680740471    -0.2629137433
   69      S      -5.4920534161    -1.5069664996    -3.4839184281
   70      N      -6.8110302152    -0.9570545509    -2.6017795206
   71      C      -8.4410040712     0.0634242107    -0.3489905101
   72      S      -9.1875413819     0.7657534372    -1.7591999631
   73      C      -9.2813809475     0.1939928692     0.7358829992
   74      C     -10.5756606142     1.3106509951    -0.9256427376
   75      S      -9.1354148017    -0.3387233247     2.3751179857
   76      C     -10.5149926642     0.7749962325     0.3974125807
   77      C     -11.5921044411     2.2120320633    -1.4594340045
   78      C     -10.8547197050     0.2312200196     2.5876673531
   79      C     -11.4321749681     0.7310538766     1.4607261236
   80      N     -11.3512904537     2.5159729761    -2.7187058358
   81      S     -13.0850407077     2.8144920716    -0.7494282001
   82      C     -12.3175668449     3.3436737414    -3.1688284626
   83      C     -13.2849061077     3.6868681523    -2.2497314346
   84      C      -0.2510593342    -5.6285301316     1.0349874419
   85      H      -1.0474219693    -3.6819102196     2.7600067090
   86      H      -2.9565342819    -1.9595568697     2.3156441138
   87      H      -3.7708641691    -4.0984096607    -1.2998380910
   88      H      -5.1830713806    -1.6594714579     2.2789522402
   89      H     -11.4273784497    -0.0768827384     3.4525399753
   90      H     -12.5089501375     0.8237177865     1.3738662686
   91      H     -12.1767330742     3.6183766997    -4.2064223782
   92      H     -14.2314602635     4.2045764318    -2.3334653441
   93      H       0.2337359193    -5.4849904777     2.0093323141
   94      C       0.7502644950    -5.4189719311    -0.0632201658
   95      H      -0.5571678358    -6.6812252289     1.0583030452
   96      H       0.9349001977    -4.3752934404    -0.3473308226
   97      H       0.2907310115    -5.8563456612    -0.9588987899
   98      C       2.1353869961    -6.0270869369     0.3122832250
   99      H       2.5653245146    -5.3287889188     1.0411697787
  100      C       2.9865942730    -6.2518868067    -0.9337894817
  101      H       1.9655304055    -7.0083316758     0.7730874145
  102      H       2.5854765149    -7.0868789911    -1.5199520838
  103      H       3.9086225624    -6.7542209611    -0.6171347312
  104      C       3.3172264390    -4.9220908543    -1.7868235347
  105      H       2.3312042961    -4.6402905728    -2.1796071076
  106      C       4.2974583308    -5.1625248272    -2.9092628172
  107      H       3.5960662540    -4.1005251865    -1.1152394290
  108      H       4.5205170198    -4.1937219331    -3.3728485953
  109      H       3.8451776287    -5.9040391801    -3.5788355399
  110      H       5.2572186518    -5.5811005519    -2.5835075579
 ----------------------------------------------------------------

    9   -5663.5094871853      8.64E-06 Convergence criterion met
 Total energy in the final basis set = -5663.5094871853

                    Orbital Energies (a.u.)
 --------------------------------------------------------------

 Alpha MOs
 -- Occupied --
-88.984 -88.981 -88.935 -88.929 -88.926 -88.923 -88.913 -88.910
-14.393 -14.386 -14.385 -14.381 -14.344 -14.344 -14.344 -14.342
-14.331 -14.326 -10.273 -10.272 -10.261 -10.258 -10.255 -10.252
-10.250 -10.247 -10.246 -10.242 -10.242 -10.239 -10.237 -10.233
-10.232 -10.232 -10.231 -10.230 -10.228 -10.228 -10.228 -10.227
-10.227 -10.225 -10.224 -10.223 -10.223 -10.218 -10.215 -10.215
-10.214 -10.212 -10.209 -10.208 -10.203 -10.201 -10.201 -10.200
-10.183 -10.183 -10.182 -10.177 -10.176 -10.175 -10.174 -10.174
-10.174 -10.172 -10.171 -10.168  -8.040  -8.037  -7.996  -7.992
 -7.984  -7.982  -7.971  -7.970  -6.005  -6.002  -6.000  -5.997
 -5.997  -5.995  -5.960  -5.957  -5.956  -5.953  -5.952  -5.948
 -5.948  -5.947  -5.945  -5.943  -5.941  -5.939  -5.936  -5.934
 -5.932  -5.931  -5.928  -5.926  -1.053  -1.032  -0.980  -0.970
 -0.955  -0.944  -0.932  -0.930  -0.921  -0.912  -0.903  -0.902
 -0.847  -0.837  -0.828  -0.825  -0.818  -0.814  -0.810  -0.805
 -0.802  -0.801  -0.792  -0.790  -0.782  -0.778  -0.765  -0.763
 -0.749  -0.746  -0.742  -0.735  -0.723  -0.721  -0.714  -0.706
 -0.696  -0.688  -0.675  -0.667  -0.656  -0.649  -0.642  -0.641
 -0.636  -0.630  -0.622  -0.621  -0.611  -0.610  -0.602  -0.602
 -0.595  -0.589  -0.585  -0.584  -0.574  -0.572  -0.567  -0.559
 -0.552  -0.545  -0.541  -0.538  -0.526  -0.525  -0.520  -0.513
 -0.504  -0.501  -0.500  -0.496  -0.487  -0.485  -0.481  -0.473
 -0.471  -0.471  -0.466  -0.465  -0.460  -0.453  -0.452  -0.447
 -0.443  -0.441  -0.439  -0.438  -0.435  -0.435  -0.429  -0.429
 -0.426  -0.426  -0.424  -0.422  -0.420  -0.417  -0.416  -0.414
 -0.411  -0.409  -0.406  -0.403  -0.400  -0.397  -0.396  -0.393
 -0.391  -0.390  -0.388  -0.387  -0.386  -0.383  -0.382  -0.380
 -0.378  -0.377  -0.370  -0.370  -0.362  -0.362  -0.357  -0.355
 -0.354  -0.353  -0.351  -0.349  -0.348  -0.346  -0.343  -0.342
 -0.337  -0.337  -0.334  -0.334  -0.332  -0.328  -0.327  -0.321
 -0.316  -0.312  -0.309  -0.307  -0.305  -0.304  -0.301  -0.297
 -0.297  -0.292  -0.292  -0.291  -0.287  -0.284  -0.282  -0.280
 -0.268  -0.266  -0.261  -0.260  -0.257  -0.257  -0.255  -0.246
 -0.245  -0.242  -0.230  -0.228  -0.193  -0.193

          Ground-State Mulliken Net Atomic Charges

     Atom                 Charge (a.u.)
  ----------------------------------------
      1 C                     0.281119
      2 C                    -0.112876
      3 N                    -0.487609
      4 C                    -0.070922
      5 C                     0.073540
      6 C                     0.033067
      7 C                     0.012455
      8 C                     0.064983
      9 C                     0.273449
     10 N                    -0.531522
     11 N                    -0.544187
     12 C                     0.191431
     13 C                     0.317985
     14 S                     0.570147
     15 N                    -0.569101
     16 C                    -0.212860
     17 S                     0.319121
     18 C                    -0.122868
     19 C                    -0.239816
     20 S                     0.286782
     21 C                     0.176339
     22 C                     0.075571
     23 C                    -0.314952
     24 C                    -0.067881
     25 N                    -0.443571
     26 S                     0.282926
     27 C                     0.118422
     28 C                    -0.301854
     29 C                    -0.248116
     30 H                     0.094502
     31 H                     0.106840
     32 H                     0.105065
     33 H                     0.121488
     34 H                     0.135334
     35 H                     0.115541
     36 H                     0.116954
     37 H                     0.136374
     38 H                     0.124050
     39 C                    -0.185953
     40 H                     0.115644
     41 H                     0.090324
     42 H                     0.096858
     43 C                    -0.168981
     44 H                     0.097235
     45 C                    -0.172036
     46 H                     0.098012
     47 H                     0.077899
     48 H                     0.087368
     49 C                    -0.182826
     50 H                     0.092439
     51 C                    -0.321386
     52 H                     0.095718
     53 H                     0.106096
     54 H                     0.110169
     55 H                     0.097412
     56 C                     0.250941
     57 C                    -0.109076
     58 N                    -0.470833
     59 C                    -0.093652
     60 C                     0.085626
     61 C                     0.050801
     62 C                     0.030335
     63 C                     0.063129
     64 C                     0.189584
     65 N                    -0.572341
     66 N                    -0.523677
     67 C                     0.228080
     68 C                     0.339241
     69 S                     0.591763
     70 N                    -0.582911
     71 C                    -0.213080
     72 S                     0.375126
     73 C                    -0.099906
     74 C                    -0.223942
     75 S                     0.283953
     76 C                     0.109534
     77 C                     0.071442
     78 C                    -0.312500
     79 C                    -0.079312
     80 N                    -0.417700
     81 S                     0.283326
     82 C                     0.132949
     83 C                    -0.322395
     84 C                    -0.233418
     85 H                     0.090612
     86 H                     0.104863
     87 H                     0.113058
     88 H                     0.111473
     89 H                     0.119214
     90 H                     0.115118
     91 H                     0.115618
     92 H                     0.137707
     93 H                     0.082307
     94 C                    -0.167961
     95 H                     0.118385
     96 H                     0.107188
     97 H                     0.117689
     98 C                    -0.184298
     99 H                     0.090284
    100 C                    -0.181759
    101 H                     0.087825
    102 H                     0.091331
    103 H                     0.081099
    104 C                    -0.184056
    105 H                     0.106532
    106 C                    -0.312507
    107 H                     0.099328
    108 H                     0.102007
    109 H                     0.105394
    110 H                     0.103118
  ----------------------------------------
  Sum of atomic charges =     0.000000

                    Cartesian Multipole Moments
 -----------------------------------------------------------------
    Charge (ESU x 10^10)
                 0.0000
    Dipole Moment (Debye)
         X      -2.5791      Y       3.8020      Z       1.5526
       Tot       4.8495
    Quadrupole Moments (Debye-Ang)
        XX    -371.9268     XY      -4.7623     YY    -430.6934
        XZ      -9.5111     YZ     -10.5076     ZZ    -439.5698

 Total job time:  82.01s(wall), 971.00s(cpu)
        *  Thank you very much for using Q-Chem.  Have a nice day.  *
