 Q-Chem 4.4, Q-Chem, Inc., Pleasanton, CA (2016)
 Q-Chem 4.4.2 for Intel X86 Linux

User input:
--------------------------------------------------------------
$comment
SP
$end

$rem
MEM_STATIC 5000
MEM_TOTAL 20000
JOBTYPE SP
EXCHANGE B3LYP
BASIS 6-31g(d,p)
$end

$molecule
0 1
C          -0.150000    -18.811000     -5.419000
C           0.476000    -18.218000     -4.354000
N          -0.912000    -19.817000     -5.246000
C           0.245000    -18.793000     -3.085000
C          -1.186000    -20.357000     -4.038000
C          -0.557000    -19.884000     -2.891000
C          -0.871000    -20.347000     -1.494000
C          -2.292000    -20.438000     -1.249000
C          -0.092000    -20.448000     -0.359000
N          -2.847000    -20.593000     -0.060000
N           1.280000    -20.326000     -0.411000
C          -0.599000    -20.795000      0.879000
C          -2.075000    -20.866000      0.971000
S           1.767000    -20.791000      1.083000
N           0.308000    -20.983000      1.832000
C          -2.857000    -21.000000      2.210000
S          -4.434000    -20.221000      2.399000
C          -2.541000    -21.775000      3.347000
C          -4.580000    -20.923000      4.061000
S          -1.322000    -22.984000      3.590000
C          -3.493000    -21.779000      4.328000
C          -5.665000    -20.672000      5.009000
C          -1.896000    -23.285000      5.204000
C          -3.035000    -22.521000      5.479000
N          -6.809000    -20.556000      4.371000
S          -5.667000    -20.746000      6.715000
C          -7.853000    -20.480000      5.358000
C          -7.410000    -20.551000      6.624000
C          -0.095000    -18.141000     -6.740000
H           1.189000    -17.415000     -4.517000
H           0.640000    -18.169000     -2.289000
H          -1.964000    -21.116000     -4.111000
H          -2.921000    -20.484000     -2.137000
H          -1.388000    -23.957000      5.883000
H          -3.650000    -22.604000      6.368000
H          -8.875000    -20.438000      5.004000
H          -7.980000    -20.450000      7.539000
H           0.895000    -17.727000     -6.967000
C          -1.123000    -17.121000     -7.086000
H          -0.202000    -18.941000     -7.483000
H          -1.263000    -16.402000     -6.270000
H          -2.035000    -17.696000     -7.286000
C          -0.764000    -16.320000     -8.337000
H          -1.176000    -15.336000     -8.082000
C          -1.388000    -16.730000     -9.776000
H           0.325000    -16.189000     -8.360000
H          -2.471000    -16.616000     -9.640000
H          -1.326000    -17.797000    -10.024000
C          -0.841000    -15.818000    -10.932000
H          -1.105000    -14.756000    -10.858000
C          -1.179000    -16.412000    -12.297000
H           0.253000    -15.746000    -10.933000
H          -1.097000    -17.506000    -12.308000
H          -0.717000    -15.999000    -13.203000
H          -2.251000    -16.181000    -12.329000
C          10.774000    -15.751000     -9.769000
C          11.352000    -16.840000     -9.134000
N           9.515000    -15.381000     -9.443000
C          10.652000    -17.593000     -8.162000
C           8.820000    -16.134000     -8.554000
C           9.344000    -17.250000     -7.840000
C           8.533000    -18.122000     -6.952000
C           8.775000    -19.519000     -6.878000
C           7.364000    -17.714000     -6.225000
N           7.995000    -20.361000     -6.146000
N           6.971000    -16.447000     -6.142000
C           6.535000    -18.635000     -5.588000
C           6.902000    -19.925000     -5.531000
S           5.542000    -16.449000     -5.278000
N           5.479000    -18.018000     -5.031000
C           6.207000    -20.974000     -4.746000
S           7.084000    -22.059000     -3.687000
C           4.862000    -21.159000     -4.578000
C           5.629000    -22.748000     -2.980000
S           3.506000    -20.412000     -5.370000
C           4.553000    -22.230000     -3.720000
C           5.652000    -23.556000     -1.856000
C           2.430000    -21.619000     -4.537000
C           3.150000    -22.410000     -3.616000
N           4.659000    -24.353000     -1.648000
S           7.157000    -23.907000     -1.015000
C           4.959000    -25.208000     -0.618000
C           6.273000    -25.130000     -0.200000
C          11.525000    -14.978000    -10.837000
H          12.375000    -17.109000     -9.379000
H          11.201000    -18.400000     -7.685000
H           7.834000    -15.710000     -8.370000
H           9.597000    -19.977000     -7.427000
H           1.365000    -21.482000     -4.671000
H           2.690000    -22.962000     -2.804000
H           4.277000    -25.925000     -0.181000
H           6.754000    -25.754000      0.541000
H          11.921000    -15.591000    -11.656000
C          12.709000    -14.167000    -10.284000
H          10.831000    -14.225000    -11.231000
H          13.157000    -14.723000     -9.451000
H          12.234000    -13.298000     -9.813000
C          13.762000    -13.649000    -11.321000
H          14.044000    -14.574000    -11.838000
C          14.941000    -12.957000    -10.625000
H          13.262000    -12.934000    -11.986000
H          15.232000    -13.615000     -9.797000
H          14.668000    -11.979000    -10.208000
C          16.089000    -12.853000    -11.576000
H          17.066000    -12.975000    -11.093000
C          16.067000    -11.467000    -12.297000
H          16.120000    -13.642000    -12.338000
H          15.097000    -11.214000    -12.742000
H          16.859000    -11.354000    -13.047000
H          16.348000    -10.714000    -11.550000
$end

--------------------------------------------------------------

             Standard Nuclear Orientation (Angstroms)
    I     Atom           X                Y                Z
 ----------------------------------------------------------------
    1      C      -0.6383995017     3.6110181590    -1.2289335650
    2      C      -0.7052311003     2.9189121349    -0.0481402771
    3      N      -1.5762502399     3.5234877646    -2.0864785626
    4      C      -1.8431084761     2.1047721544     0.1435839251
    5      C      -2.6961099645     2.7887843226    -1.9074113978
    6      C      -2.8468234965     1.9899508150    -0.7786379668
    7      C      -4.0946336887     1.2202329442    -0.4394063002
    8      C      -5.2942508874     2.0035286781    -0.6262574970
    9      C      -4.2909496636     0.0354104327     0.2409778958
   10      N      -6.4953895560     1.6641164503    -0.1928567143
   11      N      -3.2411618774    -0.8022781353     0.5511318367
   12      C      -5.5428009377    -0.4599990508     0.5532915700
   13      C      -6.6783583495     0.4524471477     0.2886554059
   14      S      -3.9780288140    -2.1663007640     1.0820738168
   15      N      -5.5554322239    -1.6781018309     1.0845806325
   16      C      -8.0681302213     0.2503713671     0.7271762413
   17      S      -9.1000963639     1.6101558047     1.1914209651
   18      C      -8.7859162457    -0.9642924129     0.7784122145
   19      C     -10.4639836548     0.4639698216     1.5114727577
   20      S      -8.4069168959    -2.5311742510     0.1397168268
   21      C     -10.0960318646    -0.8475557344     1.1507703925
   22      C     -11.7768448797     0.8175399014     2.0502803325
   23      C      -9.9343142488    -3.1590861504     0.6854795710
   24      C     -10.7118579274    -2.1489565845     1.2614188803
   25      N     -12.1555061266     1.9908465290     1.5928929499
   26      S     -12.8899667101    -0.1311138961     2.9317176606
   27      C     -13.5129383773     2.2071185194     2.0177283426
   28      C     -14.0252135566     1.1945458609     2.7362801864
   29      C       0.4333049005     4.6200978487    -1.4026397943
   30      H       0.1343138581     2.9312919585     0.6408865750
   31      H      -1.8946398170     1.7283996452     1.1607885531
   32      H      -3.4189591289     2.9688763755    -2.7022383840
   33      H      -5.1896359975     2.8803215451    -1.2639023771
   34      H     -10.1929034307    -4.2063341242     0.6012636792
   35      H     -11.7439551060    -2.2508487638     1.5773752025
   36      H     -14.0065756985     3.1085422349     1.6781381776
   37      H     -14.9902094578     1.1416195436     3.2244478988
   38      H       1.4032229092     4.2822562740    -1.0177409415
   39      C       0.2040268649     6.0171476719    -0.9415721489
   40      H       0.6078899140     4.6842259343    -2.4837992006
   41      H      -0.2167729791     6.0398579750     0.0707661016
   42      H      -0.4820466073     6.4490295151    -1.6799150667
   43      C       1.4853083723     6.8497256275    -0.9167800789
   44      H       1.3026873883     7.4907027325    -0.0456756494
   45      C       1.8439695373     7.8333026795    -2.1545746303
   46      H       2.3164358958     6.1923729967    -0.6326576430
   47      H       1.0134582502     8.5503754580    -2.1755181836
   48      H       1.7482720603     7.3830706511    -3.1505515946
   49      C       3.2301836328     8.5442733021    -1.9540247481
   50      H       3.2911167126     9.2215725591    -1.0934616323
   51      C       3.6947976350     9.2016694733    -3.2510479179
   52      H       4.0343065638     7.8418607490    -1.7049787343
   53      H       3.4543026705     8.5974659637    -4.1346662128
   54      H       4.7205916092     9.5833807281    -3.3340674362
   55      H       3.0123491993    10.0604846822    -3.2674664904
   56      C      10.8218086474     0.1054294278     0.7696541432
   57      C      10.5247479877    -1.1770189036     0.3334073761
   58      N       9.8154357928     0.9696310853     1.0316201196
   59      C       9.1911580119    -1.6055448693     0.1341681404
   60      C       8.5385038441     0.5821197097     0.7874178839
   61      C       8.1446999271    -0.7197729671     0.3633637208
   62      C       6.7520372259    -1.0886766960     0.0013559316
   63      C       6.4869302069    -2.0001127175    -1.0544147098
   64      C       5.5643070449    -0.4805239728     0.5314514725
   65      N       5.2246229950    -2.2913200799    -1.4727050097
   66      N       5.5845034132     0.3830903216     1.5415947579
   67      C       4.3055521109    -0.7278521563    -0.0122541335
   68      C       4.1707717612    -1.6604354580    -0.9683716172
   69      S       4.0082256510     0.8858324879     1.7677357107
   70      N       3.3659515941     0.0008136792     0.6140612575
   71      C       2.8774878530    -2.1423934866    -1.5113119375
   72      S       2.5244925939    -3.8516972389    -1.6579749167
   73      C       1.7552159100    -1.4169407317    -1.8040541216
   74      C       0.8376868572    -3.5957182637    -2.0831292075
   75      S       1.4998755482     0.3019492123    -1.8690745788
   76      C       0.6854752014    -2.2100017421    -2.2572594284
   77      C      -0.0908180020    -4.6221165847    -2.1171029145
   78      C      -0.1411374626    -0.0282652786    -2.5807969182
   79      C      -0.4359988419    -1.4085792155    -2.5913894988
   80      N      -1.1579468327    -4.4662671409    -2.8252476805
   81      S       0.3507267492    -6.2671531155    -1.6761947098
   82      C      -1.8411578547    -5.6534455270    -2.9011105757
   83      C      -1.1457779673    -6.7256278125    -2.3773969528
   84      C      12.2589056849     0.5609712415     0.9410827310
   85      H      11.3386135415    -1.8738215358     0.1573279848
   86      H       9.0533127988    -2.6409072382    -0.1644996723
   87      H       7.8335293108     1.3651260691     1.0626268020
   88      H       7.2983743829    -2.4942796741    -1.5875247999
   89      H      -0.7796588634     0.8327168664    -2.7289528050
   90      H      -1.4391586786    -1.8118380764    -2.6732468937
   91      H      -2.8096532239    -5.7897306626    -3.3633065101
   92      H      -1.4499116854    -7.7634517981    -2.3929551162
   93      H      12.8945982996     0.4205735358     0.0581731185
   94      C      12.9800596711    -0.1239157199     2.1142207358
   95      H      12.2247335264     1.6225690097     1.2162616585
   96      H      12.6124990902    -1.1541662354     2.1991447879
   97      H      12.5820068695     0.3858068383     2.9998639375
   98      C      14.5421890838    -0.0183673078     2.1475858455
   99      H      14.8157901708    -0.4014263595     1.1572090444
  100      C      15.1350038172    -0.8366944632     3.3018095493
  101      H      14.8095905257     1.0377863251     2.2759835583
  102      H      14.6296723448    -1.8098662517     3.2734234061
  103      H      14.9466325075    -0.3793605091     4.2817401102
  104      C      16.5942680173    -1.0512563226     3.0617424698
  105      H      16.9507953546    -2.0318222922     3.3995007220
  106      C      17.4275726744     0.0519617862     3.7896395455
  107      H      16.8828937143    -1.0646650316     2.0031389493
  108      H      17.0884275681     1.0738887839     3.5808817715
  109      H      18.5059141896    -0.0249198490     3.6057869119
  110      H      17.3618608829    -0.1557442664     4.8650553516
 ----------------------------------------------------------------

   10   -5663.4787839972      3.51E-06 Convergence criterion met
 Total energy in the final basis set = -5663.4787839972

                    Orbital Energies (a.u.)
 --------------------------------------------------------------

 Alpha MOs
 -- Occupied --
-88.993 -88.986 -88.934 -88.928 -88.921 -88.915 -88.910 -88.902
-14.387 -14.383 -14.381 -14.376 -14.346 -14.346 -14.343 -14.338
-14.328 -14.320 -10.267 -10.266 -10.260 -10.258 -10.254 -10.253
-10.253 -10.249 -10.245 -10.241 -10.240 -10.238 -10.233 -10.232
-10.231 -10.231 -10.229 -10.229 -10.229 -10.228 -10.228 -10.227
-10.226 -10.224 -10.223 -10.222 -10.221 -10.218 -10.217 -10.215
-10.212 -10.208 -10.207 -10.205 -10.203 -10.197 -10.193 -10.192
-10.188 -10.184 -10.182 -10.181 -10.180 -10.179 -10.177 -10.177
-10.177 -10.172 -10.172 -10.169  -8.048  -8.042  -7.995  -7.986
 -7.983  -7.975  -7.971  -7.962  -6.014  -6.008  -6.007  -6.006
 -6.001  -6.000  -5.959  -5.956  -5.952  -5.950  -5.946  -5.946
 -5.943  -5.942  -5.940  -5.940  -5.936  -5.936  -5.932  -5.932
 -5.927  -5.926  -5.923  -5.918  -1.043  -1.036  -0.977  -0.970
 -0.967  -0.961  -0.957  -0.934  -0.912  -0.908  -0.902  -0.901
 -0.846  -0.838  -0.836  -0.830  -0.817  -0.811  -0.811  -0.810
 -0.809  -0.804  -0.795  -0.795  -0.787  -0.782  -0.769  -0.768
 -0.756  -0.747  -0.743  -0.738  -0.729  -0.714  -0.709  -0.709
 -0.694  -0.691  -0.677  -0.673  -0.655  -0.655  -0.650  -0.649
 -0.637  -0.636  -0.629  -0.627  -0.611  -0.610  -0.597  -0.596
 -0.594  -0.589  -0.584  -0.580  -0.579  -0.575  -0.572  -0.569
 -0.549  -0.547  -0.544  -0.541  -0.525  -0.524  -0.517  -0.512
 -0.511  -0.506  -0.503  -0.502  -0.492  -0.486  -0.476  -0.475
 -0.475  -0.470  -0.468  -0.468  -0.467  -0.455  -0.453  -0.449
 -0.447  -0.444  -0.440  -0.437  -0.437  -0.434  -0.433  -0.432
 -0.430  -0.428  -0.423  -0.421  -0.419  -0.417  -0.417  -0.417
 -0.412  -0.411  -0.407  -0.407  -0.401  -0.398  -0.397  -0.396
 -0.395  -0.392  -0.392  -0.388  -0.386  -0.385  -0.384  -0.381
 -0.380  -0.376  -0.374  -0.372  -0.367  -0.363  -0.358  -0.357
 -0.353  -0.351  -0.349  -0.347  -0.346  -0.345  -0.340  -0.339
 -0.335  -0.333  -0.333  -0.331  -0.327  -0.326  -0.324  -0.321
 -0.315  -0.312  -0.309  -0.304  -0.303  -0.302  -0.300  -0.299
 -0.298  -0.297  -0.292  -0.290  -0.288  -0.285  -0.283  -0.282
 -0.272  -0.272  -0.267  -0.266  -0.259  -0.249  -0.248  -0.247
 -0.242  -0.237  -0.235  -0.229  -0.192  -0.187

          Ground-State Mulliken Net Atomic Charges

     Atom                 Charge (a.u.)
  ----------------------------------------
      1 C                     0.291284
      2 C                    -0.108885
      3 N                    -0.481825
      4 C                    -0.064204
      5 C                     0.025601
      6 C                     0.059690
      7 C                     0.014857
      8 C                     0.075643
      9 C                     0.193744
     10 N                    -0.498750
     11 N                    -0.537275
     12 C                     0.254043
     13 C                     0.280678
     14 S                     0.602204
     15 N                    -0.563043
     16 C                    -0.224927
     17 S                     0.364994
     18 C                    -0.123663
     19 C                    -0.210313
     20 S                     0.282762
     21 C                     0.130990
     22 C                     0.039790
     23 C                    -0.300318
     24 C                    -0.080596
     25 N                    -0.419721
     26 S                     0.279120
     27 C                     0.114310
     28 C                    -0.303899
     29 C                    -0.229586
     30 H                     0.091698
     31 H                     0.102753
     32 H                     0.111190
     33 H                     0.110179
     34 H                     0.137354
     35 H                     0.105102
     36 H                     0.120846
     37 H                     0.135618
     38 H                     0.090526
     39 C                    -0.171685
     40 H                     0.110936
     41 H                     0.089803
     42 H                     0.108296
     43 C                    -0.182675
     44 H                     0.091838
     45 C                    -0.182544
     46 H                     0.089120
     47 H                     0.097926
     48 H                     0.098766
     49 C                    -0.176924
     50 H                     0.096597
     51 C                    -0.321714
     52 H                     0.094634
     53 H                     0.104880
     54 H                     0.100589
     55 H                     0.101897
     56 C                     0.279668
     57 C                    -0.112537
     58 N                    -0.486762
     59 C                    -0.093798
     60 C                     0.074642
     61 C                     0.055693
     62 C                     0.053796
     63 C                     0.054154
     64 C                     0.224700
     65 N                    -0.515038
     66 N                    -0.579883
     67 C                     0.262405
     68 C                     0.258765
     69 S                     0.604539
     70 N                    -0.552315
     71 C                    -0.215236
     72 S                     0.295598
     73 C                    -0.091706
     74 C                    -0.215250
     75 S                     0.249544
     76 C                     0.136586
     77 C                     0.068218
     78 C                    -0.305619
     79 C                    -0.057596
     80 N                    -0.429563
     81 S                     0.260844
     82 C                     0.119102
     83 C                    -0.305455
     84 C                    -0.236893
     85 H                     0.084585
     86 H                     0.102899
     87 H                     0.122963
     88 H                     0.113432
     89 H                     0.139658
     90 H                     0.123661
     91 H                     0.112945
     92 H                     0.129797
     93 H                     0.103675
     94 C                    -0.194918
     95 H                     0.120486
     96 H                     0.090026
     97 H                     0.101792
     98 C                    -0.172342
     99 H                     0.093115
    100 C                    -0.165595
    101 H                     0.100062
    102 H                     0.089477
    103 H                     0.098938
    104 C                    -0.175475
    105 H                     0.088193
    106 C                    -0.324717
    107 H                     0.094053
    108 H                     0.104905
    109 H                     0.096657
    110 H                     0.103410
  ----------------------------------------
  Sum of atomic charges =     0.000000

                    Cartesian Multipole Moments
 -----------------------------------------------------------------
    Charge (ESU x 10^10)
                 0.0000
    Dipole Moment (Debye)
         X      -2.4744      Y      -3.1713      Z       3.2013
       Tot       5.1409
    Quadrupole Moments (Debye-Ang)
        XX    -362.5430     XY       8.6131     YY    -420.6166
        XZ     -14.4283     YZ       4.0877     ZZ    -453.1950

 Total job time:  88.36s(wall), 1038.44s(cpu)
        *  Thank you very much for using Q-Chem.  Have a nice day.  *
