 Q-Chem 4.4, Q-Chem, Inc., Pleasanton, CA (2016)
 Q-Chem 4.4.2 for Intel X86 Linux

User input:
--------------------------------------------------------------
$comment
SP
$end

$rem
MEM_STATIC 5000
MEM_TOTAL 20000
JOBTYPE SP
EXCHANGE B3LYP
BASIS 6-31g(d,p)
$end

$molecule
0 1
C          10.774000    -15.751000     -9.769000
C          11.352000    -16.840000     -9.134000
N           9.515000    -15.381000     -9.443000
C          10.652000    -17.593000     -8.162000
C           8.820000    -16.134000     -8.554000
C           9.344000    -17.250000     -7.840000
C           8.533000    -18.122000     -6.952000
C           8.775000    -19.519000     -6.878000
C           7.364000    -17.714000     -6.225000
N           7.995000    -20.361000     -6.146000
N           6.971000    -16.447000     -6.142000
C           6.535000    -18.635000     -5.588000
C           6.902000    -19.925000     -5.531000
S           5.542000    -16.449000     -5.278000
N           5.479000    -18.018000     -5.031000
C           6.207000    -20.974000     -4.746000
S           7.084000    -22.059000     -3.687000
C           4.862000    -21.159000     -4.578000
C           5.629000    -22.748000     -2.980000
S           3.506000    -20.412000     -5.370000
C           4.553000    -22.230000     -3.720000
C           5.652000    -23.556000     -1.856000
C           2.430000    -21.619000     -4.537000
C           3.150000    -22.410000     -3.616000
N           4.659000    -24.353000     -1.648000
S           7.157000    -23.907000     -1.015000
C           4.959000    -25.208000     -0.618000
C           6.273000    -25.130000     -0.200000
C          11.525000    -14.978000    -10.837000
H          12.375000    -17.109000     -9.379000
H          11.201000    -18.400000     -7.685000
H           7.834000    -15.710000     -8.370000
H           9.597000    -19.977000     -7.427000
H           1.365000    -21.482000     -4.671000
H           2.690000    -22.962000     -2.804000
H           4.277000    -25.925000     -0.181000
H           6.754000    -25.754000      0.541000
H          11.921000    -15.591000    -11.656000
C          12.709000    -14.167000    -10.284000
H          10.831000    -14.225000    -11.231000
H          13.157000    -14.723000     -9.451000
H          12.234000    -13.298000     -9.813000
C          13.762000    -13.649000    -11.321000
H          14.044000    -14.574000    -11.838000
C          14.941000    -12.957000    -10.625000
H          13.262000    -12.934000    -11.986000
H          15.232000    -13.615000     -9.797000
H          14.668000    -11.979000    -10.208000
C          16.089000    -12.853000    -11.576000
H          17.066000    -12.975000    -11.093000
C          16.067000    -11.467000    -12.297000
H          16.120000    -13.642000    -12.338000
H          15.097000    -11.214000    -12.742000
H          16.859000    -11.354000    -13.047000
H          16.348000    -10.714000    -11.550000
C           6.713000    -14.123000    -17.684000
C           7.295000    -13.117000    -16.845000
N           5.706000    -14.860000    -17.321000
C           6.877000    -13.000000    -15.565000
C           5.291000    -14.740000    -16.052000
C           5.832000    -13.885000    -15.127000
C           5.375000    -13.739000    -13.696000
C           6.270000    -13.693000    -12.655000
C           4.028000    -13.936000    -13.252000
N           5.975000    -13.628000    -11.324000
N           2.969000    -13.992000    -14.114000
C           3.654000    -13.897000    -11.901000
C           4.663000    -13.672000    -10.962000
S           1.583000    -14.085000    -13.119000
N           2.314000    -13.933000    -11.692000
C           4.254000    -13.690000     -9.565000
S           2.598000    -14.048000     -8.824000
C           5.064000    -13.254000     -8.506000
C           3.150000    -13.601000     -7.196000
S           6.770000    -12.907000     -8.596000
C           4.497000    -13.267000     -7.239000
C           2.371000    -13.736000     -6.016000
C           6.772000    -12.705000     -6.819000
C           5.483000    -12.858000     -6.296000
N           1.091000    -14.145000     -6.142000
S           2.897000    -13.617000     -4.350000
C           0.520000    -14.351000     -4.925000
C           1.348000    -14.168000     -3.891000
C           7.118000    -14.166000    -19.177000
H           7.919000    -12.319000    -17.238000
H           7.165000    -12.155000    -14.947000
H           4.544000    -15.478000    -15.764000
H           7.351000    -13.698000    -12.788000
H           7.658000    -12.510000     -6.231000
H           5.328000    -12.652000     -5.243000
H          -0.513000    -14.675000     -4.931000
H           1.034000    -14.133000     -2.856000
H           6.413000    -13.568000    -19.768000
C           7.344000    -15.577000    -19.778000
H           8.041000    -13.575000    -19.217000
H           6.365000    -16.064000    -19.864000
H           7.889000    -16.296000    -19.153000
C           8.080000    -15.701000    -21.124000
H           9.151000    -15.467000    -21.166000
C           7.433000    -14.842000    -22.167000
H           8.026000    -16.695000    -21.586000
H           7.639000    -13.821000    -21.821000
H           6.347000    -14.970000    -22.246000
C           8.126000    -15.058000    -23.595000
H           9.187000    -14.794000    -23.693000
C           7.292000    -14.225000    -24.640000
H           8.021000    -16.133000    -23.786000
H           6.207000    -14.384000    -24.598000
H           7.660000    -14.562000    -25.617000
H           7.499000    -13.176000    -24.397000
$end

--------------------------------------------------------------

             Standard Nuclear Orientation (Angstroms)
    I     Atom           X                Y                Z
 ----------------------------------------------------------------
    1      C       1.4281843031    -4.0547317206     1.1283495844
    2      C       0.4796624480    -4.9050009183     0.5800991108
    3      N       1.1043176423    -2.7649751836     1.3730850773
    4      C      -0.8203365266    -4.4555837266     0.2487083235
    5      C      -0.1214293935    -2.3156712122     1.0042692079
    6      C      -1.1601733580    -3.1242852920     0.4593084332
    7      C      -2.4553543045    -2.5899049030    -0.0342428972
    8      C      -3.0949130493    -3.1533457148    -1.1696494603
    9      C      -3.1034107839    -1.4016298585     0.4449013588
   10      N      -4.2340066991    -2.6331917502    -1.7035909460
   11      N      -2.6834471632    -0.7307067264     1.5126652409
   12      C      -4.2007055864    -0.8468036853    -0.2103566316
   13      C      -4.7587434891    -1.5058167593    -1.2381374776
   14      S      -3.6731483004     0.6070492135     1.6520987527
   15      N      -4.5890094045     0.2899653053     0.3921800120
   16      C      -6.0221063439    -1.1192693265    -1.9120413130
   17      S      -7.2973027565    -2.2831672656    -2.2070848632
   18      C      -6.4627372041     0.1342121928    -2.2377751398
   19      C      -8.4530727379    -1.0706400618    -2.7414709880
   20      S      -5.6470504567     1.6695267734    -2.1993919602
   21      C      -7.7398342260     0.1366711542    -2.8274387305
   22      C      -9.7983524805    -1.3447158102    -2.9200036131
   23      C      -7.0818538184     2.3866188746    -3.0570820161
   24      C      -8.1307183423     1.4512883853    -3.1888472852
   25      N     -10.4873061753    -0.5773550278    -3.6952598521
   26      S     -10.4605702798    -2.9356041338    -2.5649699132
   27      C     -11.7265408254    -1.1259399219    -3.9080440058
   28      C     -11.8563468837    -2.4076320653    -3.4102291439
   29      C       2.8299161165    -4.5435443782     1.4419801137
   30      H       0.7390757469    -5.9467844747     0.4179055168
   31      H      -1.5100115100    -5.2032179010    -0.1328287763
   32      H      -0.2531443681    -1.2703565600     1.2795807464
   33      H      -2.6807238599    -4.0264520842    -1.6726222060
   34      H      -7.0702045900     3.4602020000    -3.1921137470
   35      H      -9.1634088334     1.7234525411    -3.3762639918
   36      H     -12.5343878925    -0.6550808466    -4.4519712503
   37      H     -12.7101958770    -3.0618475574    -3.5231981065
   38      H       3.3484034042    -5.0235465200     0.6028645815
   39      C       2.8813452109    -5.5365964284     2.6152612709
   40      H       3.3997324827    -3.6723875841     1.7887886329
   41      H       1.9706773515    -6.1482424380     2.5978771167
   42      H       2.7706550509    -4.9005879314     3.5017531661
   43      C       4.1912762902    -6.3796093409     2.7762326874
   44      H       4.2878910648    -6.8385807770     1.7850471315
   45      C       4.0632123559    -7.4035945295     3.9112987481
   46      H       5.0147398248    -5.6901664588     2.9998983297
   47      H       3.0876703005    -7.8861784617     3.7746991634
   48      H       4.0797426504    -6.9353484709     4.9039590012
   49      C       5.1305490791    -8.4398517276     3.7695795232
   50      H       4.8027540899    -9.4444428174     4.0629209409
   51      C       6.3724785645    -8.0556236617     4.6363557035
   52      H       5.4642525876    -8.6095372158     2.7380879801
   53      H       6.7251237853    -7.0295970812     4.4755925106
   54      H       7.2100251112    -8.7555938431     4.5310441306
   55      H       6.0851992408    -8.1963932238     5.6859430131
   56      C       8.5106806991     0.7185923242    -1.8453606173
   57      C       8.2999946745     0.3390094102    -0.4792679373
   58      N       7.7086175857     1.5046173473    -2.4994603231
   59      C       7.1527124534     0.6989207829     0.1380004880
   60      C       6.5728566950     1.8629403775    -1.8841248007
   61      C       6.2134686053     1.4832105126    -0.6168535469
   62      C       4.9391173743     1.8790952986     0.0882919531
   63      C       4.1781460766     0.9612393253     0.7704100488
   64      C       4.2486127317     3.1159656857    -0.1207749839
   65      N       2.9822255213     1.1867335289     1.3882590510
   66      N       4.8210469928     4.1805209014    -0.7585070668
   67      C       3.0112126966     3.4109932005     0.4694774355
   68      C       2.4368177538     2.4298126132     1.2805151071
   69      S       3.6822667974     5.4479190021    -0.6298535760
   70      N       2.6003484888     4.6918584388     0.2929785856
   71      C       1.1282423012     2.7429686187     1.8361927124
   72      S       0.0558676224     4.2255487224     1.5687047980
   73      C       0.5088629927     1.9971350523     2.8499868550
   74      C      -1.1027981428     3.7002826937     2.8082556212
   75      S       1.0080211960     0.4262590459     3.4175559348
   76      C      -0.7072241502     2.4722989521     3.3214720927
   77      C      -2.3285615915     4.3579574827     3.0953685606
   78      C      -0.4760961057     0.3696774078     4.4139149831
   79      C      -1.2081588507     1.5559274487     4.2900038131
   80      N      -2.5968954454     5.5131316693     2.4510654164
   81      S      -3.6686305039     3.7796419171     4.0629218750
   82      C      -3.8539016270     5.9502431256     2.7311279704
   83      C      -4.5591644470     5.1296412057     3.5169051931
   84      C       9.8768810690     0.4006475508    -2.4990659565
   85      H       9.0952857596    -0.0592453683     0.1448588297
   86      H       7.0210193420     0.5800761123     1.2091801502
   87      H       5.8775070535     2.4005540954    -2.5268201923
   88      H       4.4631690226    -0.0819904636     0.8996715188
   89      H      -0.7722284043    -0.4789780098     5.0146267640
   90      H      -2.0742860988     1.6940863017     4.9271895956
   91      H      -4.1524907873     6.8784482962     2.2606168923
   92      H      -5.5092000502     5.3835327735     3.9685880736
   93      H      10.5514460018     1.2577665951    -2.3798221080
   94      C       9.8261613049    -0.1119429534    -3.9612138562
   95      H      10.3159085318    -0.3561503171    -1.8377627931
   96      H       9.5354439356     0.7305674492    -4.6004834649
   97      H       9.0434071569    -0.8437246534    -4.1987059346
   98      C      11.0786557872    -0.7784912369    -4.5576691834
   99      H      11.3862630688    -1.7617406661    -4.1806289728
  100      C      12.2767444616     0.1087070861    -4.4100153179
  101      H      11.0436786546    -0.9303577569    -5.6439974764
  102      H      12.4500596952     0.1258728100    -3.3263824614
  103      H      12.1203259498     1.1380359374    -4.7535795258
  104      C      13.5547764226    -0.5327549305    -5.1319916250
  105      H      13.9235270416    -1.4961322298    -4.7565609922
  106      C      14.7139259896     0.5301032545    -5.0415772460
  107      H      13.2364410727    -0.6693812636    -6.1727254287
  108      H      14.4369797885     1.5443535246    -5.3560087830
  109      H      15.4887884479     0.1503725907    -5.7190097471
  110      H      14.9908354242     0.5586809093    -3.9810097174
 ----------------------------------------------------------------

   10   -5663.5187901612      3.62E-06 Convergence criterion met
 Total energy in the final basis set = -5663.5187901612

                    Orbital Energies (a.u.)
 --------------------------------------------------------------

 Alpha MOs
 -- Occupied --
-88.989 -88.985 -88.933 -88.925 -88.921 -88.916 -88.910 -88.904
-14.386 -14.378 -14.377 -14.372 -14.349 -14.344 -14.341 -14.338
-14.327 -14.325 -10.270 -10.259 -10.258 -10.252 -10.252 -10.250
-10.250 -10.246 -10.244 -10.242 -10.239 -10.235 -10.232 -10.230
-10.230 -10.230 -10.229 -10.228 -10.227 -10.227 -10.226 -10.226
-10.225 -10.223 -10.223 -10.222 -10.222 -10.218 -10.216 -10.213
-10.211 -10.210 -10.207 -10.206 -10.205 -10.197 -10.196 -10.196
-10.188 -10.184 -10.183 -10.180 -10.179 -10.178 -10.178 -10.177
-10.174 -10.171 -10.170 -10.169  -8.044  -8.040  -7.995  -7.983
 -7.982  -7.976  -7.969  -7.964  -6.009  -6.006  -6.003  -6.002
 -6.000  -5.998  -5.959  -5.955  -5.952  -5.947  -5.946  -5.944
 -5.942  -5.941  -5.940  -5.938  -5.937  -5.933  -5.933  -5.930
 -5.929  -5.925  -5.925  -5.920  -1.039  -1.024  -0.978  -0.971
 -0.959  -0.952  -0.949  -0.932  -0.909  -0.908  -0.898  -0.893
 -0.838  -0.837  -0.828  -0.828  -0.814  -0.813  -0.811  -0.810
 -0.810  -0.802  -0.798  -0.795  -0.787  -0.781  -0.768  -0.766
 -0.749  -0.747  -0.740  -0.739  -0.721  -0.716  -0.710  -0.709
 -0.695  -0.691  -0.676  -0.675  -0.654  -0.651  -0.647  -0.644
 -0.636  -0.633  -0.625  -0.625  -0.610  -0.608  -0.600  -0.595
 -0.594  -0.590  -0.583  -0.580  -0.577  -0.576  -0.573  -0.560
 -0.546  -0.543  -0.543  -0.540  -0.524  -0.524  -0.515  -0.511
 -0.510  -0.506  -0.501  -0.495  -0.485  -0.485  -0.476  -0.474
 -0.473  -0.470  -0.467  -0.466  -0.464  -0.463  -0.447  -0.447
 -0.444  -0.439  -0.438  -0.437  -0.436  -0.434  -0.433  -0.432
 -0.428  -0.427  -0.423  -0.423  -0.419  -0.417  -0.415  -0.411
 -0.410  -0.409  -0.406  -0.404  -0.398  -0.396  -0.396  -0.395
 -0.393  -0.393  -0.392  -0.386  -0.385  -0.384  -0.383  -0.381
 -0.376  -0.375  -0.375  -0.372  -0.367  -0.363  -0.361  -0.353
 -0.350  -0.349  -0.348  -0.346  -0.342  -0.340  -0.338  -0.336
 -0.336  -0.334  -0.334  -0.332  -0.330  -0.326  -0.325  -0.316
 -0.313  -0.307  -0.303  -0.303  -0.302  -0.300  -0.297  -0.295
 -0.294  -0.291  -0.291  -0.290  -0.285  -0.282  -0.282  -0.281
 -0.277  -0.271  -0.270  -0.266  -0.256  -0.254  -0.249  -0.246
 -0.245  -0.239  -0.233  -0.229  -0.194  -0.188

          Ground-State Mulliken Net Atomic Charges

     Atom                 Charge (a.u.)
  ----------------------------------------
      1 C                     0.278759
      2 C                    -0.113821
      3 N                    -0.489597
      4 C                    -0.094807
      5 C                     0.072395
      6 C                     0.056834
      7 C                     0.052706
      8 C                     0.053578
      9 C                     0.225239
     10 N                    -0.516521
     11 N                    -0.583877
     12 C                     0.260121
     13 C                     0.256997
     14 S                     0.620848
     15 N                    -0.558866
     16 C                    -0.214104
     17 S                     0.298536
     18 C                    -0.092217
     19 C                    -0.214748
     20 S                     0.256260
     21 C                     0.137532
     22 C                     0.070000
     23 C                    -0.306797
     24 C                    -0.060769
     25 N                    -0.430637
     26 S                     0.261856
     27 C                     0.120778
     28 C                    -0.305210
     29 C                    -0.235780
     30 H                     0.083311
     31 H                     0.101670
     32 H                     0.139446
     33 H                     0.112377
     34 H                     0.131096
     35 H                     0.124613
     36 H                     0.113271
     37 H                     0.130357
     38 H                     0.103501
     39 C                    -0.194378
     40 H                     0.117990
     41 H                     0.090291
     42 H                     0.100008
     43 C                    -0.172249
     44 H                     0.093675
     45 C                    -0.165707
     46 H                     0.098725
     47 H                     0.089725
     48 H                     0.098329
     49 C                    -0.175363
     50 H                     0.088412
     51 C                    -0.324625
     52 H                     0.094265
     53 H                     0.104196
     54 H                     0.096872
     55 H                     0.103421
     56 C                     0.269100
     57 C                    -0.121813
     58 N                    -0.468032
     59 C                    -0.072418
     60 C                     0.082049
     61 C                     0.042961
     62 C                     0.051495
     63 C                     0.047367
     64 C                     0.194951
     65 N                    -0.515053
     66 N                    -0.564984
     67 C                     0.228462
     68 C                     0.303044
     69 S                     0.598746
     70 N                    -0.558888
     71 C                    -0.216598
     72 S                     0.368990
     73 C                    -0.165197
     74 C                    -0.233146
     75 S                     0.327441
     76 C                     0.175159
     77 C                     0.053373
     78 C                    -0.292158
     79 C                    -0.121438
     80 N                    -0.432560
     81 S                     0.278413
     82 C                     0.133707
     83 C                    -0.313446
     84 C                    -0.226718
     85 H                     0.092810
     86 H                     0.105678
     87 H                     0.106971
     88 H                     0.117648
     89 H                     0.133648
     90 H                     0.110629
     91 H                     0.117320
     92 H                     0.133109
     93 H                     0.124523
     94 C                    -0.174968
     95 H                     0.091748
     96 H                     0.116204
     97 H                     0.092722
     98 C                    -0.182525
     99 H                     0.087869
    100 C                    -0.165366
    101 H                     0.087353
    102 H                     0.088311
    103 H                     0.091855
    104 C                    -0.193247
    105 H                     0.095008
    106 C                    -0.314789
    107 H                     0.091746
    108 H                     0.103243
    109 H                     0.096394
    110 H                     0.105384
  ----------------------------------------
  Sum of atomic charges =     0.000000

                    Cartesian Multipole Moments
 -----------------------------------------------------------------
    Charge (ESU x 10^10)
                 0.0000
    Dipole Moment (Debye)
         X      -2.0789      Y      -1.9494      Z       3.3517
       Tot       4.3995
    Quadrupole Moments (Debye-Ang)
        XX    -399.6189     XY     -18.0355     YY    -418.3336
        XZ       0.4188     YZ       0.4608     ZZ    -444.5731

 Total job time:  88.84s(wall), 1041.34s(cpu)
        *  Thank you very much for using Q-Chem.  Have a nice day.  *
