 Q-Chem 4.4, Q-Chem, Inc., Pleasanton, CA (2016)
 Q-Chem 4.4.2 for Intel X86 Linux

User input:
--------------------------------------------------------------
$comment
SP
$end

$rem
MEM_STATIC 5000
MEM_TOTAL 20000
JOBTYPE SP
EXCHANGE B3LYP
BASIS 6-31g(d,p)
$end

$molecule
0 1
C          15.532000    -24.923000    -11.151000
C          15.703000    -23.914000    -10.166000
N          14.803000    -26.001000    -10.848000
C          15.246000    -24.082000     -8.848000
C          14.333000    -26.134000     -9.572000
C          14.514000    -25.217000     -8.470000
C          13.851000    -25.355000     -7.166000
C          12.531000    -25.944000     -7.053000
C          14.396000    -24.897000     -5.929000
N          11.965000    -26.220000     -5.841000
N          15.605000    -24.206000     -5.859000
C          13.781000    -25.090000     -4.730000
C          12.546000    -25.770000     -4.696000
S          15.731000    -23.821000     -4.298000
N          14.368000    -24.515000     -3.623000
C          11.740000    -25.948000     -3.503000
S          12.289000    -26.030000     -1.750000
C          10.401000    -26.176000     -3.515000
C          10.708000    -26.256000     -1.136000
S           9.264000    -26.292000     -4.804000
C           9.942000    -26.503000     -2.232000
C          10.348000    -26.485000      0.280000
C           8.074000    -26.750000     -3.556000
C           8.546000    -26.821000     -2.282000
N           9.437000    -27.390000      0.516000
S          11.120000    -25.779000      1.662000
C           9.279000    -27.590000      1.860000
C           9.952000    -26.640000      2.625000
C          15.828000    -24.710000    -12.633000
H          16.229000    -22.991000    -10.393000
H          15.423000    -23.283000     -8.133000
H          13.723000    -27.035000     -9.530000
H          12.021000    -26.335000     -7.932000
H           7.020000    -26.851000     -3.779000
H           7.917000    -27.060000     -1.433000
H           8.540000    -28.276000      2.252000
H           9.946000    -26.355000      3.669000
H          16.887000    -24.480000    -12.805000
C          15.171000    -23.473000    -13.262000
H          15.600000    -25.612000    -13.214000
H          15.579000    -23.379000    -14.276000
H          15.590000    -22.608000    -12.735000
C          13.633000    -23.518000    -13.283000
H          13.240000    -23.587000    -12.262000
C          13.098000    -24.678000    -14.110000
H          13.249000    -22.546000    -13.616000
H          12.009000    -24.559000    -14.177000
H          13.257000    -25.652000    -13.631000
C          13.609000    -24.859000    -15.565000
H          13.294000    -23.967000    -16.121000
C          13.007000    -26.099000    -16.254000
H          14.701000    -24.882000    -15.665000
H          11.920000    -25.953000    -16.223000
H          13.188000    -26.980000    -15.625000
H          13.317000    -26.181000    -17.303000
C          10.774000    -15.751000     -9.769000
C          11.352000    -16.840000     -9.134000
N           9.515000    -15.381000     -9.443000
C          10.652000    -17.593000     -8.162000
C           8.820000    -16.134000     -8.554000
C           9.344000    -17.250000     -7.840000
C           8.533000    -18.122000     -6.952000
C           8.775000    -19.519000     -6.878000
C           7.364000    -17.714000     -6.225000
N           7.995000    -20.361000     -6.146000
N           6.971000    -16.447000     -6.142000
C           6.535000    -18.635000     -5.588000
C           6.902000    -19.925000     -5.531000
S           5.542000    -16.449000     -5.278000
N           5.479000    -18.018000     -5.031000
C           6.207000    -20.974000     -4.746000
S           7.084000    -22.059000     -3.687000
C           4.862000    -21.159000     -4.578000
C           5.629000    -22.748000     -2.980000
S           3.506000    -20.412000     -5.370000
C           4.553000    -22.230000     -3.720000
C           5.652000    -23.556000     -1.856000
C           2.430000    -21.619000     -4.537000
C           3.150000    -22.410000     -3.616000
N           4.659000    -24.353000     -1.648000
S           7.157000    -23.907000     -1.015000
C           4.959000    -25.208000     -0.618000
C           6.273000    -25.130000     -0.200000
C          11.525000    -14.978000    -10.837000
H          12.375000    -17.109000     -9.379000
H          11.201000    -18.400000     -7.685000
H           7.834000    -15.710000     -8.370000
H           9.597000    -19.977000     -7.427000
H           1.365000    -21.482000     -4.671000
H           2.690000    -22.962000     -2.804000
H           4.277000    -25.925000     -0.181000
H           6.754000    -25.754000      0.541000
H          11.921000    -15.591000    -11.656000
C          12.709000    -14.167000    -10.284000
H          10.831000    -14.225000    -11.231000
H          13.157000    -14.723000     -9.451000
H          12.234000    -13.298000     -9.813000
C          13.762000    -13.649000    -11.321000
H          14.044000    -14.574000    -11.838000
C          14.941000    -12.957000    -10.625000
H          13.262000    -12.934000    -11.986000
H          15.232000    -13.615000     -9.797000
H          14.668000    -11.979000    -10.208000
C          16.089000    -12.853000    -11.576000
H          17.066000    -12.975000    -11.093000
C          16.067000    -11.467000    -12.297000
H          16.120000    -13.642000    -12.338000
H          15.097000    -11.214000    -12.742000
H          16.859000    -11.354000    -13.047000
H          16.348000    -10.714000    -11.550000
$end

--------------------------------------------------------------

             Standard Nuclear Orientation (Angstroms)
    I     Atom           X                Y                Z
 ----------------------------------------------------------------
    1      C      -4.5369197005     6.2748846106    -1.1330925332
    2      C      -4.3900678741     5.4870563754     0.0396428218
    3      N      -3.4547135392     6.5375436707    -1.8714515533
    4      C      -3.1268378177     5.0963176896     0.5147955384
    5      C      -2.2362672361     6.1193152403    -1.4162169034
    6      C      -1.9571016701     5.3867525628    -0.2023501437
    7      C      -0.6381111446     4.8405054113     0.1453667570
    8      C       0.2804531048     4.3852212275    -0.8798386037
    9      C      -0.1620890555     4.6631682827     1.4791255483
   10      N       1.5636378897     4.0191417508    -0.5884649181
   11      N      -0.9518583430     4.9407984959     2.5941358340
   12      C       1.0874047530     4.2059273151     1.7668249054
   13      C       1.9601651515     3.8862734435     0.7062157930
   14      S      -0.0266596959     4.4886433434     3.8352583829
   15      N       1.3875440221     3.9913217223     3.0951711926
   16      C       3.2733216031     3.2931341892     0.8746644748
   17      S       4.4190398931     3.4317426618     2.3061850969
   18      C       3.9164781232     2.5803226023    -0.0862196660
   19      C       5.6293454609     2.4568197933     1.5904205875
   20      S       3.4580924750     2.1247462771    -1.6831162843
   21      C       5.2372548993     2.3107355398     0.2966256337
   22      C       6.9597285673     2.1589668266     2.1635361085
   23      C       5.1119565617     1.4754086674    -1.8457885052
   24      C       5.9215131522     1.6326295962    -0.7637530593
   25      N       7.9734242930     2.1854408847     1.3411237422
   26      S       7.3250243448     1.9255622806     3.8417569857
   27      C       9.1539660400     2.0110171077     2.0098520351
   28      C       8.9660120105     1.6328595100     3.3373775957
   29      C      -5.8832113177     6.5529918286    -1.7960135368
   30      H      -5.2531406035     5.1922304919     0.6298268289
   31      H      -3.0760966232     4.5103669262     1.4286018822
   32      H      -1.4907099752     6.3725361310    -2.1683396003
   33      H       0.0253214185     4.4785277295    -1.9342691227
   34      H       5.4162188495     0.8911857928    -2.7042488089
   35      H       6.9368078729     1.2565348255    -0.7278037410
   36      H      10.1022825268     1.9647119353     1.4912648468
   37      H       9.6063344026     1.2507682121     4.1217183853
   38      H      -6.5546542482     7.1095874487    -1.1301826974
   39      C      -6.7425816143     5.3129946037    -2.0812302536
   40      H      -5.7587919784     7.1593491379    -2.7015518526
   41      H      -7.7184673184     5.6766725190    -2.4260221711
   42      H      -6.9643877059     4.8683969735    -1.1041683287
   43      C      -6.1226779045     4.3360747519    -3.0957532911
   44      H      -5.1605577430     3.9627820453    -2.7261205680
   45      C      -5.9265912984     4.9694610878    -4.4654707045
   46      H      -6.7290429740     3.4227939179    -3.1327468119
   47      H      -5.6058342092     4.1753338801    -5.1517999751
   48      H      -5.1195668784     5.7123604772    -4.4799649338
   49      C      -7.1321098967     5.6743236007    -5.1442937647
   50      H      -7.8922055673     4.9013265120    -5.3138669713
   51      C      -6.7635043107     6.3000303386    -6.5034648356
   52      H      -7.6301357819     6.4268944667    -4.5209156215
   53      H      -6.3837898357     5.4715436496    -7.1144253282
   54      H      -5.9007950151     6.9648545637    -6.3681710035
   55      H      -7.6347418221     6.7340956532    -7.0091895645
   56      C      -6.3968278058    -3.8218644731     0.6753520419
   57      C      -5.5788702431    -2.7436199923     0.9779479199
   58      N      -5.8434013555    -4.9759310029     0.2393398758
   59      C      -4.1738548089    -2.8087604514     0.8247116635
   60      C      -4.5029398892    -5.0243603979     0.0364294252
   61      C      -3.5898219920    -3.9746300907     0.3432029379
   62      C      -2.1417212407    -4.0119040129     0.0141681844
   63      C      -1.4518510311    -2.8380866183    -0.3881759692
   64      C      -1.3417221546    -5.1994076409    -0.0925585497
   65      N      -0.1493649773    -2.8517581223    -0.7838161712
   66      N      -1.7851727325    -6.4025894792     0.2572014377
   67      C      -0.0500355574    -5.1719698772    -0.6141368311
   68      C       0.5213190426    -3.9916523256    -0.9012646741
   69      S      -0.5640443134    -7.4823374392    -0.1054702140
   70      N       0.4675657357    -6.4110840898    -0.6666617747
   71      C       1.9381505670    -3.8058095883    -1.2983816701
   72      S       2.9546015484    -2.6020332185    -0.5331465077
   73      C       2.6968932442    -4.5832613942    -2.1298576104
   74      C       4.4269328100    -3.1688188072    -1.3094130550
   75      S       2.2490913739    -5.8974891003    -3.1768953470
   76      C       4.0266050387    -4.1387242421    -2.2436084964
   77      C       5.6874873720    -2.7417446515    -0.9281272544
   78      C       3.9363724106    -5.8543657033    -3.8549344875
   79      C       4.7575786318    -4.9477197159    -3.1507076803
   80      N       6.6562499529    -2.8441174340    -1.7740237465
   81      S       5.9058666273    -1.6281903349     0.4164225903
   82      C       7.7602625400    -2.1848064833    -1.2961217923
   83      C       7.5115191068    -1.4438955933    -0.1574463524
   84      C      -7.9049637305    -3.7222958753     0.8086416771
   85      H      -6.0301078247    -1.8323462617     1.3585787553
   86      H      -3.6108941499    -1.9312594024     1.1300740799
   87      H      -4.1934523141    -6.0152678996    -0.2924288481
   88      H      -1.9534106785    -1.8712578661    -0.4111778001
   89      H       4.1876617341    -6.6350732294    -4.5608377631
   90      H       5.8413641757    -4.9765307382    -3.1657682166
   91      H       8.7360184106    -2.1780543064    -1.7630659957
   92      H       8.2048638890    -0.7883174167     0.3517768476
   93      H      -8.3594319491    -2.8786371609     0.2747459834
   94      C      -8.3834479786    -3.6273727516     2.2672123559
   95      H      -8.3194092424    -4.6690807967     0.4402475535
   96      H      -7.6431734325    -3.0583666476     2.8433674130
   97      H      -8.2936980941    -4.6549054278     2.6397020304
   98      C      -9.8551022738    -3.1464904165     2.5027708740
   99      H      -9.8734223548    -2.1975467298     1.9535821505
  100      C     -10.1615868168    -2.9905519274     3.9977863965
  101      H     -10.5311760155    -3.8937271616     2.0691678960
  102      H      -9.3092563706    -2.4492476099     4.4264487885
  103      H     -10.2499381334    -3.9563382723     4.5119388845
  104      C     -11.3897718173    -2.1568250170     4.1697807088
  105      H     -11.3508061660    -1.5015342965     5.0482895304
  106      C     -12.6491576526    -3.0730201796     4.2956963226
  107      H     -11.5639640774    -1.4335742226     3.3631262940
  108      H     -12.7307591920    -3.8260823749     3.5024923647
  109      H     -13.5888318678    -2.5129612785     4.3723735457
  110      H     -12.5916419547    -3.5618243390     5.2763804910
 ----------------------------------------------------------------

   10   -5663.5144655228      6.74E-06 Convergence criterion met
 Total energy in the final basis set = -5663.5144655228

                    Orbital Energies (a.u.)
 --------------------------------------------------------------

 Alpha MOs
 -- Occupied --
-88.993 -88.992 -88.935 -88.919 -88.918 -88.916 -88.906 -88.905
-14.394 -14.391 -14.381 -14.376 -14.351 -14.350 -14.346 -14.338
-14.330 -14.329 -10.277 -10.261 -10.260 -10.257 -10.254 -10.254
-10.253 -10.249 -10.246 -10.242 -10.241 -10.241 -10.238 -10.236
-10.232 -10.232 -10.231 -10.231 -10.231 -10.230 -10.229 -10.228
-10.226 -10.226 -10.224 -10.222 -10.222 -10.221 -10.219 -10.213
-10.210 -10.209 -10.205 -10.200 -10.200 -10.198 -10.198 -10.185
-10.184 -10.184 -10.183 -10.182 -10.179 -10.178 -10.178 -10.176
-10.174 -10.173 -10.172 -10.170  -8.048  -8.047  -7.997  -7.981
 -7.978  -7.976  -7.965  -7.965  -6.013  -6.012  -6.008  -6.006
 -6.006  -6.005  -5.960  -5.957  -5.954  -5.945  -5.942  -5.941
 -5.941  -5.938  -5.938  -5.937  -5.934  -5.933  -5.930  -5.930
 -5.926  -5.926  -5.921  -5.921  -1.043  -1.035  -0.984  -0.977
 -0.961  -0.952  -0.936  -0.935  -0.913  -0.909  -0.901  -0.901
 -0.841  -0.838  -0.835  -0.831  -0.818  -0.817  -0.810  -0.809
 -0.808  -0.805  -0.798  -0.796  -0.788  -0.778  -0.769  -0.766
 -0.750  -0.748  -0.740  -0.738  -0.719  -0.716  -0.710  -0.710
 -0.694  -0.693  -0.677  -0.672  -0.656  -0.655  -0.649  -0.643
 -0.637  -0.637  -0.628  -0.624  -0.613  -0.612  -0.605  -0.597
 -0.596  -0.589  -0.585  -0.581  -0.577  -0.573  -0.573  -0.557
 -0.550  -0.547  -0.545  -0.535  -0.527  -0.526  -0.516  -0.512
 -0.506  -0.504  -0.503  -0.500  -0.487  -0.487  -0.477  -0.476
 -0.475  -0.472  -0.469  -0.468  -0.468  -0.465  -0.450  -0.447
 -0.446  -0.445  -0.439  -0.437  -0.435  -0.433  -0.432  -0.432
 -0.429  -0.425  -0.423  -0.422  -0.420  -0.420  -0.418  -0.417
 -0.413  -0.412  -0.407  -0.402  -0.399  -0.398  -0.397  -0.396
 -0.394  -0.393  -0.388  -0.387  -0.387  -0.385  -0.383  -0.382
 -0.381  -0.374  -0.373  -0.372  -0.368  -0.366  -0.363  -0.358
 -0.354  -0.352  -0.348  -0.346  -0.344  -0.343  -0.340  -0.337
 -0.335  -0.334  -0.332  -0.331  -0.327  -0.327  -0.325  -0.320
 -0.317  -0.313  -0.310  -0.306  -0.305  -0.303  -0.303  -0.301
 -0.300  -0.298  -0.295  -0.292  -0.290  -0.286  -0.283  -0.281
 -0.273  -0.272  -0.268  -0.264  -0.255  -0.253  -0.249  -0.249
 -0.241  -0.239  -0.231  -0.230  -0.194  -0.189

          Ground-State Mulliken Net Atomic Charges

     Atom                 Charge (a.u.)
  ----------------------------------------
      1 C                     0.284569
      2 C                    -0.124372
      3 N                    -0.474229
      4 C                    -0.067348
      5 C                     0.046386
      6 C                     0.046490
      7 C                     0.020569
      8 C                     0.060102
      9 C                     0.211851
     10 N                    -0.520693
     11 N                    -0.535840
     12 C                     0.216449
     13 C                     0.272328
     14 S                     0.609356
     15 N                    -0.553486
     16 C                    -0.220607
     17 S                     0.292945
     18 C                    -0.060968
     19 C                    -0.197478
     20 S                     0.295366
     21 C                     0.095137
     22 C                     0.053782
     23 C                    -0.315183
     24 C                    -0.037739
     25 N                    -0.414444
     26 S                     0.282489
     27 C                     0.112144
     28 C                    -0.308536
     29 C                    -0.228995
     30 H                     0.086832
     31 H                     0.113076
     32 H                     0.102380
     33 H                     0.122881
     34 H                     0.123264
     35 H                     0.118737
     36 H                     0.119417
     37 H                     0.141421
     38 H                     0.099734
     39 C                    -0.182470
     40 H                     0.121343
     41 H                     0.098886
     42 H                     0.083287
     43 C                    -0.175498
     44 H                     0.100448
     45 C                    -0.178594
     46 H                     0.086525
     47 H                     0.086953
     48 H                     0.109848
     49 C                    -0.179395
     50 H                     0.088073
     51 C                    -0.317354
     52 H                     0.091114
     53 H                     0.101545
     54 H                     0.106427
     55 H                     0.101538
     56 C                     0.279807
     57 C                    -0.112580
     58 N                    -0.486769
     59 C                    -0.093155
     60 C                     0.074817
     61 C                     0.055268
     62 C                     0.053999
     63 C                     0.054109
     64 C                     0.225143
     65 N                    -0.513893
     66 N                    -0.579858
     67 C                     0.262233
     68 C                     0.257950
     69 S                     0.610637
     70 N                    -0.553839
     71 C                    -0.215180
     72 S                     0.307682
     73 C                    -0.092324
     74 C                    -0.216929
     75 S                     0.251180
     76 C                     0.137006
     77 C                     0.069990
     78 C                    -0.307102
     79 C                    -0.060774
     80 N                    -0.434588
     81 S                     0.273783
     82 C                     0.115867
     83 C                    -0.312992
     84 C                    -0.236651
     85 H                     0.083299
     86 H                     0.101956
     87 H                     0.123613
     88 H                     0.113066
     89 H                     0.130953
     90 H                     0.125180
     91 H                     0.111941
     92 H                     0.135248
     93 H                     0.103291
     94 C                    -0.194771
     95 H                     0.120765
     96 H                     0.089626
     97 H                     0.102123
     98 C                    -0.172745
     99 H                     0.092750
    100 C                    -0.165022
    101 H                     0.100425
    102 H                     0.088958
    103 H                     0.099140
    104 C                    -0.175513
    105 H                     0.088024
    106 C                    -0.324749
    107 H                     0.093737
    108 H                     0.105121
    109 H                     0.096762
    110 H                     0.103523
  ----------------------------------------
  Sum of atomic charges =     0.000000

                    Cartesian Multipole Moments
 -----------------------------------------------------------------
    Charge (ESU x 10^10)
                 0.0000
    Dipole Moment (Debye)
         X       1.5543      Y      -0.9808      Z       3.8716
       Tot       4.2856
    Quadrupole Moments (Debye-Ang)
        XX    -386.0664     XY     -15.8648     YY    -460.9871
        XZ       6.3274     YZ      13.3411     ZZ    -436.5940

 Total job time:  91.25s(wall), 1081.92s(cpu)
        *  Thank you very much for using Q-Chem.  Have a nice day.  *
