 Q-Chem 4.4, Q-Chem, Inc., Pleasanton, CA (2016)
 Q-Chem 4.4.2 for Intel X86 Linux

User input:
--------------------------------------------------------------
$comment
SP
$end

$rem
MEM_STATIC 5000
MEM_TOTAL 20000
JOBTYPE SP
EXCHANGE B3LYP
BASIS 6-31g(d,p)
$end

$molecule
0 1
C         -17.442000     23.034000     -4.842000
C         -18.255000     23.036000     -3.719000
N         -17.165000     21.864000     -5.411000
C         -18.742000     21.836000     -3.130000
C         -17.732000     20.727000     -5.030000
C         -18.453000     20.627000     -3.805000
C         -19.068000     19.350000     -3.377000
C         -20.045000     18.701000     -4.232000
C         -18.728000     18.648000     -2.254000
N         -20.568000     17.477000     -4.024000
N         -17.912000     19.079000     -1.302000
C         -19.247000     17.380000     -2.010000
C         -20.171000     16.771000     -2.888000
S         -17.842000     17.856000     -0.219000
N         -18.956000     16.862000     -0.836000
C         -20.995000     15.633000     -2.551000
S         -21.460000     15.170000     -0.944000
C         -21.857000     15.033000     -3.452000
C         -22.585000     13.977000     -1.542000
S         -21.807000     15.087000     -5.168000
C         -22.647000     14.050000     -2.929000
C         -23.248000     13.024000     -0.725000
C         -22.973000     13.745000     -5.235000
C         -23.298000     13.271000     -3.953000
N         -24.088000     12.190000     -1.280000
S         -22.740000     12.606000      0.891000
C         -24.471000     11.241000     -0.358000
C         -23.790000     11.222000      0.867000
C         -16.842000     24.304000     -5.350000
H         -18.518000     24.030000     -3.369000
H         -19.224000     21.838000     -2.156000
H         -17.500000     19.802000     -5.555000
H         -20.322000     19.126000     -5.195000
H         -23.238000     13.426000     -6.235000
H         -23.845000     12.344000     -3.816000
H         -25.247000     10.561000     -0.682000
H         -23.872000     10.472000      1.643000
H         -16.697000     24.995000     -4.510000
C         -17.679000     25.047000     -6.467000
H         -15.868000     24.126000     -5.824000
H         -17.202000     25.941000     -6.886000
H         -18.581000     25.341000     -5.916000
C         -18.053000     24.114000     -7.699000
H         -17.204000     23.454000     -7.912000
C         -18.356000     24.977000     -8.910000
H         -18.824000     23.373000     -7.453000
H         -18.443000     24.273000     -9.746000
H         -17.539000     25.602000     -9.290000
C         -19.578000     26.023000     -8.848000
H         -19.256000     26.932000     -8.325000
C         -20.759000     25.385000     -8.066000
H         -19.735000     26.327000     -9.891000
H         -20.415000     25.065000     -7.075000
H         -21.169000     24.492000     -8.555000
H         -21.620000     26.056000     -7.963000
C         -23.271000     10.167000     -7.780000
C         -23.575000      8.856000     -8.007000
N         -23.165000     10.677000     -6.566000
C         -23.960000      8.066000     -6.897000
C         -23.380000      9.854000     -5.542000
C         -23.883000      8.538000     -5.572000
C         -24.205000      7.689000     -4.360000
C         -24.708000      8.273000     -3.163000
C         -23.702000      6.401000     -4.215000
N         -24.870000      7.597000     -1.986000
N         -23.051000      5.716000     -5.175000
C         -23.840000      5.725000     -2.986000
C         -24.482000      6.335000     -1.920000
S         -22.606000      4.300000     -4.465000
N         -23.238000      4.502000     -2.932000
C         -24.713000      5.616000     -0.697000
S         -24.726000      3.837000     -0.440000
C         -25.126000      6.204000      0.507000
C         -25.208000      4.014000      1.224000
S         -25.184000      7.902000      0.928000
C         -25.374000      5.331000      1.547000
C         -25.308000      2.876000      2.147000
C         -25.518000      7.484000      2.585000
C         -25.680000      6.121000      2.754000
N         -25.323000      1.677000      1.568000
S         -25.222000      2.941000      3.942000
C         -25.259000      0.733000      2.539000
C         -25.028000      1.173000      3.833000
C         -22.899000     11.077000     -8.940000
H         -23.702000      8.481000     -9.018000
H         -24.165000      7.012000     -7.056000
H         -23.305000     10.358000     -4.579000
H         -25.020000      9.315000     -3.213000
H         -25.639000      8.245000      3.344000
H         -26.065000      5.705000      3.678000
H         -25.257000     -0.322000      2.301000
H         -24.922000      0.486000      4.662000
H         -21.923000     11.557000     -8.798000
C         -23.948000     12.175000     -9.080000
H         -22.840000     10.524000     -9.886000
H         -23.971000     12.771000     -8.159000
H         -24.937000     11.705000     -9.152000
C         -23.750000     13.051000    -10.317000
H         -22.813000     13.611000    -10.205000
C         -24.825000     14.075000    -10.512000
H         -23.642000     12.383000    -11.180000
H         -24.680000     14.770000     -9.675000
H         -25.847000     13.696000    -10.394000
C         -24.681000     14.710000    -11.940000
H         -25.164000     15.693000    -11.880000
C         -25.242000     13.821000    -13.020000
H         -23.667000     15.082000    -12.134000
H         -24.557000     12.990000    -13.228000
H         -25.234000     14.466000    -13.908000
H         -26.256000     13.493000    -12.760000
$end

--------------------------------------------------------------

             Standard Nuclear Orientation (Angstroms)
    I     Atom           X                Y                Z
 ----------------------------------------------------------------
    1      C      11.3984286166     2.2073443082     0.9592164617
    2      C      10.8073858295     3.0533183361     0.0334203891
    3      N      10.6030021411     1.4689397973     1.7282714014
    4      C       9.3960794387     3.1986824411    -0.0722846174
    5      C       9.2885365350     1.4136676336     1.5593212361
    6      C       8.6018563545     2.3547567219     0.7387801600
    7      C       7.1321134068     2.2983302891     0.5690458815
    8      C       6.5153537435     1.0942724811     0.0431111776
    9      C       6.2551642522     3.2728789341     0.9573088323
   10      N       5.1891862304     0.8675161779    -0.0263892252
   11      N       6.5966793314     4.4754479942     1.3990283205
   12      C       4.8794139281     3.0705395020     0.9017138694
   13      C       4.3218628120     1.8678663127     0.4136002017
   14      S       5.1806031904     5.2208468079     1.7346277416
   15      N       4.1377979201     4.1237374680     1.1701551872
   16      C       2.9423195760     1.7054820766     0.0160064140
   17      S       1.8878061640     2.9846532412    -0.4985473691
   18      C       2.4187478317     0.4991902806    -0.4147809248
   19      C       0.6563673395     1.8556841979    -1.0039831423
   20      S       3.0125592237    -1.0844771347    -0.1156863769
   21      C       1.1318084991     0.5564106413    -0.8669213729
   22      C      -0.6558949432     2.2280890109    -1.3971108020
   23      C       1.4703614423    -1.7610697345    -0.6891473233
   24      C       0.5486688954    -0.7535084920    -1.0194928870
   25      N      -1.4906687426     1.2967587579    -1.7778438628
   26      S      -1.3781925062     3.7747207825    -1.0359177876
   27      C      -2.7470287532     1.8400562340    -1.9319911181
   28      C      -2.9364416827     3.1581756430    -1.4944628724
   29      C      12.8820290581     2.1832736639     1.1304307548
   30      H      11.5159892608     3.5484823255    -0.6241499878
   31      H       8.9512126835     3.9894437968    -0.6704434995
   32      H       8.6868187935     0.7627361962     2.1912215631
   33      H       7.1121807336     0.2206075624    -0.2122907678
   34      H       1.4113875500    -2.8415927212    -0.6578718499
   35      H      -0.4950294684    -0.9830225113    -1.2074397953
   36      H      -3.4949210172     1.1779525671    -2.3465124031
   37      H      -3.8771930166     3.6882823295    -1.4211564703
   38      H      13.2895383492     3.1707341511     0.8795045429
   39      C      13.6437076487     1.0971155205     0.2699580868
   40      H      13.1626456406     1.9455435463     2.1647299015
   41      H      14.7235652439     1.0365443620     0.4504150311
   42      H      13.4656922383     1.4527540466    -0.7525255328
   43      C      13.0697658414    -0.3733994932     0.4606552192
   44      H      12.7973323636    -0.5118154953     1.5134567250
   45      C      14.1302623495    -1.3831035466     0.0619775538
   46      H      12.0923374587    -0.5140849305    -0.0177581632
   47      H      13.7273458186    -2.3550664980     0.3702425216
   48      H      15.0583996716    -1.3836500322     0.6459936602
   49      C      14.6845201752    -1.3906081831    -1.4493086345
   50      H      15.4400629804    -0.6038753272    -1.5663576971
   51      C      13.5103597415    -1.1090895455    -2.4267663229
   52      H      15.2332612219    -2.3371515913    -1.5379248857
   53      H      13.0198361176    -0.1673324589    -2.1523630356
   54      H      12.7321151905    -1.8826389835    -2.4017326299
   55      H      13.8230545207    -1.0742973545    -3.4770912624
   56      C      -1.0600381508    -5.0663714569     0.7391283585
   57      C      -2.2640351545    -5.6656178214     0.9714234508
   58      N      -0.9430470014    -3.7807846920     0.4585722306
   59      C      -3.4356954077    -4.9090895908     0.7279028412
   60      C      -2.0664616503    -3.0692699216     0.3967963597
   61      C      -3.3960262785    -3.5357682433     0.4168516613
   62      C      -4.6333262205    -2.6814018300     0.2363637517
   63      C      -4.6286361643    -1.5498157487    -0.6275604024
   64      C      -5.6872878118    -2.7203541102     1.1422476757
   65      N      -5.6507191315    -0.6466747367    -0.7182892327
   66      N      -5.8114636284    -3.6156978402     2.1410299201
   67      C      -6.7181689556    -1.7623233510     1.0652922884
   68      C      -6.6916351420    -0.7829458732     0.0851210214
   69      S      -7.1728936214    -3.1697852160     2.9502587541
   70      N      -7.6554586176    -1.8460244053     2.0529821299
   71      C      -7.7875767655     0.1355867831    -0.0606895317
   72      S      -9.4749970599    -0.0457220240     0.5315932272
   73      C      -7.7542088713     1.2976575338    -0.8445308129
   74      C      -9.9751756389     1.4332913870    -0.2396977160
   75      S      -6.3707113822     2.0775454215    -1.5804102733
   76      C      -8.9376352449     2.0039746888    -0.9210232622
   77      C     -11.3166316943     2.0052681015    -0.0655963392
   78      C      -7.3604520377     3.4476480296    -1.9989330062
   79      C      -8.6906749000     3.2437521983    -1.6803303905
   80      N     -12.2234748011     1.1761038844     0.4474234272
   81      S     -11.7863888281     3.7257661857    -0.2955106221
   82      C     -13.3552027142     1.8806542558     0.6941493988
   83      C     -13.2882145912     3.2566879619     0.5410454115
   84      C       0.2313341995    -5.8448432773     0.9351464134
   85      H      -2.3283491552    -6.7344112749     1.1514769511
   86      H      -4.3990029657    -5.3587655148     0.9471107611
   87      H      -1.8867390021    -2.0283822566     0.1298457302
   88      H      -3.7680374363    -1.4309508936    -1.2839512736
   89      H      -6.9452959523     4.3077242560    -2.5066310558
   90      H      -9.4676554993     3.9139458324    -2.0298996126
   91      H     -14.2323766599     1.4095122979     1.1163627625
   92      H     -14.1316416667     3.8993316492     0.7557215848
   93      H       0.9156168569    -5.3494476078     1.6347751546
   94      C       0.9472161552    -5.9853534808    -0.4040230711
   95      H       0.0427250720    -6.8471174982     1.3402130537
   96      H       1.1932125957    -4.9872039291    -0.7876494826
   97      H       0.2463971064    -6.4160717099    -1.1303421938
   98      C       2.1790620443    -6.8884634520    -0.3432194080
   99      H       2.9329447181    -6.4123156548     0.2963563805
  100      C       2.8373382833    -7.1046156005    -1.6706894234
  101      H       1.8759503719    -7.8274798916     0.1353497512
  102      H       3.2493809027    -6.1190262409    -1.9225891936
  103      H       2.1499059061    -7.3441576632    -2.4905097250
  104      C       3.8945271594    -8.2573797466    -1.5417262362
  105      H       4.6162094958    -8.0929188317    -2.3512354782
  106      C       3.2567301014    -9.6227405415    -1.5628641745
  107      H       4.5966997460    -8.0927966123    -0.7146337078
  108      H       2.7789382460    -9.8386133846    -0.5994515638
  109      H       4.1150035360   -10.3014962497    -1.6482480141
  110      H       2.5738477500    -9.7150704333    -2.4164020385
 ----------------------------------------------------------------

    9   -5663.5329263331      6.38E-06 Convergence criterion met
 Total energy in the final basis set = -5663.5329263331

                    Orbital Energies (a.u.)
 --------------------------------------------------------------

 Alpha MOs
 -- Occupied --
-88.990 -88.982 -88.939 -88.930 -88.921 -88.921 -88.915 -88.896
-14.395 -14.387 -14.381 -14.373 -14.355 -14.351 -14.345 -14.336
-14.329 -14.322 -10.280 -10.261 -10.260 -10.258 -10.255 -10.255
-10.248 -10.247 -10.246 -10.244 -10.242 -10.238 -10.236 -10.233
-10.233 -10.233 -10.233 -10.231 -10.228 -10.228 -10.226 -10.225
-10.225 -10.224 -10.223 -10.218 -10.215 -10.215 -10.215 -10.215
-10.213 -10.213 -10.212 -10.210 -10.200 -10.196 -10.195 -10.191
-10.185 -10.184 -10.183 -10.181 -10.177 -10.176 -10.174 -10.173
-10.173 -10.173 -10.172 -10.169  -8.045  -8.038  -7.998  -7.988
 -7.982  -7.981  -7.975  -7.956  -6.010  -6.005  -6.003  -6.003
 -5.998  -5.996  -5.962  -5.959  -5.955  -5.952  -5.949  -5.946
 -5.945  -5.945  -5.943  -5.941  -5.940  -5.939  -5.937  -5.936
 -5.932  -5.921  -5.917  -5.913  -1.048  -1.034  -0.974  -0.969
 -0.967  -0.952  -0.945  -0.941  -0.919  -0.916  -0.909  -0.907
 -0.852  -0.840  -0.836  -0.829  -0.812  -0.809  -0.807  -0.805
 -0.803  -0.799  -0.798  -0.791  -0.788  -0.779  -0.770  -0.759
 -0.753  -0.745  -0.740  -0.732  -0.730  -0.720  -0.715  -0.704
 -0.700  -0.689  -0.677  -0.669  -0.657  -0.651  -0.650  -0.642
 -0.639  -0.633  -0.632  -0.628  -0.615  -0.612  -0.605  -0.599
 -0.596  -0.587  -0.583  -0.581  -0.581  -0.576  -0.568  -0.550
 -0.545  -0.545  -0.544  -0.532  -0.526  -0.520  -0.518  -0.507
 -0.506  -0.502  -0.500  -0.497  -0.494  -0.492  -0.481  -0.476
 -0.475  -0.472  -0.470  -0.466  -0.464  -0.456  -0.450  -0.447
 -0.446  -0.444  -0.442  -0.438  -0.437  -0.436  -0.434  -0.429
 -0.427  -0.427  -0.423  -0.422  -0.420  -0.418  -0.417  -0.414
 -0.410  -0.410  -0.406  -0.402  -0.397  -0.396  -0.395  -0.395
 -0.393  -0.392  -0.391  -0.388  -0.387  -0.384  -0.382  -0.381
 -0.380  -0.376  -0.374  -0.368  -0.365  -0.365  -0.359  -0.356
 -0.355  -0.353  -0.353  -0.350  -0.346  -0.344  -0.343  -0.341
 -0.340  -0.337  -0.336  -0.332  -0.331  -0.328  -0.324  -0.321
 -0.320  -0.314  -0.312  -0.305  -0.299  -0.299  -0.298  -0.298
 -0.297  -0.295  -0.292  -0.290  -0.287  -0.286  -0.281  -0.279
 -0.277  -0.269  -0.269  -0.256  -0.255  -0.253  -0.252  -0.243
 -0.242  -0.242  -0.239  -0.229  -0.201  -0.186

          Ground-State Mulliken Net Atomic Charges

     Atom                 Charge (a.u.)
  ----------------------------------------
      1 C                     0.312666
      2 C                    -0.123857
      3 N                    -0.481660
      4 C                    -0.055580
      5 C                     0.081651
      6 C                     0.011107
      7 C                    -0.032303
      8 C                     0.069527
      9 C                     0.277207
     10 N                    -0.497683
     11 N                    -0.555810
     12 C                     0.188969
     13 C                     0.264423
     14 S                     0.587083
     15 N                    -0.545906
     16 C                    -0.201656
     17 S                     0.323356
     18 C                    -0.120101
     19 C                    -0.250294
     20 S                     0.269794
     21 C                     0.176845
     22 C                     0.071945
     23 C                    -0.304712
     24 C                    -0.052977
     25 N                    -0.441522
     26 S                     0.264653
     27 C                     0.114616
     28 C                    -0.312308
     29 C                    -0.247256
     30 H                     0.082015
     31 H                     0.111870
     32 H                     0.105032
     33 H                     0.115228
     34 H                     0.150832
     35 H                     0.116166
     36 H                     0.125262
     37 H                     0.138899
     38 H                     0.098462
     39 C                    -0.179765
     40 H                     0.118333
     41 H                     0.100501
     42 H                     0.094129
     43 C                    -0.176847
     44 H                     0.108422
     45 C                    -0.190993
     46 H                     0.102440
     47 H                     0.086614
     48 H                     0.086557
     49 C                    -0.178539
     50 H                     0.095115
     51 C                    -0.315498
     52 H                     0.094559
     53 H                     0.110563
     54 H                     0.102739
     55 H                     0.093976
     56 C                     0.290529
     57 C                    -0.119985
     58 N                    -0.481439
     59 C                    -0.089602
     60 C                     0.058472
     61 C                     0.057480
     62 C                     0.007703
     63 C                     0.057424
     64 C                     0.265049
     65 N                    -0.552176
     66 N                    -0.556896
     67 C                     0.208818
     68 C                     0.337698
     69 S                     0.600312
     70 N                    -0.563267
     71 C                    -0.228829
     72 S                     0.375520
     73 C                    -0.145167
     74 C                    -0.256823
     75 S                     0.304831
     76 C                     0.175280
     77 C                     0.065117
     78 C                    -0.314844
     79 C                    -0.090341
     80 N                    -0.418320
     81 S                     0.274665
     82 C                     0.126534
     83 C                    -0.303909
     84 C                    -0.219505
     85 H                     0.092537
     86 H                     0.110029
     87 H                     0.091334
     88 H                     0.125717
     89 H                     0.134455
     90 H                     0.109298
     91 H                     0.115262
     92 H                     0.132627
     93 H                     0.115257
     94 C                    -0.186939
     95 H                     0.091260
     96 H                     0.108935
     97 H                     0.089875
     98 C                    -0.163531
     99 H                     0.092821
    100 C                    -0.174345
    101 H                     0.085525
    102 H                     0.088802
    103 H                     0.086140
    104 C                    -0.185578
    105 H                     0.087350
    106 C                    -0.305887
    107 H                     0.090355
    108 H                     0.107565
    109 H                     0.103178
    110 H                     0.107336
  ----------------------------------------
  Sum of atomic charges =     0.000000

                    Cartesian Multipole Moments
 -----------------------------------------------------------------
    Charge (ESU x 10^10)
                 0.0000
    Dipole Moment (Debye)
         X      -4.3932      Y       1.2668      Z      -0.3820
       Tot       4.5881
    Quadrupole Moments (Debye-Ang)
        XX    -387.7569     XY     -17.3910     YY    -403.6527
        XZ     -11.9734     YZ     -10.0414     ZZ    -451.6919

 Total job time:  83.41s(wall), 991.24s(cpu)
        *  Thank you very much for using Q-Chem.  Have a nice day.  *
