 Q-Chem 4.4, Q-Chem, Inc., Pleasanton, CA (2016)
 Q-Chem 4.4.2 for Intel X86 Linux

User input:
--------------------------------------------------------------
$comment
SP
$end

$rem
MEM_STATIC 5000
MEM_TOTAL 20000
JOBTYPE SP
EXCHANGE B3LYP
BASIS 6-31g(d,p)
$end

$molecule
0 1
C         -27.509000     -0.549000     -4.751000
C         -26.807000     -1.660000     -4.230000
N         -26.897000      0.612000     -5.137000
C         -25.397000     -1.594000     -4.208000
C         -25.542000      0.662000     -5.067000
C         -24.730000     -0.414000     -4.629000
C         -23.228000     -0.400000     -4.736000
C         -22.595000      0.822000     -4.394000
C         -22.376000     -1.496000     -5.093000
N         -21.273000      0.956000     -4.481000
N         -22.809000     -2.680000     -5.371000
C         -21.048000     -1.287000     -5.289000
C         -20.467000      0.005000     -5.000000
S         -21.506000     -3.477000     -5.919000
N         -20.333000     -2.269000     -5.838000
C         -19.019000      0.241000     -5.186000
S         -17.790000     -1.058000     -5.292000
C         -18.462000      1.505000     -5.077000
C         -16.499000      0.180000     -5.497000
S         -19.179000      3.087000     -4.820000
C         -17.085000      1.442000     -5.426000
C         -15.081000     -0.140000     -5.713000
C         -17.625000      3.795000     -5.303000
C         -16.638000      2.814000     -5.516000
N         -14.296000      0.908000     -5.863000
S         -14.317000     -1.713000     -5.596000
C         -12.955000      0.463000     -5.745000
C         -12.855000     -0.861000     -5.687000
C         -28.907000     -0.563000     -5.106000
H         -27.271000     -2.592000     -3.920000
H         -24.864000     -2.397000     -3.708000
H         -25.041000      1.512000     -5.528000
H         -23.179000      1.670000     -4.040000
H         -17.641000      4.877000     -5.304000
H         -15.612000      3.118000     -5.688000
H         -12.180000      1.219000     -5.741000
H         -11.951000     -1.442000     -5.813000
H         -29.191000      0.497000     -5.111000
C         -29.961000     -1.208000     -4.160000
H         -29.045000     -0.974000     -6.114000
H         -29.728000     -2.254000     -3.924000
H         -30.928000     -1.133000     -4.671000
C         -30.004000     -0.414000     -2.849000
H         -29.105000     -0.561000     -2.237000
C         -31.228000     -0.858000     -2.042000
H         -30.162000      0.652000     -3.054000
H         -31.180000     -1.949000     -1.942000
H         -32.118000     -0.714000     -2.666000
C         -31.291000     -0.187000     -0.637000
H         -31.930000     -0.768000      0.040000
C         -31.797000      1.311000     -0.883000
H         -30.273000     -0.133000     -0.232000
H         -32.860000      1.285000     -1.156000
H         -31.198000      1.823000     -1.646000
H         -31.715000      1.861000      0.062000
C         -23.271000     10.167000     -7.780000
C         -23.575000      8.856000     -8.007000
N         -23.165000     10.677000     -6.566000
C         -23.960000      8.066000     -6.897000
C         -23.380000      9.854000     -5.542000
C         -23.883000      8.538000     -5.572000
C         -24.205000      7.689000     -4.360000
C         -24.708000      8.273000     -3.163000
C         -23.702000      6.401000     -4.215000
N         -24.870000      7.597000     -1.986000
N         -23.051000      5.716000     -5.175000
C         -23.840000      5.725000     -2.986000
C         -24.482000      6.335000     -1.920000
S         -22.606000      4.300000     -4.465000
N         -23.238000      4.502000     -2.932000
C         -24.713000      5.616000     -0.697000
S         -24.726000      3.837000     -0.440000
C         -25.126000      6.204000      0.507000
C         -25.208000      4.014000      1.224000
S         -25.184000      7.902000      0.928000
C         -25.374000      5.331000      1.547000
C         -25.308000      2.876000      2.147000
C         -25.518000      7.484000      2.585000
C         -25.680000      6.121000      2.754000
N         -25.323000      1.677000      1.568000
S         -25.222000      2.941000      3.942000
C         -25.259000      0.733000      2.539000
C         -25.028000      1.173000      3.833000
C         -22.899000     11.077000     -8.940000
H         -23.702000      8.481000     -9.018000
H         -24.165000      7.012000     -7.056000
H         -23.305000     10.358000     -4.579000
H         -25.020000      9.315000     -3.213000
H         -25.639000      8.245000      3.344000
H         -26.065000      5.705000      3.678000
H         -25.257000     -0.322000      2.301000
H         -24.922000      0.486000      4.662000
H         -21.923000     11.557000     -8.798000
C         -23.948000     12.175000     -9.080000
H         -22.840000     10.524000     -9.886000
H         -23.971000     12.771000     -8.159000
H         -24.937000     11.705000     -9.152000
C         -23.750000     13.051000    -10.317000
H         -22.813000     13.611000    -10.205000
C         -24.825000     14.075000    -10.512000
H         -23.642000     12.383000    -11.180000
H         -24.680000     14.770000     -9.675000
H         -25.847000     13.696000    -10.394000
C         -24.681000     14.710000    -11.940000
H         -25.164000     15.693000    -11.880000
C         -25.242000     13.821000    -13.020000
H         -23.667000     15.082000    -12.134000
H         -24.557000     12.990000    -13.228000
H         -25.234000     14.466000    -13.908000
H         -26.256000     13.493000    -12.760000
$end

--------------------------------------------------------------

             Standard Nuclear Orientation (Angstroms)
    I     Atom           X                Y                Z
 ----------------------------------------------------------------
    1      C       1.9427615838     3.5323391320     4.4966293948
    2      C       3.3149482150     3.4623490940     4.1638062529
    3      N       1.0089170061     2.6534285465     4.0202771224
    4      C       3.7462260396     2.3674115188     3.3840299104
    5      C       1.4466726650     1.6329276920     3.2390134095
    6      C       2.8061171255     1.4215632996     2.8981324151
    7      C       3.2872624548     0.1836992429     2.1883150096
    8      C       2.4700786217    -0.2762835178     1.1245653009
    9      C       4.4985612736    -0.5408802290     2.4379322380
   10      N       2.7843601920    -1.3788744504     0.4472697008
   11      N       5.3646305768    -0.2031816001     3.3337629128
   12      C       4.7218978727    -1.7253878281     1.8112397207
   13      C       3.8110056344    -2.1872104454     0.7878428278
   14      S       6.4158840760    -1.4386316421     3.3767893471
   15      N       5.7385886961    -2.4766550768     2.2341904159
   16      C       4.0534120108    -3.4630134083     0.0803388005
   17      S       5.6365474108    -4.2991994743     0.0207303428
   18      C       3.1189529124    -4.0119066291    -0.7829852555
   19      C       4.9078203824    -5.6079346042    -0.9780285259
   20      S       1.4888922872    -3.5232347339    -1.2153787534
   21      C       3.5722705036    -5.2889158740    -1.2138559436
   22      C       5.6395092866    -6.7989165683    -1.4318713497
   23      C       1.2706407996    -5.1304960385    -1.9354804038
   24      C       2.4563963538    -5.8889486161    -1.9103317797
   25      N       4.9217519822    -7.6525018447    -2.1341858291
   26      S       7.3623410599    -7.0973881103    -1.3115408899
   27      C       5.8164243180    -8.5618237135    -2.7529952914
   28      C       7.0700248204    -8.4145006312    -2.3369163449
   29      C       1.3927956120     4.4073539611     5.5028656884
   30      H       4.0740417631     4.1467169320     4.5318247953
   31      H       4.7748132628     2.3721517623     3.0363463556
   32      H       0.7408130302     0.8393815000     2.9980391016
   33      H       1.5764416926     0.2731658191     0.8330271983
   34      H       0.2793596727    -5.2738114432    -2.3451185639
   35      H       2.4944604378    -6.8370765659    -2.4340497537
   36      H       5.3960834212    -9.2718061359    -3.4540056268
   37      H       7.8825253596    -9.1125672241    -2.4892282141
   38      H       0.3281945924     4.4736211289     5.2449619629
   39      C       1.8310731101     5.8983086569     5.5854727683
   40      H       1.4911162649     3.9590203801     6.4995396819
   41      H       2.9176775822     6.0106789361     5.6892255592
   42      H       1.3133716312     6.3295053969     6.4502788449
   43      C       1.3901242373     6.6175920097     4.3051597011
   44      H       1.9728370510     6.3113221337     3.4270944759
   45      C       1.5551769089     8.1274278192     4.5044445326
   46      H       0.3182007806     6.4628101848     4.1308964246
   47      H       2.5881298830     8.3074795037     4.8256524779
   48      H       0.9755819475     8.4197943588     5.3880753872
   49      C       1.2406647437     8.9372735088     3.2108189851
   50      H       1.7028505103     9.9315409827     3.2558468388
   51      C      -0.3540850151     8.9667441281     3.0825197669
   52      H       1.6344391018     8.3831745418     2.3499002377
   53      H      -0.7589731270     9.6324116833     3.8559060370
   54      H      -0.7867103959     7.9610909276     3.1504235245
   55      H      -0.6126084841     9.4003601454     2.1091792481
   56      C      -7.0423025677    -3.1549395270     0.4325098923
   57      C      -6.0044971853    -2.8684566401     1.2712908791
   58      N      -7.1951526648    -2.5702152504    -0.7421672413
   59      C      -5.1661966148    -1.7780639091     0.9355516265
   60      C      -6.2876384010    -1.6600358140    -1.0887523746
   61      C      -5.2692841089    -1.0975842546    -0.2935368196
   62      C      -4.3323954773     0.0143853413    -0.7168479462
   63      C      -4.7665875358     1.0527551837    -1.5887076406
   64      C      -2.9528466390    -0.1044691960    -0.5915618667
   65      N      -3.9400115942     1.9938689078    -2.1360888342
   66      N      -2.3218950929    -1.0991408781     0.0620086278
   67      C      -2.1062072721     0.8496573288    -1.1909827181
   68      C      -2.6417191477     1.9127255010    -1.9007242854
   69      S      -0.7177270777    -0.8098146911    -0.1618581557
   70      N      -0.7723335910     0.5888193037    -1.0735368696
   71      C      -1.7893553590     2.9418392313    -2.4303013825
   72      S      -0.1152047309     3.3638631195    -1.9301269007
   73      C      -2.1945571519     3.9137630719    -3.3561007965
   74      C      -0.0656076000     4.7290824605    -3.0100645265
   75      S      -3.6657751197     3.9722352138    -4.3026248056
   76      C      -1.2492587348     4.8665911683    -3.6782227011
   77      C       1.1456061939     5.5332069763    -3.2181940740
   78      C      -3.0247555625     5.3031723084    -5.2243782311
   79      C      -1.8008596775     5.7279839812    -4.7404485820
   80      N       2.1013237039     5.3636917538    -2.3066373668
   81      S       1.5228481005     6.5517182396    -4.6513616673
   82      C       3.2032862299     6.0414569963    -2.7120826372
   83      C       3.1754460533     6.5875968019    -3.9857989468
   84      C      -8.0057201318    -4.2829078827     0.7665727392
   85      H      -5.9358521571    -3.3323559196     2.2505560722
   86      H      -4.3129164800    -1.5641183764     1.5714465239
   87      H      -6.5025986369    -1.2033881391    -2.0542962617
   88      H      -5.8346503136     1.1159780845    -1.7908283161
   89      H      -3.5876473816     5.7512864290    -6.0319607563
   90      H      -1.3453663379     6.6512890169    -5.0796986795
   91      H       4.1109832228     6.0460334436    -2.1240875477
   92      H       4.0256302337     7.1091587314    -4.4048526583
   93      H      -8.0740553195    -5.0257852506    -0.0375438682
   94      C      -9.3994289592    -3.7082267095     0.9966211118
   95      H      -7.6960499400    -4.8265927081     1.6680810215
   96      H      -9.7415120367    -3.2140142422     0.0786237234
   97      H      -9.3288235763    -2.9139554684     1.7505130639
   98      C     -10.4093521847    -4.7426771653     1.4933265912
   99      H     -10.5708074051    -5.4849313418     0.7014276398
  100      C     -11.7570916545    -4.1706672104     1.8073790277
  101      H      -9.9592219025    -5.2574319292     2.3506872283
  102      H     -12.1504293679    -3.8728202233     0.8269752254
  103      H     -11.7376998101    -3.2478377757     2.3990366913
  104      C     -12.6094135242    -5.2449696271     2.5706396306
  105      H     -13.6577983328    -4.9729211195     2.3972703638
  106      C     -12.2379475671    -5.3389997762     4.0282449865
  107      H     -12.6424121843    -6.2069164097     2.0435860509
  108      H     -11.2918667816    -5.8805495593     4.1495090776
  109      H     -13.0239200891    -5.9793717513     4.4487255785
  110      H     -12.2300693228    -4.3431066480     4.4881523799
 ----------------------------------------------------------------

    9   -5663.5320532071      7.14E-06 Convergence criterion met
 Total energy in the final basis set = -5663.5320532071

                    Orbital Energies (a.u.)
 --------------------------------------------------------------

 Alpha MOs
 -- Occupied --
-88.984 -88.983 -88.934 -88.930 -88.926 -88.923 -88.910 -88.907
-14.394 -14.389 -14.385 -14.379 -14.348 -14.346 -14.346 -14.343
-14.330 -14.322 -10.275 -10.271 -10.262 -10.254 -10.252 -10.251
-10.251 -10.248 -10.247 -10.242 -10.242 -10.241 -10.237 -10.235
-10.231 -10.230 -10.228 -10.228 -10.228 -10.227 -10.226 -10.226
-10.225 -10.224 -10.223 -10.222 -10.221 -10.217 -10.214 -10.213
-10.212 -10.208 -10.208 -10.206 -10.204 -10.200 -10.199 -10.189
-10.181 -10.180 -10.177 -10.174 -10.174 -10.172 -10.172 -10.171
-10.170 -10.170 -10.169 -10.167  -8.040  -8.037  -7.993  -7.992
 -7.984  -7.981  -7.970  -7.967  -6.005  -6.003  -6.000  -5.998
 -5.997  -5.995  -5.957  -5.956  -5.954  -5.952  -5.950  -5.949
 -5.949  -5.946  -5.945  -5.942  -5.940  -5.938  -5.934  -5.932
 -5.931  -5.928  -5.926  -5.923  -1.053  -1.027  -0.969  -0.969
 -0.960  -0.955  -0.946  -0.931  -0.921  -0.912  -0.902  -0.901
 -0.844  -0.837  -0.830  -0.828  -0.818  -0.809  -0.807  -0.803
 -0.802  -0.801  -0.792  -0.790  -0.784  -0.781  -0.764  -0.763
 -0.748  -0.746  -0.738  -0.735  -0.725  -0.723  -0.709  -0.705
 -0.694  -0.688  -0.676  -0.671  -0.656  -0.650  -0.645  -0.642
 -0.635  -0.634  -0.626  -0.622  -0.610  -0.607  -0.601  -0.599
 -0.592  -0.589  -0.584  -0.576  -0.575  -0.572  -0.565  -0.564
 -0.553  -0.539  -0.538  -0.538  -0.526  -0.520  -0.514  -0.513
 -0.502  -0.499  -0.496  -0.495  -0.488  -0.486  -0.481  -0.475
 -0.472  -0.469  -0.467  -0.466  -0.461  -0.459  -0.451  -0.450
 -0.447  -0.440  -0.439  -0.438  -0.435  -0.433  -0.431  -0.429
 -0.428  -0.425  -0.423  -0.421  -0.418  -0.416  -0.415  -0.414
 -0.411  -0.409  -0.402  -0.399  -0.398  -0.397  -0.396  -0.391
 -0.390  -0.389  -0.388  -0.386  -0.383  -0.382  -0.380  -0.378
 -0.377  -0.377  -0.372  -0.368  -0.363  -0.360  -0.356  -0.354
 -0.353  -0.351  -0.349  -0.348  -0.346  -0.345  -0.342  -0.339
 -0.336  -0.336  -0.334  -0.334  -0.330  -0.328  -0.326  -0.321
 -0.317  -0.313  -0.310  -0.307  -0.306  -0.300  -0.298  -0.296
 -0.294  -0.293  -0.292  -0.290  -0.289  -0.284  -0.280  -0.279
 -0.273  -0.266  -0.263  -0.262  -0.256  -0.255  -0.249  -0.249
 -0.246  -0.245  -0.236  -0.227  -0.194  -0.193

          Ground-State Mulliken Net Atomic Charges

     Atom                 Charge (a.u.)
  ----------------------------------------
      1 C                     0.282440
      2 C                    -0.111361
      3 N                    -0.487523
      4 C                    -0.070734
      5 C                     0.075815
      6 C                     0.036306
      7 C                     0.011004
      8 C                     0.075073
      9 C                     0.272868
     10 N                    -0.546182
     11 N                    -0.543510
     12 C                     0.191060
     13 C                     0.316619
     14 S                     0.570264
     15 N                    -0.569916
     16 C                    -0.214226
     17 S                     0.318162
     18 C                    -0.130154
     19 C                    -0.237781
     20 S                     0.299222
     21 C                     0.177179
     22 C                     0.074410
     23 C                    -0.316383
     24 C                    -0.070266
     25 N                    -0.438602
     26 S                     0.280185
     27 C                     0.118523
     28 C                    -0.302020
     29 C                    -0.248778
     30 H                     0.093980
     31 H                     0.106658
     32 H                     0.101892
     33 H                     0.118952
     34 H                     0.139485
     35 H                     0.120280
     36 H                     0.117952
     37 H                     0.132927
     38 H                     0.124674
     39 C                    -0.186023
     40 H                     0.114692
     41 H                     0.089650
     42 H                     0.096289
     43 C                    -0.169260
     44 H                     0.099830
     45 C                    -0.172161
     46 H                     0.098865
     47 H                     0.076668
     48 H                     0.086610
     49 C                    -0.183273
     50 H                     0.090770
     51 C                    -0.320842
     52 H                     0.098167
     53 H                     0.104701
     54 H                     0.111471
     55 H                     0.097824
     56 C                     0.282492
     57 C                    -0.116821
     58 N                    -0.471947
     59 C                    -0.090805
     60 C                     0.053809
     61 C                     0.058297
     62 C                     0.008517
     63 C                     0.054871
     64 C                     0.258824
     65 N                    -0.544401
     66 N                    -0.558185
     67 C                     0.207287
     68 C                     0.335235
     69 S                     0.625211
     70 N                    -0.576198
     71 C                    -0.227101
     72 S                     0.373034
     73 C                    -0.135008
     74 C                    -0.258209
     75 S                     0.293649
     76 C                     0.176332
     77 C                     0.064924
     78 C                    -0.299464
     79 C                    -0.094973
     80 N                    -0.418446
     81 S                     0.273086
     82 C                     0.126356
     83 C                    -0.304517
     84 C                    -0.217393
     85 H                     0.091015
     86 H                     0.110606
     87 H                     0.084905
     88 H                     0.119292
     89 H                     0.133770
     90 H                     0.106330
     91 H                     0.112169
     92 H                     0.130245
     93 H                     0.112356
     94 C                    -0.179530
     95 H                     0.088162
     96 H                     0.112640
     97 H                     0.085803
     98 C                    -0.163323
     99 H                     0.090885
    100 C                    -0.173518
    101 H                     0.083524
    102 H                     0.087330
    103 H                     0.085355
    104 C                    -0.184962
    105 H                     0.085283
    106 C                    -0.305318
    107 H                     0.088991
    108 H                     0.108015
    109 H                     0.101821
    110 H                     0.107229
  ----------------------------------------
  Sum of atomic charges =     0.000000

                    Cartesian Multipole Moments
 -----------------------------------------------------------------
    Charge (ESU x 10^10)
                 0.0000
    Dipole Moment (Debye)
         X       4.6895      Y       0.4660      Z      -0.4543
       Tot       4.7344
    Quadrupole Moments (Debye-Ang)
        XX    -413.3680     XY      -1.9819     YY    -400.4711
        XZ      -5.6447     YZ      -5.5497     ZZ    -428.7059

 Total job time:  80.44s(wall), 941.13s(cpu)
        *  Thank you very much for using Q-Chem.  Have a nice day.  *
