 Q-Chem 4.4, Q-Chem, Inc., Pleasanton, CA (2016)
 Q-Chem 4.4.2 for Intel X86 Linux

User input:
--------------------------------------------------------------
$comment
SP
$end

$rem
MEM_STATIC 5000
MEM_TOTAL 20000
JOBTYPE SP
EXCHANGE B3LYP
BASIS 6-31g(d,p)
$end

$molecule
0 1
C         -19.963000     12.355000     15.013000
C         -20.694000     13.113000     14.076000
N         -20.039000     11.046000     15.090000
C         -21.593000     12.452000     13.324000
C         -20.926000     10.428000     14.292000
C         -21.696000     11.093000     13.344000
C         -22.560000     10.278000     12.415000
C         -22.681000     10.594000     11.050000
C         -23.231000      9.088000     12.857000
N         -23.409000      9.893000     10.183000
N         -23.426000      8.729000     14.144000
C         -24.043000      8.403000     11.951000
C         -24.016000      8.748000     10.594000
S         -24.535000      7.559000     14.097000
N         -24.910000      7.515000     12.527000
C         -24.695000      7.977000      9.533000
S         -25.476000      6.412000      9.808000
C         -24.842000      8.281000      8.205000
C         -26.029000      6.292000      8.119000
S         -24.446000      9.793000      7.418000
C         -25.628000      7.417000      7.439000
C         -26.902000      5.198000      7.582000
C         -25.342000      9.145000      5.958000
C         -25.863000      7.879000      6.133000
N         -27.003000      4.971000      6.328000
S         -27.755000      4.041000      8.618000
C         -27.720000      3.855000      6.011000
C         -28.288000      3.353000      7.131000
C         -18.812000     12.994000     15.813000
H         -20.524000     14.185000     14.070000
H         -22.271000     13.012000     12.686000
H         -21.035000      9.345000     14.314000
H         -22.142000     11.443000     10.630000
H         -25.318000      9.647000      5.000000
H         -26.542000      7.402000      5.436000
H         -27.815000      3.374000      5.047000
H         -28.822000      2.412000      7.103000
H         -18.038000     12.216000     15.841000
C         -19.260000     13.350000     17.273000
H         -18.332000     13.749000     15.179000
H         -19.902000     12.577000     17.713000
H         -19.770000     14.313000     17.154000
C         -18.081000     13.811000     18.124000
H         -17.393000     12.970000     18.273000
C         -18.459000     14.448000     19.436000
H         -17.518000     14.535000     17.521000
H         -18.809000     13.630000     20.077000
H         -19.228000     15.204000     19.235000
C         -17.213000     15.084000     20.096000
H         -16.562000     14.310000     20.522000
C         -17.629000     16.050000     21.237000
H         -16.611000     15.619000     19.350000
H         -16.745000     16.474000     21.728000
H         -18.181000     15.543000     22.038000
H         -18.306000     16.854000     20.919000
C         -23.271000     10.167000     -7.780000
C         -23.575000      8.856000     -8.007000
N         -23.165000     10.677000     -6.566000
C         -23.960000      8.066000     -6.897000
C         -23.380000      9.854000     -5.542000
C         -23.883000      8.538000     -5.572000
C         -24.205000      7.689000     -4.360000
C         -24.708000      8.273000     -3.163000
C         -23.702000      6.401000     -4.215000
N         -24.870000      7.597000     -1.986000
N         -23.051000      5.716000     -5.175000
C         -23.840000      5.725000     -2.986000
C         -24.482000      6.335000     -1.920000
S         -22.606000      4.300000     -4.465000
N         -23.238000      4.502000     -2.932000
C         -24.713000      5.616000     -0.697000
S         -24.726000      3.837000     -0.440000
C         -25.126000      6.204000      0.507000
C         -25.208000      4.014000      1.224000
S         -25.184000      7.902000      0.928000
C         -25.374000      5.331000      1.547000
C         -25.308000      2.876000      2.147000
C         -25.518000      7.484000      2.585000
C         -25.680000      6.121000      2.754000
N         -25.323000      1.677000      1.568000
S         -25.222000      2.941000      3.942000
C         -25.259000      0.733000      2.539000
C         -25.028000      1.173000      3.833000
C         -22.899000     11.077000     -8.940000
H         -23.702000      8.481000     -9.018000
H         -24.165000      7.012000     -7.056000
H         -23.305000     10.358000     -4.579000
H         -25.020000      9.315000     -3.213000
H         -25.639000      8.245000      3.344000
H         -26.065000      5.705000      3.678000
H         -25.257000     -0.322000      2.301000
H         -24.922000      0.486000      4.662000
H         -21.923000     11.557000     -8.798000
C         -23.948000     12.175000     -9.080000
H         -22.840000     10.524000     -9.886000
H         -23.971000     12.771000     -8.159000
H         -24.937000     11.705000     -9.152000
C         -23.750000     13.051000    -10.317000
H         -22.813000     13.611000    -10.205000
C         -24.825000     14.075000    -10.512000
H         -23.642000     12.383000    -11.180000
H         -24.680000     14.770000     -9.675000
H         -25.847000     13.696000    -10.394000
C         -24.681000     14.710000    -11.940000
H         -25.164000     15.693000    -11.880000
C         -25.242000     13.821000    -13.020000
H         -23.667000     15.082000    -12.134000
H         -24.557000     12.990000    -13.228000
H         -25.234000     14.466000    -13.908000
H         -26.256000     13.493000    -12.760000
$end

--------------------------------------------------------------

             Standard Nuclear Orientation (Angstroms)
    I     Atom           X                Y                Z
 ----------------------------------------------------------------
    1      C     -11.4215555781     3.7334836273     0.9664185701
    2      C     -10.4836298498     4.2509257762     0.0502073768
    3      N     -11.3497856519     2.5156580560     1.4531792460
    4      C      -9.5570351865     3.3974651335    -0.4227125544
    5      C     -10.3839012570     1.7126615360     0.9759362003
    6      C      -9.4203223431     2.1321101102     0.0652180385
    7      C      -8.3074481294     1.1814969636    -0.2975596207
    8      C      -6.9791729257     1.6195054094    -0.4443778236
    9      C      -8.5317886572    -0.2311017090    -0.4238185515
   10      N      -5.9569057945     0.8183305519    -0.7379127622
   11      N      -9.7380599831    -0.8271101837    -0.5376534603
   12      C      -7.4619686185    -1.0469212913    -0.7970858739
   13      C      -6.1636327596    -0.5226838386    -0.8235828651
   14      S      -9.4260849769    -2.3301754741    -1.0320787109
   15      N      -7.8251197760    -2.2898960205    -1.2388370025
   16      C      -4.9489710896    -1.3372693568    -1.0291320343
   17      S      -4.9549941888    -3.1070120869    -1.0819088409
   18      C      -3.6525807099    -0.9263635297    -1.1968740527
   19      C      -3.2058276356    -3.1909486597    -1.4079472146
   20      S      -3.0866704472     0.7128357483    -1.4316085870
   21      C      -2.7052899953    -1.9130247785    -1.4800487021
   22      C      -2.4489535346    -4.4544440441    -1.6873304794
   23      C      -1.4636612232    -0.0215823503    -1.8568039716
   24      C      -1.4359508293    -1.4001304482    -1.7963120222
   25      N      -1.1754806906    -4.5120884039    -1.5914657662
   26      S      -3.2391662907    -6.0019777096    -2.0341119010
   27      C      -0.6532545198    -5.7635846788    -1.7366239582
   28      C      -1.6319039941    -6.6176442984    -2.1132608823
   29      C     -12.4255069849     4.6645552367     1.6723287846
   30      H     -10.6125020213     5.2844132253    -0.2554323718
   31      H      -8.8998939907     3.7143814617    -1.2277327342
   32      H     -10.2774764433     0.6922115222     1.3400921125
   33      H      -6.7236503039     2.6680140619    -0.2925233031
   34      H      -0.5749455168     0.5824977168    -1.9817666295
   35      H      -0.6112178352    -2.0054325041    -2.1538087487
   36      H       0.3602422775    -6.0901619194    -1.5472736275
   37      H      -1.4365934237    -7.6794868124    -2.1891901700
   38      H     -12.4704649368     4.2832657293     2.7007941919
   39      C     -13.8452554345     4.5793199865     1.0119582129
   40      H     -11.9414776097     5.6363055096     1.8265946948
   41      H     -14.1152904967     3.5532861501     0.7333390612
   42      H     -13.7639386701     5.2498060925     0.1485545034
   43      C     -14.8843339754     5.3546184791     1.8156938868
   44      H     -15.0309354785     4.8629720948     2.7850327502
   45      C     -16.1967339221     5.5727918254     1.1085844393
   46      H     -14.4382594940     6.3283361818     2.0557884359
   47      H     -16.6977111296     4.5973879024     1.0979062090
   48      H     -15.9795013027     5.9623451818     0.1064087204
   49      C     -17.0745053385     6.5615711956     1.9113575690
   50      H     -17.4965728707     6.0731797892     2.7988742350
   51      C     -18.2480738323     7.0848709804     1.0413073833
   52      H     -16.4725041617     7.4032887411     2.2777605666
   53      H     -18.8903914457     7.7585391775     1.6208867511
   54      H     -18.9136790767     6.2807812244     0.7040191935
   55      H     -17.9323314096     7.5732092532     0.1098024430
   56      C      11.7100956668     3.8141865223     0.5525892217
   57      C      12.1111168753     2.5455436175     0.8565516708
   58      N      10.4456022087     4.1338775959     0.3428610359
   59      C      11.1491927951     1.5104428524     0.7688392435
   60      C       9.5501439109     3.1525826518     0.4285620838
   61      C       9.7829669777     1.7673603580     0.5413344935
   62      C       8.7185913589     0.6901579185     0.5283558019
   63      C       7.5412224700     0.8261454998    -0.2604305299
   64      C       8.6467836070    -0.2787986055     1.5228128906
   65      N       6.4725951615    -0.0241718362    -0.2008897555
   66      N       9.5820926205    -0.4795524219     2.4712436758
   67      C       7.5237981507    -1.1269537388     1.6002566435
   68      C       6.4907096269    -1.0056638644     0.6844854558
   69      S       8.9740625751    -1.6721397311     3.4279128839
   70      N       7.5221713085    -1.9828621297     2.6625500021
   71      C       5.3901079601    -1.9300935444     0.6970049492
   72      S       5.3258219691    -3.5705620300     1.4289813555
   73      C       4.1938641416    -1.7542262159    -0.0129249130
   74      C       3.7281332151    -3.8611255876     0.8000835382
   75      S       3.6072122161    -0.3175411880    -0.8226067327
   76      C       3.2921323902    -2.7964827994     0.0633250877
   77      C       2.9507092608    -5.0622633846     1.1315243139
   78      C       2.0601351326    -1.0796312528    -1.0628154560
   79      C       2.0579103972    -2.3953895396    -0.6369643303
   80      N       3.6499498470    -6.0577263400     1.6729881694
   81      S       1.1627453114    -5.2373252990     1.0528843638
   82      C       2.7837002285    -7.0239151474     2.0656251351
   83      C       1.4316519119    -6.7271771271     1.9927629571
   84      C      12.7103479090     4.9590820587     0.5807612410
   85      H      13.1638973153     2.3078645058     0.9750294534
   86      H      11.4433689688     0.5033224831     1.0470315159
   87      H       8.5377762066     3.4916533488     0.2114153738
   88      H       7.5207606944     1.6393327185    -0.9842508550
   89      H       1.2470059944    -0.5606543894    -1.5520260648
   90      H       1.2399903263    -3.0669649362    -0.8715922152
   91      H       3.1293185316    -7.9342102585     2.5363520192
   92      H       0.6729568250    -7.4240120423     2.3232911196
   93      H      12.3944757588     5.7734921503     1.2441623168
   94      C      12.8673215199     5.5302499450    -0.8244901711
   95      H      13.6939179010     4.6290824019     0.9383871593
   96      H      11.8992526830     5.9175229125    -1.1663210880
   97      H      13.1147801895     4.7089276306    -1.5088868856
   98      C      13.9694188104     6.5839856443    -0.9329873520
   99      H      13.6797046938     7.4585078482    -0.3368416940
  100      C      14.1917639715     7.0862005367    -2.3260303633
  101      H      14.8769716855     6.1586673562    -0.4878928310
  102      H      13.2745347480     7.6446121539    -2.5529356682
  103      H      14.2465060720     6.3043728816    -3.0927101010
  104      C      15.5145370367     7.9298804661    -2.3662869701
  105      H      15.4137663332     8.6026846162    -3.2267274625
  106      C      16.7452260395     7.0612008646    -2.4136402014
  107      H      15.5365040951     8.7134995851    -1.5983842909
  108      H      16.9499988496     6.6307995442    -1.4257774581
  109      H      17.5518972829     7.7764839045    -2.6192725870
  110      H      16.6535385047     6.3071756294    -3.2051067772
 ----------------------------------------------------------------

    9   -5663.5508991101      7.04E-06 Convergence criterion met
 Total energy in the final basis set = -5663.5508991101

                    Orbital Energies (a.u.)
 --------------------------------------------------------------

 Alpha MOs
 -- Occupied --
-88.995 -88.986 -88.934 -88.931 -88.926 -88.925 -88.913 -88.907
-14.393 -14.392 -14.387 -14.383 -14.353 -14.350 -14.349 -14.347
-14.326 -14.323 -10.278 -10.275 -10.267 -10.261 -10.258 -10.256
-10.253 -10.251 -10.249 -10.244 -10.244 -10.242 -10.242 -10.237
-10.233 -10.232 -10.231 -10.230 -10.229 -10.229 -10.228 -10.227
-10.225 -10.224 -10.224 -10.222 -10.221 -10.219 -10.214 -10.210
-10.208 -10.208 -10.206 -10.203 -10.203 -10.201 -10.195 -10.191
-10.184 -10.183 -10.180 -10.178 -10.175 -10.174 -10.173 -10.172
-10.172 -10.171 -10.170 -10.168  -8.051  -8.041  -7.993  -7.992
 -7.985  -7.983  -7.971  -7.967  -6.016  -6.010  -6.009  -6.006
 -6.001  -5.999  -5.957  -5.956  -5.954  -5.953  -5.950  -5.949
 -5.949  -5.947  -5.946  -5.943  -5.942  -5.939  -5.936  -5.932
 -5.932  -5.928  -5.927  -5.923  -1.049  -1.030  -0.989  -0.970
 -0.963  -0.962  -0.950  -0.947  -0.917  -0.912  -0.911  -0.903
 -0.845  -0.842  -0.838  -0.832  -0.816  -0.813  -0.808  -0.808
 -0.804  -0.804  -0.802  -0.794  -0.786  -0.785  -0.771  -0.766
 -0.755  -0.749  -0.746  -0.738  -0.726  -0.724  -0.713  -0.710
 -0.697  -0.695  -0.679  -0.673  -0.657  -0.652  -0.649  -0.647
 -0.638  -0.635  -0.631  -0.627  -0.613  -0.608  -0.600  -0.597
 -0.596  -0.592  -0.584  -0.579  -0.577  -0.575  -0.572  -0.565
 -0.558  -0.545  -0.540  -0.539  -0.530  -0.521  -0.516  -0.514
 -0.514  -0.508  -0.503  -0.497  -0.495  -0.489  -0.485  -0.481
 -0.476  -0.475  -0.471  -0.468  -0.465  -0.462  -0.455  -0.450
 -0.443  -0.441  -0.441  -0.440  -0.436  -0.433  -0.432  -0.431
 -0.430  -0.429  -0.425  -0.423  -0.422  -0.421  -0.417  -0.416
 -0.412  -0.411  -0.405  -0.404  -0.403  -0.400  -0.399  -0.398
 -0.395  -0.392  -0.392  -0.392  -0.390  -0.389  -0.385  -0.381
 -0.381  -0.379  -0.376  -0.373  -0.365  -0.364  -0.358  -0.358
 -0.353  -0.352  -0.351  -0.351  -0.347  -0.346  -0.341  -0.340
 -0.339  -0.337  -0.335  -0.334  -0.332  -0.329  -0.321  -0.318
 -0.318  -0.316  -0.315  -0.311  -0.310  -0.306  -0.302  -0.300
 -0.299  -0.295  -0.295  -0.294  -0.291  -0.290  -0.283  -0.281
 -0.279  -0.274  -0.273  -0.265  -0.261  -0.250  -0.250  -0.248
 -0.247  -0.246  -0.238  -0.236  -0.200  -0.195

          Ground-State Mulliken Net Atomic Charges

     Atom                 Charge (a.u.)
  ----------------------------------------
      1 C                     0.252947
      2 C                    -0.110917
      3 N                    -0.476812
      4 C                    -0.082322
      5 C                     0.090170
      6 C                     0.061019
      7 C                     0.013760
      8 C                     0.071269
      9 C                     0.211584
     10 N                    -0.519741
     11 N                    -0.525063
     12 C                     0.167299
     13 C                     0.320155
     14 S                     0.617363
     15 N                    -0.539283
     16 C                    -0.224394
     17 S                     0.313068
     18 C                    -0.122175
     19 C                    -0.249667
     20 S                     0.283152
     21 C                     0.177156
     22 C                     0.073472
     23 C                    -0.321398
     24 C                    -0.043891
     25 N                    -0.443948
     26 S                     0.261820
     27 C                     0.126335
     28 C                    -0.301019
     29 C                    -0.234762
     30 H                     0.092784
     31 H                     0.092676
     32 H                     0.107112
     33 H                     0.115175
     34 H                     0.121644
     35 H                     0.127481
     36 H                     0.137966
     37 H                     0.122597
     38 H                     0.118371
     39 C                    -0.172296
     40 H                     0.095213
     41 H                     0.112952
     42 H                     0.092532
     43 C                    -0.180059
     44 H                     0.090885
     45 C                    -0.162124
     46 H                     0.086343
     47 H                     0.096725
     48 H                     0.088599
     49 C                    -0.174345
     50 H                     0.096856
     51 C                    -0.322647
     52 H                     0.092622
     53 H                     0.096585
     54 H                     0.101376
     55 H                     0.101104
     56 C                     0.283788
     57 C                    -0.116876
     58 N                    -0.471906
     59 C                    -0.091151
     60 C                     0.054388
     61 C                     0.059159
     62 C                     0.006560
     63 C                     0.056114
     64 C                     0.264536
     65 N                    -0.543825
     66 N                    -0.556614
     67 C                     0.208498
     68 C                     0.336031
     69 S                     0.596563
     70 N                    -0.564351
     71 C                    -0.228880
     72 S                     0.368689
     73 C                    -0.131587
     74 C                    -0.257477
     75 S                     0.289973
     76 C                     0.171755
     77 C                     0.056444
     78 C                    -0.299505
     79 C                    -0.102355
     80 N                    -0.419111
     81 S                     0.287394
     82 C                     0.124765
     83 C                    -0.311114
     84 C                    -0.218036
     85 H                     0.090531
     86 H                     0.108873
     87 H                     0.085424
     88 H                     0.119763
     89 H                     0.122037
     90 H                     0.125527
     91 H                     0.112972
     92 H                     0.129936
     93 H                     0.113097
     94 C                    -0.179327
     95 H                     0.088058
     96 H                     0.112860
     97 H                     0.085401
     98 C                    -0.163693
     99 H                     0.091324
    100 C                    -0.173282
    101 H                     0.083458
    102 H                     0.087418
    103 H                     0.085167
    104 C                    -0.185163
    105 H                     0.085439
    106 C                    -0.305079
    107 H                     0.089247
    108 H                     0.107836
    109 H                     0.101994
    110 H                     0.107012
  ----------------------------------------
  Sum of atomic charges =     0.000000

                    Cartesian Multipole Moments
 -----------------------------------------------------------------
    Charge (ESU x 10^10)
                 0.0000
    Dipole Moment (Debye)
         X      -1.4127      Y      -2.4071      Z      -0.8117
       Tot       2.9066
    Quadrupole Moments (Debye-Ang)
        XX    -424.1740     XY      -6.2625     YY    -402.9108
        XZ      10.5293     YZ      -4.6715     ZZ    -450.0102

 Total job time:  80.75s(wall), 941.13s(cpu)
        *  Thank you very much for using Q-Chem.  Have a nice day.  *
