 Q-Chem 4.4, Q-Chem, Inc., Pleasanton, CA (2016)
 Q-Chem 4.4.2 for Intel X86 Linux

User input:
--------------------------------------------------------------
$comment
SP
$end

$rem
MEM_STATIC 5000
MEM_TOTAL 20000
JOBTYPE SP
EXCHANGE B3LYP
BASIS 6-31g(d,p)
$end

$molecule
0 1
C         -17.442000     23.034000     -4.842000
C         -18.255000     23.036000     -3.719000
N         -17.165000     21.864000     -5.411000
C         -18.742000     21.836000     -3.130000
C         -17.732000     20.727000     -5.030000
C         -18.453000     20.627000     -3.805000
C         -19.068000     19.350000     -3.377000
C         -20.045000     18.701000     -4.232000
C         -18.728000     18.648000     -2.254000
N         -20.568000     17.477000     -4.024000
N         -17.912000     19.079000     -1.302000
C         -19.247000     17.380000     -2.010000
C         -20.171000     16.771000     -2.888000
S         -17.842000     17.856000     -0.219000
N         -18.956000     16.862000     -0.836000
C         -20.995000     15.633000     -2.551000
S         -21.460000     15.170000     -0.944000
C         -21.857000     15.033000     -3.452000
C         -22.585000     13.977000     -1.542000
S         -21.807000     15.087000     -5.168000
C         -22.647000     14.050000     -2.929000
C         -23.248000     13.024000     -0.725000
C         -22.973000     13.745000     -5.235000
C         -23.298000     13.271000     -3.953000
N         -24.088000     12.190000     -1.280000
S         -22.740000     12.606000      0.891000
C         -24.471000     11.241000     -0.358000
C         -23.790000     11.222000      0.867000
C         -16.842000     24.304000     -5.350000
H         -18.518000     24.030000     -3.369000
H         -19.224000     21.838000     -2.156000
H         -17.500000     19.802000     -5.555000
H         -20.322000     19.126000     -5.195000
H         -23.238000     13.426000     -6.235000
H         -23.845000     12.344000     -3.816000
H         -25.247000     10.561000     -0.682000
H         -23.872000     10.472000      1.643000
H         -16.697000     24.995000     -4.510000
C         -17.679000     25.047000     -6.467000
H         -15.868000     24.126000     -5.824000
H         -17.202000     25.941000     -6.886000
H         -18.581000     25.341000     -5.916000
C         -18.053000     24.114000     -7.699000
H         -17.204000     23.454000     -7.912000
C         -18.356000     24.977000     -8.910000
H         -18.824000     23.373000     -7.453000
H         -18.443000     24.273000     -9.746000
H         -17.539000     25.602000     -9.290000
C         -19.578000     26.023000     -8.848000
H         -19.256000     26.932000     -8.325000
C         -20.759000     25.385000     -8.066000
H         -19.735000     26.327000     -9.891000
H         -20.415000     25.065000     -7.075000
H         -21.169000     24.492000     -8.555000
H         -21.620000     26.056000     -7.963000
C         -14.025000     15.348000      9.080000
C         -13.278000     16.127000      8.162000
N         -15.283000     15.686000      9.399000
C         -13.939000     17.186000      7.435000
C         -15.937000     16.662000      8.708000
C         -15.257000     17.477000      7.772000
C         -15.928000     18.640000      7.075000
C         -17.188000     18.421000      6.472000
C         -15.414000     19.943000      7.019000
N         -17.868000     19.384000      5.799000
N         -14.190000     20.353000      7.527000
C         -16.071000     20.883000      6.273000
C         -17.287000     20.582000      5.612000
S         -14.169000     21.946000      7.198000
N         -15.622000     22.101000      6.401000
C         -18.099000     21.534000      4.789000
S         -18.008000     23.333000      4.918000
C         -18.987000     21.157000      3.799000
C         -19.192000     23.492000      3.595000
S         -19.238000     19.566000      3.151000
C         -19.500000     22.269000      3.122000
C         -19.544000     24.768000      3.031000
C         -19.972000     20.416000      1.797000
C         -20.054000     21.798000      1.903000
N         -20.737000     24.910000      2.484000
S         -18.607000     26.324000      3.270000
C         -20.967000     26.237000      2.115000
C         -19.878000     27.083000      2.305000
C         -13.432000     14.227000      9.872000
H         -12.219000     15.905000      8.067000
H         -13.282000     17.762000      6.790000
H         -16.946000     16.933000      9.014000
H         -17.610000     17.418000      6.433000
H         -20.361000     19.854000      0.958000
H         -20.520000     22.456000      1.178000
H         -21.948000     26.457000      1.713000
H         -19.781000     28.148000      2.139000
H         -12.443000     13.901000      9.527000
C         -14.225000     12.916000      9.873000
H         -13.195000     14.602000     10.875000
H         -13.544000     12.059000      9.810000
H         -14.782000     12.851000      8.930000
C         -15.231000     12.753000     11.063000
H         -15.817000     13.645000     11.315000
C         -14.529000     12.268000     12.377000
H         -16.022000     12.083000     10.702000
H         -13.712000     12.955000     12.630000
H         -14.079000     11.268000     12.330000
C         -15.515000     12.061000     13.563000
H         -16.120000     12.959000     13.738000
C         -14.806000     11.749000     14.850000
H         -16.168000     11.206000     13.350000
H         -14.219000     10.823000     14.871000
H         -15.574000     11.577000     15.613000
H         -14.089000     12.494000     15.218000
$end

--------------------------------------------------------------

             Standard Nuclear Orientation (Angstroms)
    I     Atom           X                Y                Z
 ----------------------------------------------------------------
    1      C      -6.8092715342    -2.8709045899     2.2861878180
    2      C      -6.0249135792    -2.8245602407     1.1439370575
    3      N      -6.8706201476    -1.7814206837     3.0468790601
    4      C      -5.2461406379    -1.6842744260     0.8013717839
    5      C      -6.3227141948    -0.6261818595     2.6938332755
    6      C      -5.3874322938    -0.5409693002     1.6221744747
    7      C      -4.7658053838     0.7488058309     1.2450828465
    8      C      -5.6076484082     1.8662839172     0.8586917898
    9      C      -3.4295191832     1.0302754740     1.3132519752
   10      N      -5.1758254920     3.1220354761     0.6315662927
   11      N      -2.4757807176     0.1476428573     1.5764317678
   12      C      -2.9499303505     2.3170735864     1.0877166796
   13      C      -3.8103638984     3.3842949537     0.7467860960
   14      S      -1.0853078809     1.0076256235     1.5533464449
   15      N      -1.6403269233     2.4372941753     1.0456824865
   16      C      -3.3746969100     4.6403932024     0.1811002603
   17      S      -1.9053500930     4.8850726104    -0.7100758831
   18      C      -4.2412467925     5.6824378245    -0.0983264864
   19      C      -2.3825927146     6.4959502880    -1.1831409821
   20      S      -5.7957087469     5.9799674475     0.5689037257
   21      C      -3.6774268560     6.7457899578    -0.7427699050
   22      C      -1.5266244244     7.4247597813    -1.8311365156
   23      C      -5.7568111974     7.6283444998    -0.0991898859
   24      C      -4.5381079442     7.9027020533    -0.7420859221
   25      N      -1.9992252749     8.5988433620    -2.1587905738
   26      S       0.2120006447     7.2834853715    -1.8694563560
   27      C      -0.9703186077     9.4029980310    -2.5970374660
   28      C       0.3360699982     8.9201143206    -2.4391795154
   29      C      -7.5052283449    -4.1320247577     2.6813890833
   30      H      -6.1012341421    -3.7120741741     0.5224877919
   31      H      -4.5027467178    -1.7229855497     0.0096199740
   32      H      -6.4354717498     0.2465347097     3.3347119876
   33      H      -6.6927584181     1.7810830926     0.8589848559
   34      H      -6.6337621416     8.2248396099     0.1179198215
   35      H      -4.2723605290     8.9113096080    -1.0410777478
   36      H      -1.2652686619    10.3651151956    -2.9931271366
   37      H       1.2545140469     9.4677874787    -2.6062562683
   38      H      -6.9260123900    -4.9912748977     2.3204125263
   39      C      -8.9899659235    -4.2769181843     2.1571112774
   40      H      -7.6009191027    -4.2125331856     3.7719841832
   41      H      -9.5199105141    -5.1708923112     2.5068182852
   42      H      -8.8414142819    -4.3438639206     1.0721727178
   43      C      -9.9109350353    -3.0331427586     2.5218407466
   44      H      -9.6517465704    -2.6857154163     3.5287596020
   45      C     -11.3678466565    -3.4557038853     2.4776862211
   46      H      -9.6696357455    -2.1382264967     1.9345269150
   47      H     -11.9228588058    -2.6059029592     2.8922714356
   48      H     -11.6801199639    -4.2326635409     3.1857350014
   49      C     -11.9927648058    -3.9913617060     1.0942875057
   50      H     -11.7198019127    -5.0443837650     0.9524079719
   51      C     -11.4159885878    -3.1595859431    -0.0841891698
   52      H     -13.0774733002    -3.9916038977     1.2625772071
   53      H     -10.3202097002    -3.1996467498    -0.0622629026
   54      H     -11.6882581807    -2.0973411848    -0.0375486047
   55      H     -11.7815417090    -3.4894507529    -1.0638478465
   56      C       9.2053165019    -0.0268331044     2.1565868224
   57      C       8.3375391071    -0.8052297183     2.9619656802
   58      N       9.0292254112     0.0408901920     0.8288163291
   59      C       7.1540442661    -1.3829810900     2.3682702080
   60      C       7.9068328991    -0.4713282809     0.2494716263
   61      C       6.9922823523    -1.2550918487     0.9924608370
   62      C       5.7997785469    -1.9304718463     0.3518240189
   63      C       4.9679338265    -1.1586267678    -0.4916565891
   64      C       5.4775270932    -3.2873251941     0.4941054067
   65      N       3.8586132081    -1.6536530433    -1.0975070260
   66      N       6.1521395523    -4.2003808246     1.2913302468
   67      C       4.3160891028    -3.7539975943    -0.0582021754
   68      C       3.4705250489    -2.9106155626    -0.8197178871
   69      S       5.3506188286    -5.5897606026     1.0201857065
   70      N       4.1689881030    -5.0495377345    -0.0201753275
   71      C       2.1917385040    -3.3172294145    -1.4848097215
   72      S       1.7581356900    -5.0162836003    -1.9166968289
   73      C       1.1659669604    -2.4503591670    -1.8120737039
   74      C       0.1758790667    -4.4628522948    -2.5230331779
   75      S       1.0184653487    -0.7742616820    -1.3841408877
   76      C       0.0526178528    -3.1392081070    -2.3060199586
   77      C      -0.8422276736    -5.3819229051    -2.9577099296
   78      C      -0.6856191927    -1.0026617384    -1.7562985021
   79      C      -1.0554948738    -2.2557938103    -2.2261239921
   80      N      -1.7200551968    -4.9745993360    -3.8555564363
   81      S      -0.8589997204    -7.1811245562    -2.6130098902
   82      C      -2.5436531793    -6.0245674602    -4.2669483434
   83      C      -2.3343531388    -7.2198690959    -3.5849039953
   84      C      10.4481674470     0.6175954917     2.6815509286
   85      H       8.6226388005    -0.9560799886     3.9991505050
   86      H       6.5725776142    -2.0026054733     3.0445927318
   87      H       7.8109568339    -0.4275666119    -0.8340645736
   88      H       5.1343030419    -0.0874511874    -0.5942146712
   89      H      -1.3743335193    -0.1751704981    -1.6466772293
   90      H      -2.0535682359    -2.5372518122    -2.5429456408
   91      H      -3.2553310139    -5.7938613274    -5.0496707336
   92      H      -2.7979400834    -8.1894427155    -3.7121994818
   93      H      10.5207316624     0.6392921314     3.7759392009
   94      C      10.6442464099     2.0917797568     2.3128982563
   95      H      11.3019712220    -0.0207027802     2.4238739410
   96      H      11.0545383787     2.6461274317     3.1652703322
   97      H       9.6548080396     2.5476243562     2.1827429169
   98      C      11.4873470639     2.3423179154     1.0163193277
   99      H      11.2636161202     1.6824477364     0.1695136760
  100      C      13.0293438711     2.2578377452     1.2803911884
  101      H      11.1514978462     3.3084659777     0.6179912913
  102      H      13.2694769127     1.2899623593     1.7375786333
  103      H      13.4344672088     3.0205548788     1.9577733961
  104      C      13.8885799863     2.5422751847     0.0145121889
  105      H      13.5879362023     1.8999851547    -0.8222260214
  106      C      15.3527598193     2.3033907846     0.2501085806
  107      H      13.7848420878     3.5969515538    -0.2677982871
  108      H      15.8344627758     2.9359272367     1.0053210662
  109      H      15.8801177133     2.5688929541    -0.6734601768
  110      H      15.6499676836     1.2934911726     0.5604443008
 ----------------------------------------------------------------

   12   -5663.5092328488      3.88E-06 Convergence criterion met
 Total energy in the final basis set = -5663.5092328488

                    Orbital Energies (a.u.)
 --------------------------------------------------------------

 Alpha MOs
 -- Occupied --
-88.991 -88.986 -88.926 -88.926 -88.926 -88.924 -88.915 -88.903
-14.391 -14.389 -14.385 -14.377 -14.354 -14.350 -14.347 -14.341
-14.332 -14.325 -10.274 -10.266 -10.265 -10.260 -10.259 -10.253
-10.250 -10.247 -10.245 -10.243 -10.241 -10.239 -10.238 -10.237
-10.236 -10.236 -10.234 -10.234 -10.232 -10.231 -10.230 -10.227
-10.227 -10.226 -10.225 -10.224 -10.221 -10.219 -10.219 -10.216
-10.215 -10.214 -10.207 -10.206 -10.205 -10.200 -10.199 -10.198
-10.187 -10.185 -10.184 -10.183 -10.179 -10.175 -10.174 -10.173
-10.173 -10.171 -10.170 -10.165  -8.047  -8.042  -7.987  -7.986
 -7.986  -7.982  -7.975  -7.963  -6.012  -6.007  -6.006  -6.004
 -6.001  -6.000  -5.951  -5.951  -5.950  -5.948  -5.947  -5.947
 -5.947  -5.944  -5.943  -5.943  -5.943  -5.939  -5.939  -5.936
 -5.931  -5.928  -5.924  -5.920  -1.052  -1.046  -0.974  -0.962
 -0.960  -0.949  -0.943  -0.937  -0.920  -0.915  -0.914  -0.911
 -0.847  -0.844  -0.839  -0.833  -0.810  -0.808  -0.808  -0.801
 -0.801  -0.797  -0.795  -0.793  -0.781  -0.781  -0.766  -0.762
 -0.749  -0.744  -0.743  -0.734  -0.727  -0.722  -0.708  -0.708
 -0.693  -0.693  -0.676  -0.674  -0.654  -0.653  -0.649  -0.645
 -0.640  -0.637  -0.631  -0.629  -0.618  -0.611  -0.601  -0.596
 -0.593  -0.590  -0.587  -0.584  -0.582  -0.579  -0.564  -0.559
 -0.551  -0.551  -0.537  -0.537  -0.527  -0.522  -0.513  -0.511
 -0.508  -0.503  -0.502  -0.500  -0.495  -0.493  -0.481  -0.477
 -0.474  -0.474  -0.469  -0.467  -0.458  -0.452  -0.449  -0.449
 -0.447  -0.442  -0.441  -0.437  -0.436  -0.431  -0.429  -0.428
 -0.427  -0.426  -0.421  -0.419  -0.418  -0.416  -0.415  -0.415
 -0.413  -0.413  -0.402  -0.400  -0.399  -0.399  -0.396  -0.396
 -0.395  -0.392  -0.391  -0.390  -0.387  -0.384  -0.383  -0.382
 -0.379  -0.378  -0.378  -0.371  -0.367  -0.367  -0.364  -0.360
 -0.359  -0.355  -0.350  -0.348  -0.348  -0.346  -0.344  -0.343
 -0.338  -0.336  -0.335  -0.334  -0.333  -0.328  -0.326  -0.319
 -0.316  -0.316  -0.311  -0.307  -0.303  -0.300  -0.299  -0.296
 -0.292  -0.292  -0.292  -0.288  -0.286  -0.284  -0.283  -0.282
 -0.275  -0.273  -0.264  -0.257  -0.255  -0.250  -0.249  -0.247
 -0.247  -0.242  -0.236  -0.234  -0.196  -0.192

          Ground-State Mulliken Net Atomic Charges

     Atom                 Charge (a.u.)
  ----------------------------------------
      1 C                     0.311494
      2 C                    -0.122690
      3 N                    -0.481554
      4 C                    -0.056426
      5 C                     0.082321
      6 C                     0.012001
      7 C                    -0.031327
      8 C                     0.069649
      9 C                     0.273962
     10 N                    -0.498870
     11 N                    -0.553738
     12 C                     0.187024
     13 C                     0.264214
     14 S                     0.595628
     15 N                    -0.549532
     16 C                    -0.199571
     17 S                     0.327886
     18 C                    -0.122746
     19 C                    -0.250298
     20 S                     0.278949
     21 C                     0.178053
     22 C                     0.070716
     23 C                    -0.316601
     24 C                    -0.050655
     25 N                    -0.429348
     26 S                     0.271250
     27 C                     0.111391
     28 C                    -0.310207
     29 C                    -0.246562
     30 H                     0.083144
     31 H                     0.112985
     32 H                     0.104841
     33 H                     0.116667
     34 H                     0.134485
     35 H                     0.125431
     36 H                     0.109952
     37 H                     0.142997
     38 H                     0.098867
     39 C                    -0.179766
     40 H                     0.118469
     41 H                     0.100654
     42 H                     0.094045
     43 C                    -0.176812
     44 H                     0.108379
     45 C                    -0.190731
     46 H                     0.102258
     47 H                     0.086781
     48 H                     0.086691
     49 C                    -0.178851
     50 H                     0.094989
     51 C                    -0.314894
     52 H                     0.094871
     53 H                     0.110152
     54 H                     0.102720
     55 H                     0.093887
     56 C                     0.280444
     57 C                    -0.126222
     58 N                    -0.475432
     59 C                    -0.063310
     60 C                     0.076764
     61 C                     0.022110
     62 C                    -0.012402
     63 C                     0.057141
     64 C                     0.228745
     65 N                    -0.502565
     66 N                    -0.532211
     67 C                     0.228226
     68 C                     0.264752
     69 S                     0.603692
     70 N                    -0.551571
     71 C                    -0.207622
     72 S                     0.307878
     73 C                    -0.108525
     74 C                    -0.220233
     75 S                     0.289006
     76 C                     0.183599
     77 C                     0.036875
     78 C                    -0.307646
     79 C                    -0.065765
     80 N                    -0.416007
     81 S                     0.251078
     82 C                     0.114430
     83 C                    -0.301921
     84 C                    -0.217976
     85 H                     0.092075
     86 H                     0.114297
     87 H                     0.110247
     88 H                     0.121581
     89 H                     0.122767
     90 H                     0.115693
     91 H                     0.119360
     92 H                     0.136054
     93 H                     0.091193
     94 C                    -0.184216
     95 H                     0.122000
     96 H                     0.093131
     97 H                     0.095139
     98 C                    -0.172132
     99 H                     0.117487
    100 C                    -0.167549
    101 H                     0.080888
    102 H                     0.087477
    103 H                     0.085815
    104 C                    -0.173669
    105 H                     0.093578
    106 C                    -0.319596
    107 H                     0.095725
    108 H                     0.095501
    109 H                     0.095569
    110 H                     0.099630
  ----------------------------------------
  Sum of atomic charges =     0.000000

                    Cartesian Multipole Moments
 -----------------------------------------------------------------
    Charge (ESU x 10^10)
                 0.0000
    Dipole Moment (Debye)
         X       0.7410      Y      -1.0929      Z       0.9134
       Tot       1.6056
    Quadrupole Moments (Debye-Ang)
        XX    -447.6400     XY      15.5186     YY    -394.2415
        XZ      21.9170     YZ      -1.4503     ZZ    -447.3412

 Total job time:  105.06s(wall), 1231.42s(cpu)
        *  Thank you very much for using Q-Chem.  Have a nice day.  *
