 Q-Chem 4.4, Q-Chem, Inc., Pleasanton, CA (2016)
 Q-Chem 4.4.2 for Intel X86 Linux

User input:
--------------------------------------------------------------
$comment
SP
$end

$rem
MEM_STATIC 5000
MEM_TOTAL 20000
JOBTYPE SP
EXCHANGE B3LYP
BASIS 6-31g(d,p)
$end

$molecule
0 1
C          -5.159000     19.260000      7.525000
C          -5.556000     18.114000      8.202000
N          -5.776000     20.419000      7.744000
C          -6.702000     18.065000      8.976000
C          -6.920000     20.441000      8.531000
C          -7.438000     19.255000      9.203000
C          -8.520000     19.352000     10.212000
C          -9.647000     18.485000     10.271000
C          -8.453000     20.339000     11.197000
N         -10.658000     18.603000     11.136000
N          -7.505000     21.268000     11.354000
C          -9.508000     20.470000     12.117000
C         -10.678000     19.627000     12.016000
S          -7.937000     22.146000     12.653000
N          -9.418000     21.499000     12.937000
C         -11.812000     19.727000     12.854000
S         -11.846000     20.753000     14.314000
C         -13.074000     19.373000     12.578000
C         -13.641000     20.529000     14.505000
S         -13.616000     18.633000     11.112000
C         -14.085000     19.742000     13.449000
C         -14.474000     20.942000     15.636000
C         -15.217000     18.621000     11.847000
C         -15.318000     19.240000     13.106000
N         -15.767000     20.906000     15.595000
S         -13.719000     21.618000     17.045000
C         -16.269000     21.363000     16.799000
C         -15.327000     21.660000     17.781000
C          -3.776000     19.354000      6.812000
H          -4.910000     17.255000      8.048000
H          -6.832000     17.163000      9.567000
H          -7.257000     21.445000      8.787000
H          -9.720000     17.701000      9.518000
H         -15.934000     18.218000     11.144000
H         -16.172000     19.367000     13.761000
H         -17.322000     21.436000     17.039000
H         -15.461000     21.834000     18.840000
H          -3.503000     18.387000      6.370000
C          -2.567000     19.988000      7.595000
H          -3.976000     19.922000      5.896000
H          -2.782000     21.060000      7.677000
H          -1.604000     19.712000      7.148000
C          -2.543000     19.370000      8.993000
H          -3.339000     19.815000      9.605000
C          -1.270000     19.682000      9.856000
H          -2.788000     18.304000      8.918000
H          -1.134000     20.764000      9.968000
H          -0.333000     19.366000      9.381000
C          -1.205000     19.013000     11.270000
H          -2.056000     19.289000     11.905000
C          -0.000000     19.110000     12.167000
H          -1.314000     17.945000     11.042000
H           0.866000     18.643000     11.683000
H          -0.108000     18.679000     13.170000
H           0.276000     20.167000     12.268000
C         -14.025000     15.348000      9.080000
C         -13.278000     16.127000      8.162000
N         -15.283000     15.686000      9.399000
C         -13.939000     17.186000      7.435000
C         -15.937000     16.662000      8.708000
C         -15.257000     17.477000      7.772000
C         -15.928000     18.640000      7.075000
C         -17.188000     18.421000      6.472000
C         -15.414000     19.943000      7.019000
N         -17.868000     19.384000      5.799000
N         -14.190000     20.353000      7.527000
C         -16.071000     20.883000      6.273000
C         -17.287000     20.582000      5.612000
S         -14.169000     21.946000      7.198000
N         -15.622000     22.101000      6.401000
C         -18.099000     21.534000      4.789000
S         -18.008000     23.333000      4.918000
C         -18.987000     21.157000      3.799000
C         -19.192000     23.492000      3.595000
S         -19.238000     19.566000      3.151000
C         -19.500000     22.269000      3.122000
C         -19.544000     24.768000      3.031000
C         -19.972000     20.416000      1.797000
C         -20.054000     21.798000      1.903000
N         -20.737000     24.910000      2.484000
S         -18.607000     26.324000      3.270000
C         -20.967000     26.237000      2.115000
C         -19.878000     27.083000      2.305000
C         -13.432000     14.227000      9.872000
H         -12.219000     15.905000      8.067000
H         -13.282000     17.762000      6.790000
H         -16.946000     16.933000      9.014000
H         -17.610000     17.418000      6.433000
H         -20.361000     19.854000      0.958000
H         -20.520000     22.456000      1.178000
H         -21.948000     26.457000      1.713000
H         -19.781000     28.148000      2.139000
H         -12.443000     13.901000      9.527000
C         -14.225000     12.916000      9.873000
H         -13.195000     14.602000     10.875000
H         -13.544000     12.059000      9.810000
H         -14.782000     12.851000      8.930000
C         -15.231000     12.753000     11.063000
H         -15.817000     13.645000     11.315000
C         -14.529000     12.268000     12.377000
H         -16.022000     12.083000     10.702000
H         -13.712000     12.955000     12.630000
H         -14.079000     11.268000     12.330000
C         -15.515000     12.061000     13.563000
H         -16.120000     12.959000     13.738000
C         -14.806000     11.749000     14.850000
H         -16.168000     11.206000     13.350000
H         -14.219000     10.823000     14.871000
H         -15.574000     11.577000     15.613000
H         -14.089000     12.494000     15.218000
$end

--------------------------------------------------------------

             Standard Nuclear Orientation (Angstroms)
    I     Atom           X                Y                Z
 ----------------------------------------------------------------
    1      C       5.8786020790    -5.3176783673     1.8313828446
    2      C       6.1625334324    -4.1067351932     2.4496494663
    3      N       5.2050538695    -5.3458441870     0.6835716684
    4      C       5.6162198942    -2.9078389290     2.0265865091
    5      C       4.6502669939    -4.1710609310     0.1929752722
    6      C       4.8407543469    -2.8783513265     0.8403703963
    7      C       4.4322552312    -1.6168684897     0.1770427812
    8      C       3.7318830204    -0.5581763733     0.8204312867
    9      C       4.7546964421    -1.4122463872    -1.1657321295
   10      N       3.3043084265     0.5538475105     0.2164007837
   11      N       5.4015454301    -2.2487407774    -1.9832023259
   12      C       4.3154586786    -0.2432616836    -1.8115888860
   13      C       3.4926673158     0.7167418287    -1.1107624956
   14      S       5.4950829707    -1.4985515174    -3.4231244775
   15      N       4.5634321102    -0.1855984745    -3.1056233258
   16      C       2.9536559760     1.8863408824    -1.6936045232
   17      S       3.4239668302     2.4610908327    -3.3165346496
   18      C       1.8506940184     2.5542889662    -1.3310355266
   19      C       2.0851830313     3.6923299659    -3.3362865298
   20      S       0.8323777017     2.1659474458     0.0116270307
   21      C       1.3670451616     3.5570935279    -2.1540724604
   22      C       1.8705714846     4.7579659880    -4.3170927045
   23      C      -0.1196956330     3.5735304482    -0.4529549931
   24      C       0.2890207869     4.2290272209    -1.6284199518
   25      N       0.7861426227     5.4635344403    -4.3489235459
   26      S       3.0516791754     5.0171571177    -5.5621174356
   27      C       0.8726322930     6.3764765065    -5.3831021189
   28      C       2.0815903935     6.4049263695    -6.0741215950
   29      C       6.6417554976    -6.6259064637     2.2002054409
   30      H       6.8224229689    -4.1848335164     3.3083458338
   31      H       6.0204757644    -2.0154416620     2.4956166886
   32      H       4.2641507073    -4.2588265238    -0.8220776397
   33      H       3.4742684211    -0.6891937493     1.8708898368
   34      H      -0.9756848885     3.6628565410     0.2027966700
   35      H      -0.1169527658     5.1031784744    -2.1239147151
   36      H       0.1039866122     7.0957457296    -5.6352401806
   37      H       2.4663610917     7.1401593724    -6.7677331154
   38      H       6.8717974635    -6.6491976465     3.2732945400
   39      C       7.8918491511    -7.0369249320     1.3370393640
   40      H       5.8777773056    -7.4110942723     2.1615088334
   41      H       7.5026672401    -7.3446504014     0.3592993803
   42      H       8.5287412350    -7.7590391358     1.8626566678
   43      C       8.7660189909    -5.7948654952     1.1637781546
   44      H       8.3114427502    -5.1266245366     0.4201388182
   45      C      10.1855738906    -6.0400708629     0.5413793963
   46      H       8.7759161439    -5.2295508286     2.1031009820
   47      H      10.1002855443    -6.5262578373    -0.4374526240
   48      H      10.7961336863    -6.7492266348     1.1138868871
   49      C      11.1138627094    -4.7865611923     0.4065633200
   50      H      10.6651449191    -3.9953630755    -0.2068369447
   51      C      12.5449072511    -4.8731263701    -0.0524148818
   52      H      11.1594351726    -4.4026885811     1.4337215205
   53      H      13.1275968876    -5.4809180262     0.6499832178
   54      H      13.0653379221    -3.9180758568    -0.1954688357
   55      H      12.5760149247    -5.4334326208    -0.9951318160
   56      C       0.2368103941     2.4584503705     3.8388024410
   57      C       0.2073514819     1.0507139412     3.6807381566
   58      N      -0.7241802258     3.2269721319     3.3054729642
   59      C      -0.9587036655     0.4316157603     3.0942538554
   60      C      -1.8466326155     2.6666260193     2.7726635546
   61      C      -1.9492501192     1.2672566266     2.5883921495
   62      C      -3.1328827540     0.6276683209     1.8966121375
   63      C      -4.4317547081     1.0051808955     2.3084202273
   64      C      -3.0419611738    -0.2855612627     0.8369489864
   65      N      -5.5635787383     0.4777134273     1.7760195937
   66      N      -1.8660844872    -0.7957180827     0.3064831184
   67      C      -4.1863045957    -0.8663796660     0.3627200173
   68      C      -5.4587832296    -0.5167465329     0.8772419300
   69      S      -2.3906448289    -1.7568649794    -0.8965813399
   70      N      -4.0359810649    -1.5766347102    -0.7210002455
   71      C      -6.7735101747    -1.0706893619     0.4215914038
   72      S      -7.0563623299    -1.8439807495    -1.1856852022
   73      C      -7.9229067144    -1.0985621912     1.1889789852
   74      C      -8.7462488149    -2.1821988110    -0.7303191838
   75      S      -8.0848184688    -0.6928044587     2.8692561190
   76      C      -8.9533791473    -1.7888708470     0.5411807722
   77      C      -9.6245642833    -2.9570991836    -1.5659431128
   78      C      -9.5800374426    -1.6147414342     2.7747868987
   79      C      -9.9197840755    -2.1196230511     1.5267681576
   80      N     -10.9245156641    -2.7407958097    -1.4887339298
   81      S      -9.0929384091    -4.0135254268    -2.9650726717
   82      C     -11.6148280491    -3.4703201810    -2.4589158729
   83      C     -10.8147877689    -4.3245600013    -3.2125383776
   84      C       1.3940358248     3.1887048517     4.4413899410
   85      H       1.0895728185     0.4966820925     3.9881860774
   86      H      -0.8765798004    -0.6438049323     2.9670689316
   87      H      -2.5919691787     3.3180871429     2.3196405838
   88      H      -4.5652090907     1.6654457025     3.1639050678
   89      H     -10.1955547955    -1.7306570402     3.6572765364
   90      H     -10.8286920535    -2.6644143460     1.2969122623
   91      H     -12.6838572661    -3.3057247292    -2.5084120374
   92      H     -11.0693423680    -4.9755252851    -4.0387563605
   93      H       2.1159715151     2.5459673476     4.9601570949
   94      C       1.0457764328     4.2220584031     5.5177109124
   95      H       2.0107011507     3.5880226836     3.6270975211
   96      H       1.7803485551     4.1871637574     6.3309545172
   97      H       0.1211805521     3.9022471717     6.0142652736
   98      C       0.8532883358     5.6852014724     4.9915306283
   99      H       0.2850582285     5.7835034562     4.0587845401
  100      C       2.2157302428     6.4320589831     4.7900835909
  101      H       0.1722016479     6.1750557382     5.6993905874
  102      H       2.8596209140     5.8446761263     4.1238605178
  103      H       2.8005538766     6.6012092138     5.7033625826
  104      C       2.0481607917     7.9011845918     4.3050769672
  105      H       1.4237280276     7.9535598852     3.4048577984
  106      C       3.3619739808     8.5471363555     3.9688698540
  107      H       1.6001004337     8.5013445396     5.1062342255
  108      H       4.0774385660     8.6542639379     4.7929572938
  109      H       3.1524811347     9.5840443313     3.6816215343
  110      H       3.9675862754     8.0693708318     3.1881574531
 ----------------------------------------------------------------

   10   -5663.5098846300      5.06E-06 Convergence criterion met
 Total energy in the final basis set = -5663.5098846300

                    Orbital Energies (a.u.)
 --------------------------------------------------------------

 Alpha MOs
 -- Occupied --
-88.989 -88.986 -88.924 -88.922 -88.922 -88.919 -88.912 -88.902
-14.389 -14.386 -14.386 -14.379 -14.352 -14.348 -14.346 -14.345
-14.333 -14.330 -10.272 -10.270 -10.265 -10.261 -10.257 -10.254
-10.252 -10.252 -10.242 -10.242 -10.242 -10.242 -10.236 -10.235
-10.234 -10.234 -10.234 -10.233 -10.232 -10.232 -10.232 -10.228
-10.227 -10.226 -10.223 -10.222 -10.222 -10.222 -10.220 -10.220
-10.217 -10.213 -10.206 -10.204 -10.200 -10.196 -10.195 -10.191
-10.188 -10.185 -10.182 -10.179 -10.178 -10.177 -10.174 -10.172
-10.171 -10.170 -10.170 -10.164  -8.045  -8.042  -7.984  -7.984
 -7.980  -7.977  -7.972  -7.963  -6.010  -6.007  -6.004  -6.002
 -6.001  -5.999  -5.948  -5.947  -5.945  -5.945  -5.944  -5.942
 -5.941  -5.941  -5.941  -5.938  -5.937  -5.937  -5.933  -5.933
 -5.928  -5.927  -5.924  -5.919  -1.045  -1.044  -0.976  -0.960
 -0.960  -0.958  -0.938  -0.931  -0.917  -0.913  -0.910  -0.909
 -0.842  -0.840  -0.838  -0.834  -0.808  -0.807  -0.805  -0.800
 -0.800  -0.798  -0.796  -0.792  -0.780  -0.778  -0.766  -0.764
 -0.751  -0.747  -0.743  -0.742  -0.720  -0.717  -0.710  -0.706
 -0.694  -0.692  -0.674  -0.674  -0.654  -0.653  -0.648  -0.643
 -0.639  -0.636  -0.628  -0.627  -0.613  -0.609  -0.595  -0.594
 -0.592  -0.588  -0.582  -0.581  -0.577  -0.574  -0.566  -0.563
 -0.557  -0.554  -0.540  -0.536  -0.529  -0.525  -0.511  -0.509
 -0.509  -0.503  -0.498  -0.496  -0.493  -0.487  -0.481  -0.475
 -0.474  -0.472  -0.468  -0.467  -0.461  -0.456  -0.448  -0.448
 -0.443  -0.442  -0.440  -0.435  -0.434  -0.430  -0.428  -0.426
 -0.425  -0.424  -0.423  -0.419  -0.416  -0.415  -0.414  -0.413
 -0.411  -0.406  -0.402  -0.402  -0.400  -0.399  -0.397  -0.395
 -0.394  -0.390  -0.389  -0.389  -0.388  -0.386  -0.384  -0.383
 -0.378  -0.376  -0.374  -0.370  -0.366  -0.364  -0.363  -0.358
 -0.353  -0.353  -0.351  -0.349  -0.345  -0.345  -0.342  -0.334
 -0.333  -0.332  -0.329  -0.328  -0.326  -0.326  -0.317  -0.317
 -0.314  -0.311  -0.309  -0.309  -0.306  -0.305  -0.304  -0.298
 -0.297  -0.291  -0.289  -0.288  -0.286  -0.285  -0.284  -0.282
 -0.274  -0.274  -0.264  -0.263  -0.253  -0.253  -0.251  -0.247
 -0.246  -0.244  -0.235  -0.230  -0.194  -0.191

          Ground-State Mulliken Net Atomic Charges

     Atom                 Charge (a.u.)
  ----------------------------------------
      1 C                     0.259072
      2 C                    -0.096004
      3 N                    -0.469506
      4 C                    -0.077981
      5 C                     0.076114
      6 C                     0.006625
      7 C                     0.005651
      8 C                     0.069495
      9 C                     0.263901
     10 N                    -0.516036
     11 N                    -0.556672
     12 C                     0.192289
     13 C                     0.295469
     14 S                     0.590838
     15 N                    -0.560841
     16 C                    -0.200587
     17 S                     0.313262
     18 C                    -0.121561
     19 C                    -0.254473
     20 S                     0.306369
     21 C                     0.179341
     22 C                     0.085810
     23 C                    -0.319409
     24 C                    -0.060163
     25 N                    -0.441877
     26 S                     0.258801
     27 C                     0.118119
     28 C                    -0.305860
     29 C                    -0.238845
     30 H                     0.085699
     31 H                     0.103401
     32 H                     0.119821
     33 H                     0.106775
     34 H                     0.127705
     35 H                     0.129945
     36 H                     0.115721
     37 H                     0.138094
     38 H                     0.090640
     39 C                    -0.163914
     40 H                     0.111627
     41 H                     0.118684
     42 H                     0.100818
     43 C                    -0.178025
     44 H                     0.112985
     45 C                    -0.186447
     46 H                     0.085225
     47 H                     0.089959
     48 H                     0.082557
     49 C                    -0.174006
     50 H                     0.089375
     51 C                    -0.318848
     52 H                     0.088550
     53 H                     0.097835
     54 H                     0.106091
     55 H                     0.098667
     56 C                     0.285768
     57 C                    -0.118380
     58 N                    -0.472388
     59 C                    -0.061627
     60 C                     0.060108
     61 C                     0.024043
     62 C                    -0.012993
     63 C                     0.056844
     64 C                     0.229272
     65 N                    -0.503316
     66 N                    -0.529020
     67 C                     0.228882
     68 C                     0.265934
     69 S                     0.606636
     70 N                    -0.550972
     71 C                    -0.207312
     72 S                     0.307763
     73 C                    -0.108801
     74 C                    -0.220706
     75 S                     0.288320
     76 C                     0.183440
     77 C                     0.037601
     78 C                    -0.306272
     79 C                    -0.065790
     80 N                    -0.415425
     81 S                     0.250382
     82 C                     0.115272
     83 C                    -0.301952
     84 C                    -0.222120
     85 H                     0.092043
     86 H                     0.116552
     87 H                     0.109619
     88 H                     0.120985
     89 H                     0.122027
     90 H                     0.117124
     91 H                     0.118703
     92 H                     0.135705
     93 H                     0.089493
     94 C                    -0.184389
     95 H                     0.132811
     96 H                     0.092741
     97 H                     0.093800
     98 C                    -0.172200
     99 H                     0.117519
    100 C                    -0.167832
    101 H                     0.080334
    102 H                     0.090001
    103 H                     0.084979
    104 C                    -0.173896
    105 H                     0.094314
    106 C                    -0.319961
    107 H                     0.095072
    108 H                     0.094845
    109 H                     0.095006
    110 H                     0.101135
  ----------------------------------------
  Sum of atomic charges =     0.000000

                    Cartesian Multipole Moments
 -----------------------------------------------------------------
    Charge (ESU x 10^10)
                 0.0000
    Dipole Moment (Debye)
         X       0.8601      Y      -0.6604      Z      -0.3315
       Tot       1.1339
    Quadrupole Moments (Debye-Ang)
        XX    -424.8772     XY      19.8376     YY    -439.6526
        XZ      10.1155     YZ     -14.7331     ZZ    -412.2381

 Total job time:  90.18s(wall), 1062.01s(cpu)
        *  Thank you very much for using Q-Chem.  Have a nice day.  *
