 Q-Chem 4.4, Q-Chem, Inc., Pleasanton, CA (2016)
 Q-Chem 4.4.2 for Intel X86 Linux

User input:
--------------------------------------------------------------
$comment
SP
$end

$rem
MEM_STATIC 5000
MEM_TOTAL 20000
JOBTYPE SP
EXCHANGE B3LYP
BASIS 6-31g(d,p)
$end

$molecule
0 1
C          -3.156000     -9.386000      1.158000
C          -2.421000     -8.866000      0.031000
N          -4.273000     -8.823000      1.557000
C          -2.874000     -7.755000     -0.686000
C          -4.648000     -7.659000      0.944000
C          -3.999000     -7.038000     -0.191000
C          -4.539000     -5.783000     -0.858000
C          -5.885000     -5.488000     -0.832000
C          -3.718000     -4.826000     -1.481000
N          -6.425000     -4.401000     -1.479000
N          -2.390000     -4.834000     -1.470000
C          -4.229000     -3.691000     -2.094000
C          -5.635000     -3.462000     -2.062000
S          -1.911000     -3.524000     -2.349000
N          -3.338000     -2.910000     -2.769000
C          -6.305000     -2.357000     -2.712000
S          -5.548000     -1.034000     -3.675000
C          -7.649000     -2.015000     -2.664000
C          -7.084000     -0.173000     -3.956000
S          -8.902000     -2.946000     -1.903000
C          -8.021000     -0.827000     -3.262000
C          -7.303000      0.995000     -4.691000
C          -9.944000     -1.549000     -2.291000
C          -9.351000     -0.556000     -3.030000
N          -8.421000      1.149000     -5.374000
S          -6.178000      2.331000     -4.749000
C          -8.533000      2.460000     -5.860000
C          -7.378000      3.161000     -5.665000
C          -2.753000    -10.680000      1.919000
H          -1.564000     -9.449000     -0.292000
H          -2.380000     -7.572000     -1.636000
H          -5.524000     -7.199000      1.399000
H          -6.615000     -6.215000     -0.480000
H         -10.971000     -1.607000     -1.955000
H          -9.867000      0.328000     -3.387000
H          -9.457000      2.719000     -6.361000
H          -7.119000      4.182000     -5.912000
H          -1.717000    -10.852000      1.600000
C          -3.714000    -11.919000      1.698000
H          -2.718000    -10.508000      3.002000
H          -3.110000    -12.801000      1.946000
H          -3.923000    -12.009000      0.625000
C          -5.037000    -11.825000      2.447000
H          -4.701000    -11.652000      3.477000
C          -5.842000    -13.160000      2.401000
H          -5.657000    -11.045000      1.987000
H          -5.500000    -13.846000      3.186000
H          -5.480000    -13.717000      1.528000
C          -7.376000    -13.046000      2.484000
H          -7.665000    -12.302000      1.731000
C          -7.855000    -12.565000      3.844000
H          -7.782000    -14.003000      2.135000
H          -7.945000    -13.433000      4.509000
H          -8.853000    -12.111000      3.867000
H          -7.228000    -11.818000      4.347000
C         -22.262000      0.946000    -12.275000
C         -21.517000      0.034000    -13.049000
N         -21.697000      1.819000    -11.460000
C         -20.148000      0.023000    -12.914000
C         -20.376000      1.886000    -11.440000
C         -19.509000      0.973000    -12.098000
C         -18.012000      0.987000    -11.802000
C         -17.190000      0.147000    -12.644000
C         -17.342000      1.502000    -10.647000
N         -15.908000     -0.194000    -12.439000
N         -17.893000      2.259000     -9.718000
C         -15.969000      1.193000    -10.441000
C         -15.244000      0.313000    -11.326000
S         -16.727000      2.474000     -8.594000
N         -15.467000      1.765000     -9.376000
C         -13.829000     -0.183000    -11.114000
S         -12.869000     -0.019000     -9.639000
C         -13.094000     -0.912000    -12.011000
C         -11.482000     -0.883000    -10.277000
S         -13.449000     -1.382000    -13.595000
C         -11.804000     -1.211000    -11.556000
C         -10.218000     -0.906000     -9.638000
C         -11.775000     -1.963000    -13.736000
C         -11.004000     -1.865000    -12.575000
N          -9.487000     -1.978000     -9.924000
S          -9.768000     -0.008000     -8.239000
C          -8.322000     -1.981000     -9.208000
C          -8.346000     -1.100000     -8.165000
C         -23.804000      1.078000    -12.432000
H         -22.085000     -0.657000    -13.665000
H         -19.621000     -0.849000    -13.288000
H         -19.931000      2.557000    -10.707000
H         -17.633000     -0.330000    -13.517000
H         -11.478000     -2.396000    -14.682000
H          -9.994000     -2.232000    -12.433000
H          -7.510000     -2.639000     -9.487000
H          -7.556000     -0.951000     -7.440000
H         -24.170000      0.104000    -12.780000
C         -24.192000      2.209000    -13.370000
H         -24.224000      1.175000    -11.423000
H         -23.790000      1.949000    -14.357000
H         -23.725000      3.151000    -13.056000
C         -25.686000      2.467000    -13.623000
H         -25.916000      3.296000    -14.304000
C         -26.481000      2.634000    -12.352000
H         -26.113000      1.578000    -14.104000
H         -26.025000      3.522000    -11.897000
H         -26.334000      1.765000    -11.698000
C         -27.953000      2.883000    -12.503000
H         -28.303000      2.057000    -13.135000
C         -28.397000      4.253000    -13.075000
H         -28.419000      2.753000    -11.519000
H         -27.900000      5.037000    -12.492000
H         -29.492000      4.318000    -13.081000
H         -28.000000      4.421000    -14.084000
$end

--------------------------------------------------------------

             Standard Nuclear Orientation (Angstroms)
    I     Atom           X                Y                Z
 ----------------------------------------------------------------
    1      C      12.9807568639    -2.7120554467    -0.6676717999
    2      C      12.7032746998    -1.5002890494    -1.3993683538
    3      N      12.1535602691    -3.1535181569     0.2514122382
    4      C      11.5411849681    -0.7585547347    -1.1691583151
    5      C      11.0854605335    -2.3617001064     0.5730908509
    6      C      10.7005405164    -1.1302128429    -0.0829142559
    7      C       9.4452722504    -0.3592353074     0.2931299173
    8      C       8.3489432950    -1.0031626263     0.8249545401
    9      C       9.3369731281     1.0388471098     0.1851676329
   10      N       7.1702708991    -0.3567342276     1.1158835842
   11      N      10.3281558302     1.8597896308    -0.1425200661
   12      C       8.1796335851     1.7253201445     0.5234499929
   13      C       7.0680090403     0.9955871656     1.0353891016
   14      S       9.6887047411     3.3794069673    -0.1494088548
   15      N       8.1633466100     3.0618065781     0.2532542361
   16      C       5.7845278838     1.5743726497     1.3672150866
   17      S       5.2995218520     3.3058346129     1.2347174672
   18      C       4.6833777877     0.9570392646     1.9433851634
   19      C       3.6732708182     3.0452192977     1.9180660111
   20      S       4.5377207597    -0.7404531179     2.2798292772
   21      C       3.6163440227     1.7623778252     2.2900849574
   22      C       2.6520830750     3.9793809058     2.1102317805
   23      C       3.0087163234    -0.2799537170     3.0785800116
   24      C       2.6541577884     1.0407224148     2.9605893342
   25      N       1.3907441661     3.6233566991     1.9605657481
   26      S       2.9302736053     5.6384605837     2.5834649697
   27      C       0.5293248680     4.6388467161     2.4012445632
   28      C       1.2164723273     5.7848397427     2.6804923961
   29      C      14.2014859946    -3.6283699641    -0.9611919776
   30      H      13.3876856477    -1.2615648056    -2.2076129886
   31      H      11.3141783633     0.0055603700    -1.9071428056
   32      H      10.5074172102    -2.7438963642     1.4132056865
   33      H       8.2861125023    -2.0899587703     0.8410614579
   34      H       2.4561357049    -1.0783881942     3.5562263722
   35      H       1.7315237512     1.4601370948     3.3452954033
   36      H      -0.5297971733     4.4150005751     2.4046219801
   37      H       0.8737182334     6.7469037547     3.0375406672
   38      H      14.8598941703    -2.9912479085    -1.5655223181
   39      C      13.8537197216    -5.0209159831    -1.6300396465
   40      H      14.7539057908    -3.8588836822    -0.0417389910
   41      H      14.7808895438    -5.3463806217    -2.1185812412
   42      H      13.1460787100    -4.8452077745    -2.4494789818
   43      C      13.2492914774    -6.0401576194    -0.6729717364
   44      H      13.9948473750    -6.0635233626     0.1315936405
   45      C      13.1503274530    -7.4626509453    -1.3047033722
   46      H      12.2339130277    -5.7231467231    -0.4029519307
   47      H      14.1015831524    -7.9995391590    -1.2015111227
   48      H      13.1570135820    -7.3258582606    -2.3931265699
   49      C      12.0169355743    -8.3705180100    -0.7906593645
   50      H      11.0997571192    -7.7708868005    -0.8480361373
   51      C      12.2204083776    -8.8013612686     0.6527307092
   52      H      11.8992395127    -9.1744748740    -1.5270607482
   53      H      12.8575226333    -9.6945120027     0.6635099184
   54      H      11.3176577770    -9.1153085382     1.1904364513
   55      H      12.6679954721    -8.0593234333     1.3259265527
   56      C     -12.5483957026    -2.7969904798     0.0324026785
   57      C     -12.0655296333    -2.7034451997    -1.2881784965
   58      N     -12.0248322694    -2.1128880462     1.0341332769
   59      C     -10.9748759472    -1.9016600794    -1.5333766972
   60      C     -11.0631915360    -1.2468925527     0.7598543951
   61      C     -10.4261239155    -1.1177043334    -0.5033467967
   62      C      -9.1623187282    -0.2738078556    -0.6428322203
   63      C      -8.6879201148    -0.0582796224    -1.9914394783
   64      C      -8.2348550841     0.1081533227     0.3779845346
   65      N      -7.4943063855     0.4338840950    -2.3587147710
   66      N      -8.4287342338    -0.0260162792     1.6757134713
   67      C      -6.9859018191     0.6792826280     0.0078858199
   68      C      -6.5911799282     0.8209507886    -1.3731915715
   69      S      -7.0342858307     0.4666288204     2.3699551131
   70      N      -6.2542788605     1.0271090259     1.0360675370
   71      C      -5.2348253335     1.2853043208    -1.8609035875
   72      S      -3.7803572514     1.4925839644    -0.8782140395
   73      C      -4.8982774384     1.5431134146    -3.1634184571
   74      C      -2.7669389116     1.9743352158    -2.2266234730
   75      S      -5.8455755385     1.5373220905    -4.5629089966
   76      C      -3.5780984579     1.9836233344    -3.3170559199
   77      C      -1.4729350596     2.5285440501    -2.0686595566
   78      C      -4.4580146508     2.2256166022    -5.4350577499
   79      C      -3.2896681088     2.3766049843    -4.6839686298
   80      N      -0.6703799422     2.3332635710    -3.1093861384
   81      S      -0.7240124319     2.9571887276    -0.5781953208
   82      C       0.5848159644     2.8130700827    -2.8560899727
   83      C       0.7946977231     3.0560056307    -1.5288680746
   84      C     -13.8263102892    -3.6146239685     0.3762729847
   85      H     -12.5533144948    -3.3304677323    -2.0287658800
   86      H     -10.4495509972    -2.0541189615    -2.4708088207
   87      H     -10.5944064363    -0.7510649160     1.6083533550
   88      H      -9.3077668316    -0.3687834152    -2.8312516253
   89      H      -4.5878574562     2.4337477242    -6.4888301551
   90      H      -2.3215736193     2.7021808037    -5.0469375612
   91      H       1.2893721579     2.9559811365    -3.6643758138
   92      H       1.7181427213     3.4047019832    -1.0843613941
   93      H     -13.9072377372    -4.4058215142    -0.3795002563
   94      C     -15.0693058031    -2.7421534805     0.4337742877
   95      H     -13.6216222797    -4.1566777704     1.3080296561
   96      H     -15.2115654020    -2.3330900110    -0.5740958848
   97      H     -14.9198296573    -1.8985119644     1.1193214225
   98      C     -16.4135788935    -3.4084758760     0.7677702813
   99      H     -17.2808619619    -2.7372114421     0.8013282739
  100      C     -16.3699055358    -4.2261752973     2.0345833277
  101      H     -16.6457352682    -4.1324915045    -0.0233781165
  102      H     -16.1301675884    -3.4757763292     2.7980832329
  103      H     -15.5631748328    -4.9680548824     1.9772574688
  104      C     -17.6384747888    -4.9201628124     2.4354565983
  105      H     -17.9210856642    -5.4999230956     1.5476451841
  106      C     -18.8155975857    -4.0413250530     2.9286564702
  107      H     -17.3928281214    -5.6413566447     3.2240307363
  108      H     -18.4347388316    -3.3821987503     3.7173599167
  109      H     -19.6540085106    -4.6783841232     3.2360794070
  110      H     -19.1408191381    -3.3280520000     2.1609413578
 ----------------------------------------------------------------

   10   -5663.5356222879      3.57E-06 Convergence criterion met
 Total energy in the final basis set = -5663.5356222879

                    Orbital Energies (a.u.)
 --------------------------------------------------------------

 Alpha MOs
 -- Occupied --
-88.993 -88.984 -88.934 -88.926 -88.925 -88.916 -88.910 -88.906
-14.395 -14.385 -14.385 -14.380 -14.354 -14.353 -14.352 -14.335
-14.332 -14.321 -10.274 -10.270 -10.269 -10.261 -10.260 -10.258
-10.257 -10.256 -10.246 -10.244 -10.241 -10.241 -10.239 -10.238
-10.238 -10.235 -10.233 -10.233 -10.230 -10.230 -10.228 -10.228
-10.226 -10.224 -10.224 -10.222 -10.222 -10.219 -10.216 -10.216
-10.215 -10.208 -10.203 -10.203 -10.203 -10.196 -10.196 -10.194
-10.191 -10.183 -10.183 -10.178 -10.176 -10.172 -10.172 -10.172
-10.171 -10.171 -10.168 -10.165  -8.048  -8.040  -7.996  -7.986
 -7.983  -7.976  -7.970  -7.967  -6.014  -6.008  -6.006  -6.005
 -5.999  -5.997  -5.960  -5.957  -5.954  -5.950  -5.948  -5.947
 -5.944  -5.943  -5.940  -5.940  -5.936  -5.934  -5.933  -5.931
 -5.931  -5.927  -5.926  -5.923  -1.049  -1.045  -0.979  -0.967
 -0.956  -0.946  -0.944  -0.941  -0.923  -0.915  -0.914  -0.912
 -0.847  -0.843  -0.834  -0.826  -0.819  -0.815  -0.808  -0.805
 -0.804  -0.798  -0.797  -0.796  -0.783  -0.782  -0.772  -0.764
 -0.757  -0.748  -0.743  -0.738  -0.720  -0.716  -0.712  -0.707
 -0.695  -0.692  -0.679  -0.675  -0.656  -0.656  -0.652  -0.644
 -0.642  -0.634  -0.628  -0.620  -0.613  -0.613  -0.603  -0.600
 -0.594  -0.587  -0.585  -0.582  -0.580  -0.578  -0.564  -0.560
 -0.551  -0.550  -0.543  -0.536  -0.533  -0.526  -0.522  -0.507
 -0.506  -0.505  -0.504  -0.499  -0.492  -0.482  -0.480  -0.478
 -0.474  -0.474  -0.468  -0.466  -0.453  -0.453  -0.453  -0.445
 -0.444  -0.442  -0.440  -0.439  -0.435  -0.434  -0.434  -0.432
 -0.427  -0.426  -0.423  -0.420  -0.420  -0.417  -0.415  -0.413
 -0.410  -0.407  -0.406  -0.405  -0.399  -0.399  -0.398  -0.397
 -0.396  -0.395  -0.394  -0.393  -0.393  -0.391  -0.387  -0.384
 -0.382  -0.379  -0.378  -0.377  -0.365  -0.363  -0.360  -0.357
 -0.356  -0.353  -0.353  -0.349  -0.348  -0.347  -0.339  -0.338
 -0.337  -0.333  -0.332  -0.329  -0.328  -0.325  -0.320  -0.318
 -0.313  -0.312  -0.310  -0.307  -0.304  -0.303  -0.303  -0.302
 -0.299  -0.298  -0.294  -0.292  -0.290  -0.288  -0.285  -0.274
 -0.274  -0.271  -0.269  -0.267  -0.262  -0.253  -0.250  -0.248
 -0.244  -0.240  -0.235  -0.228  -0.202  -0.192

          Ground-State Mulliken Net Atomic Charges

     Atom                 Charge (a.u.)
  ----------------------------------------
      1 C                     0.270512
      2 C                    -0.127210
      3 N                    -0.464322
      4 C                    -0.052848
      5 C                     0.054933
      6 C                     0.032612
      7 C                     0.061919
      8 C                     0.044501
      9 C                     0.250027
     10 N                    -0.547661
     11 N                    -0.557184
     12 C                     0.170335
     13 C                     0.323244
     14 S                     0.602382
     15 N                    -0.542018
     16 C                    -0.217584
     17 S                     0.294766
     18 C                    -0.124873
     19 C                    -0.235409
     20 S                     0.292570
     21 C                     0.217276
     22 C                     0.026309
     23 C                    -0.316517
     24 C                    -0.048976
     25 N                    -0.431588
     26 S                     0.284080
     27 C                     0.115636
     28 C                    -0.302436
     29 C                    -0.227973
     30 H                     0.088748
     31 H                     0.111616
     32 H                     0.101604
     33 H                     0.123091
     34 H                     0.121311
     35 H                     0.114452
     36 H                     0.130339
     37 H                     0.136934
     38 H                     0.086314
     39 C                    -0.187947
     40 H                     0.115860
     41 H                     0.094940
     42 H                     0.092514
     43 C                    -0.147093
     44 H                     0.092379
     45 C                    -0.188674
     46 H                     0.118006
     47 H                     0.085068
     48 H                     0.082463
     49 C                    -0.175605
     50 H                     0.092638
     51 C                    -0.320284
     52 H                     0.093598
     53 H                     0.101370
     54 H                     0.098741
     55 H                     0.113404
     56 C                     0.245380
     57 C                    -0.116294
     58 N                    -0.461850
     59 C                    -0.081603
     60 C                     0.053821
     61 C                     0.042258
     62 C                     0.037566
     63 C                     0.056118
     64 C                     0.246168
     65 N                    -0.524692
     66 N                    -0.559753
     67 C                     0.221052
     68 C                     0.298513
     69 S                     0.584472
     70 N                    -0.563561
     71 C                    -0.226740
     72 S                     0.295825
     73 C                    -0.080622
     74 C                    -0.210987
     75 S                     0.289247
     76 C                     0.128959
     77 C                     0.018053
     78 C                    -0.324010
     79 C                    -0.037153
     80 N                    -0.418427
     81 S                     0.290743
     82 C                     0.133834
     83 C                    -0.308404
     84 C                    -0.212758
     85 H                     0.090288
     86 H                     0.102203
     87 H                     0.127604
     88 H                     0.109230
     89 H                     0.121098
     90 H                     0.125248
     91 H                     0.117392
     92 H                     0.137301
     93 H                     0.085035
     94 C                    -0.167637
     95 H                     0.117896
     96 H                     0.088761
     97 H                     0.111899
     98 C                    -0.178196
     99 H                     0.091551
    100 C                    -0.163997
    101 H                     0.080157
    102 H                     0.085305
    103 H                     0.090516
    104 C                    -0.174536
    105 H                     0.085023
    106 C                    -0.319014
    107 H                     0.090404
    108 H                     0.104083
    109 H                     0.105155
    110 H                     0.101782
  ----------------------------------------
  Sum of atomic charges =     0.000000

                    Cartesian Multipole Moments
 -----------------------------------------------------------------
    Charge (ESU x 10^10)
                 0.0000
    Dipole Moment (Debye)
         X       3.0171      Y       3.0679      Z      -0.6853
       Tot       4.3571
    Quadrupole Moments (Debye-Ang)
        XX    -438.1206     XY      20.7684     YY    -424.7503
        XZ      -5.0675     YZ      10.6540     ZZ    -433.3372

 Total job time:  86.84s(wall), 1014.00s(cpu)
        *  Thank you very much for using Q-Chem.  Have a nice day.  *
