 Q-Chem 4.4, Q-Chem, Inc., Pleasanton, CA (2016)
 Q-Chem 4.4.2 for Intel X86 Linux

User input:
--------------------------------------------------------------
$comment
SP
$end

$rem
MEM_STATIC 5000
MEM_TOTAL 20000
JOBTYPE SP
EXCHANGE B3LYP
BASIS 6-31g(d,p)
$end

$molecule
0 1
C         -27.509000     -0.549000     -4.751000
C         -26.807000     -1.660000     -4.230000
N         -26.897000      0.612000     -5.137000
C         -25.397000     -1.594000     -4.208000
C         -25.542000      0.662000     -5.067000
C         -24.730000     -0.414000     -4.629000
C         -23.228000     -0.400000     -4.736000
C         -22.595000      0.822000     -4.394000
C         -22.376000     -1.496000     -5.093000
N         -21.273000      0.956000     -4.481000
N         -22.809000     -2.680000     -5.371000
C         -21.048000     -1.287000     -5.289000
C         -20.467000      0.005000     -5.000000
S         -21.506000     -3.477000     -5.919000
N         -20.333000     -2.269000     -5.838000
C         -19.019000      0.241000     -5.186000
S         -17.790000     -1.058000     -5.292000
C         -18.462000      1.505000     -5.077000
C         -16.499000      0.180000     -5.497000
S         -19.179000      3.087000     -4.820000
C         -17.085000      1.442000     -5.426000
C         -15.081000     -0.140000     -5.713000
C         -17.625000      3.795000     -5.303000
C         -16.638000      2.814000     -5.516000
N         -14.296000      0.908000     -5.863000
S         -14.317000     -1.713000     -5.596000
C         -12.955000      0.463000     -5.745000
C         -12.855000     -0.861000     -5.687000
C         -28.907000     -0.563000     -5.106000
H         -27.271000     -2.592000     -3.920000
H         -24.864000     -2.397000     -3.708000
H         -25.041000      1.512000     -5.528000
H         -23.179000      1.670000     -4.040000
H         -17.641000      4.877000     -5.304000
H         -15.612000      3.118000     -5.688000
H         -12.180000      1.219000     -5.741000
H         -11.951000     -1.442000     -5.813000
H         -29.191000      0.497000     -5.111000
C         -29.961000     -1.208000     -4.160000
H         -29.045000     -0.974000     -6.114000
H         -29.728000     -2.254000     -3.924000
H         -30.928000     -1.133000     -4.671000
C         -30.004000     -0.414000     -2.849000
H         -29.105000     -0.561000     -2.237000
C         -31.228000     -0.858000     -2.042000
H         -30.162000      0.652000     -3.054000
H         -31.180000     -1.949000     -1.942000
H         -32.118000     -0.714000     -2.666000
C         -31.291000     -0.187000     -0.637000
H         -31.930000     -0.768000      0.040000
C         -31.797000      1.311000     -0.883000
H         -30.273000     -0.133000     -0.232000
H         -32.860000      1.285000     -1.156000
H         -31.198000      1.823000     -1.646000
H         -31.715000      1.861000      0.062000
C         -22.262000      0.946000    -12.275000
C         -21.517000      0.034000    -13.049000
N         -21.697000      1.819000    -11.460000
C         -20.148000      0.023000    -12.914000
C         -20.376000      1.886000    -11.440000
C         -19.509000      0.973000    -12.098000
C         -18.012000      0.987000    -11.802000
C         -17.190000      0.147000    -12.644000
C         -17.342000      1.502000    -10.647000
N         -15.908000     -0.194000    -12.439000
N         -17.893000      2.259000     -9.718000
C         -15.969000      1.193000    -10.441000
C         -15.244000      0.313000    -11.326000
S         -16.727000      2.474000     -8.594000
N         -15.467000      1.765000     -9.376000
C         -13.829000     -0.183000    -11.114000
S         -12.869000     -0.019000     -9.639000
C         -13.094000     -0.912000    -12.011000
C         -11.482000     -0.883000    -10.277000
S         -13.449000     -1.382000    -13.595000
C         -11.804000     -1.211000    -11.556000
C         -10.218000     -0.906000     -9.638000
C         -11.775000     -1.963000    -13.736000
C         -11.004000     -1.865000    -12.575000
N          -9.487000     -1.978000     -9.924000
S          -9.768000     -0.008000     -8.239000
C          -8.322000     -1.981000     -9.208000
C          -8.346000     -1.100000     -8.165000
C         -23.804000      1.078000    -12.432000
H         -22.085000     -0.657000    -13.665000
H         -19.621000     -0.849000    -13.288000
H         -19.931000      2.557000    -10.707000
H         -17.633000     -0.330000    -13.517000
H         -11.478000     -2.396000    -14.682000
H          -9.994000     -2.232000    -12.433000
H          -7.510000     -2.639000     -9.487000
H          -7.556000     -0.951000     -7.440000
H         -24.170000      0.104000    -12.780000
C         -24.192000      2.209000    -13.370000
H         -24.224000      1.175000    -11.423000
H         -23.790000      1.949000    -14.357000
H         -23.725000      3.151000    -13.056000
C         -25.686000      2.467000    -13.623000
H         -25.916000      3.296000    -14.304000
C         -26.481000      2.634000    -12.352000
H         -26.113000      1.578000    -14.104000
H         -26.025000      3.522000    -11.897000
H         -26.334000      1.765000    -11.698000
C         -27.953000      2.883000    -12.503000
H         -28.303000      2.057000    -13.135000
C         -28.397000      4.253000    -13.075000
H         -28.419000      2.753000    -11.519000
H         -27.900000      5.037000    -12.492000
H         -29.492000      4.318000    -13.081000
H         -28.000000      4.421000    -14.084000
$end

--------------------------------------------------------------

             Standard Nuclear Orientation (Angstroms)
    I     Atom           X                Y                Z
 ----------------------------------------------------------------
    1      C       8.7689540173     1.0642090674    -0.9533880136
    2      C       8.1839133235     1.9656451089    -1.8719229610
    3      N       8.1322545166     0.6222322352     0.1738791356
    4      C       6.8396515161     2.3402140234    -1.6583853264
    5      C       6.8532358490     1.0310362750     0.3749152143
    6      C       6.1414405520     1.8756563039    -0.5133012356
    7      C       4.6707346442     2.1630855417    -0.3647833383
    8      C       4.2175755139     2.4010734323     0.9576937188
    9      C       3.7003902434     2.2720330944    -1.4141313142
   10      N       2.9310951355     2.6359741858     1.2086894801
   11      N       3.9810685776     2.1387725671    -2.6671637577
   12      C       2.3817976615     2.3903218655    -1.1091684151
   13      C       1.9673970155     2.5504533933     0.2666862278
   14      S       2.5398532957     2.1238925773    -3.4128172275
   15      N       1.4956599687     2.2591203058    -2.0963341257
   16      C       0.5376937137     2.7039218456     0.6122175619
   17      S      -0.7353755812     3.1893899219    -0.5508358837
   18      C       0.0953306392     2.6936697071     1.9252430011
   19      C      -1.9702124471     3.0793521553     0.7546983382
   20      S       0.9324631589     2.4262502220     3.4452949619
   21      C      -1.3258862898     2.7359106789     1.9412786159
   22      C      -3.4067906431     3.3102725118     0.5480612756
   23      C      -0.6576110164     2.2306592854     4.2087589771
   24      C      -1.7121877412     2.4871629592     3.3121136755
   25      N      -4.1500772193     3.1591374278     1.6258888370
   26      S      -4.1854953659     3.9410102937    -0.8898200843
   27      C      -5.4268211082     3.7107029504     1.3503339125
   28      C      -5.5720876612     4.0619379513     0.0768066836
   29      C      10.0124582373     0.3679185924    -1.1758780796
   30      H       8.6688703840     2.3276811384    -2.7740130690
   31      H       6.4262398601     3.1148954483    -2.2970225415
   32      H       6.2870903440     0.5529021345     1.1729684775
   33      H       4.9175933108     2.4097658446     1.7915855140
   34      H      -0.5891973116     2.0045255862     5.2647722891
   35      H      -2.7295660358     2.5300247137     3.6833013310
   36      H      -6.1324455289     3.7619277769     2.1698747559
   37      H      -6.5032864044     4.2972070595    -0.4213603038
   38      H      10.3359610416     0.0726930145    -0.1696629964
   39      C      11.2532836058     1.1177813562    -1.7414885819
   40      H       9.8467955779    -0.5352417777    -1.7766161499
   41      H      11.0431116917     1.6148382358    -2.6969273424
   42      H      12.0444149037     0.3683773242    -1.8612377628
   43      C      11.6951113651     2.1814735586    -0.7293852623
   44      H      10.9935538203     3.0231774063    -0.6685112612
   45      C      13.0707219509     2.7148312086    -1.1414363920
   46      H      11.8428161319     1.7291202132     0.2589996591
   47      H      12.9984372248     3.0445573760    -2.1848157922
   48      H      13.7601836266     1.8647611545    -1.2065171184
   49      C      13.5516007203     3.8871392901    -0.2344168932
   50      H      14.3230291358     4.4781984449    -0.7440817589
   51      C      14.0433701053     3.2172014652     1.1330267739
   52      H      12.6886464514     4.5234535743    -0.0027294715
   53      H      14.9872932721     2.6880032838     0.9482773762
   54      H      13.2832319448     2.5486661852     1.5553590559
   55      H      14.2522752844     4.0179325527     1.8523579575
   56      C       1.7313945970    -4.9741785357    -0.3310998479
   57      C       0.7578799711    -5.3241788176    -1.2879771000
   58      N       1.4567086180    -4.2362810385     0.7298591035
   59      C      -0.5196660005    -4.8379320571    -1.1332276951
   60      C       0.1973834633    -3.8869872661     0.9348567014
   61      C      -0.8613200620    -4.0955436021     0.0108041595
   62      C      -2.2161278539    -3.4291381459     0.2326613546
   63      C      -3.2787587333    -3.8379543870    -0.6583677669
   64      C      -2.5155269452    -2.2699291811     1.0167179598
   65      N      -4.4697535427    -3.2409071708    -0.8223677232
   66      N      -1.6931590974    -1.6914706164     1.8704086601
   67      C      -3.7920275525    -1.6547704360     0.8935436209
   68      C      -4.7753654954    -2.1212589921    -0.0544463142
   69      S      -2.4920434714    -0.3710291189     2.4064823571
   70      N      -3.9521506530    -0.6358930887     1.6995600872
   71      C      -6.0997482870    -1.4512990877    -0.3550273311
   72      S      -6.6066263726     0.1571097442     0.1743275932
   73      C      -7.0885517332    -1.9573512383    -1.1565595922
   74      C      -8.1565937524     0.0928713965    -0.6446861774
   75      S      -7.2075959663    -3.4485107932    -1.9428500299
   76      C      -8.2162368603    -1.1308946398    -1.2328599511
   77      C      -9.1949910352     1.0298021874    -0.4201026156
   78      C      -8.8821188076    -3.0268184962    -2.3645926769
   79      C      -9.2973754743    -1.7504569027    -1.9767409225
   80      N     -10.0284211338     1.1693248815    -1.4454165619
   81      S      -9.1970505825     2.2837103130     0.7604968807
   82      C     -10.9495668828     2.1490404039    -1.1973480143
   83      C     -10.5955724679     2.9470202288    -0.1473469890
   84      C       3.1749170156    -5.5509666410    -0.3893708411
   85      H       1.0992762217    -5.9122549920    -2.1348395524
   86      H      -1.1716610865    -4.8754422769    -2.0001096889
   87      H       0.0053339970    -3.2164624672     1.7709598629
   88      H      -3.1176622708    -4.6796936950    -1.3302530748
   89      H      -9.4493675201    -3.7536672204    -2.9307497490
   90      H     -10.2459033889    -1.2783999906    -2.2056733732
   91      H     -11.8384208410     2.2316995619    -1.8082940877
   92      H     -11.1467507317     3.8064951541     0.2124187327
   93      H       3.3823293405    -5.7757247962    -1.4430310801
   94      C       3.3445503054    -6.7681835302     0.5045847459
   95      H       3.8610508996    -4.7280748147    -0.1528135848
   96      H       2.6737271326    -7.5417082253     0.1108477565
   97      H       3.0292291686    -6.5426622231     1.5311137132
   98      C       4.7217386246    -7.4487938429     0.5568430996
   99      H       4.7956584274    -8.3206529312     1.2188850868
  100      C       5.8435448831    -6.4906565744     0.8712929260
  101      H       4.9552343935    -7.8323064143    -0.4443605928
  102      H       5.5749926182    -6.1239196220     1.8697360584
  103      H       5.8398890643    -5.6577250254     0.1566617836
  104      C       7.2272890710    -7.0674484627     0.9357067448
  105      H       7.3483437300    -7.5862589667    -0.0236583737
  106      C       7.5633594931    -8.0027090510     2.1246408487
  107      H       7.9395019712    -6.2337599458     0.9410210199
  108      H       7.2856086353    -7.4832644179     3.0490789127
  109      H       8.6160934030    -8.3068852524     2.0744995143
  110      H       6.9123665977    -8.8857242160     2.1448019109
 ----------------------------------------------------------------

    9   -5663.5201203908      8.20E-06 Convergence criterion met
 Total energy in the final basis set = -5663.5201203908

                    Orbital Energies (a.u.)
 --------------------------------------------------------------

 Alpha MOs
 -- Occupied --
-88.984 -88.976 -88.934 -88.929 -88.927 -88.916 -88.912 -88.906
-14.393 -14.385 -14.377 -14.373 -14.350 -14.344 -14.344 -14.341
-14.331 -14.319 -10.272 -10.268 -10.267 -10.261 -10.252 -10.251
-10.250 -10.250 -10.249 -10.243 -10.242 -10.237 -10.236 -10.234
-10.233 -10.232 -10.232 -10.229 -10.228 -10.227 -10.227 -10.226
-10.223 -10.223 -10.223 -10.221 -10.220 -10.216 -10.214 -10.214
-10.213 -10.209 -10.207 -10.204 -10.204 -10.200 -10.196 -10.194
-10.183 -10.182 -10.182 -10.177 -10.175 -10.174 -10.173 -10.172
-10.170 -10.170 -10.170 -10.163  -8.040  -8.031  -7.995  -7.991
 -7.986  -7.976  -7.971  -7.967  -6.005  -6.000  -5.997  -5.996
 -5.991  -5.989  -5.959  -5.955  -5.955  -5.952  -5.951  -5.950
 -5.948  -5.947  -5.942  -5.940  -5.936  -5.936  -5.932  -5.932
 -5.931  -5.928  -5.927  -5.923  -1.053  -1.038  -0.974  -0.969
 -0.955  -0.944  -0.942  -0.932  -0.921  -0.914  -0.907  -0.904
 -0.843  -0.839  -0.828  -0.823  -0.817  -0.810  -0.807  -0.805
 -0.803  -0.802  -0.797  -0.790  -0.782  -0.780  -0.764  -0.763
 -0.750  -0.747  -0.737  -0.736  -0.725  -0.716  -0.707  -0.705
 -0.691  -0.689  -0.676  -0.673  -0.656  -0.654  -0.642  -0.639
 -0.636  -0.633  -0.622  -0.617  -0.612  -0.611  -0.602  -0.594
 -0.589  -0.589  -0.586  -0.581  -0.579  -0.573  -0.567  -0.553
 -0.551  -0.549  -0.538  -0.533  -0.526  -0.521  -0.513  -0.511
 -0.503  -0.500  -0.500  -0.497  -0.487  -0.481  -0.481  -0.473
 -0.470  -0.467  -0.466  -0.463  -0.460  -0.451  -0.451  -0.448
 -0.445  -0.441  -0.440  -0.439  -0.438  -0.436  -0.431  -0.429
 -0.426  -0.425  -0.424  -0.421  -0.419  -0.416  -0.413  -0.411
 -0.409  -0.408  -0.403  -0.403  -0.398  -0.397  -0.396  -0.395
 -0.394  -0.393  -0.390  -0.387  -0.386  -0.385  -0.382  -0.381
 -0.379  -0.378  -0.375  -0.370  -0.361  -0.357  -0.355  -0.354
 -0.353  -0.353  -0.350  -0.350  -0.346  -0.344  -0.342  -0.337
 -0.337  -0.334  -0.332  -0.331  -0.327  -0.327  -0.324  -0.321
 -0.317  -0.309  -0.308  -0.306  -0.303  -0.301  -0.300  -0.297
 -0.297  -0.295  -0.291  -0.290  -0.285  -0.283  -0.280  -0.278
 -0.271  -0.266  -0.265  -0.260  -0.257  -0.255  -0.254  -0.247
 -0.242  -0.240  -0.229  -0.227  -0.194  -0.192

          Ground-State Mulliken Net Atomic Charges

     Atom                 Charge (a.u.)
  ----------------------------------------
      1 C                     0.280986
      2 C                    -0.112617
      3 N                    -0.487139
      4 C                    -0.071077
      5 C                     0.072679
      6 C                     0.032973
      7 C                     0.015018
      8 C                     0.066610
      9 C                     0.273929
     10 N                    -0.531959
     11 N                    -0.543795
     12 C                     0.192583
     13 C                     0.319547
     14 S                     0.571065
     15 N                    -0.570332
     16 C                    -0.212149
     17 S                     0.321108
     18 C                    -0.120370
     19 C                    -0.236165
     20 S                     0.291863
     21 C                     0.174604
     22 C                     0.077661
     23 C                    -0.303006
     24 C                    -0.099650
     25 N                    -0.442334
     26 S                     0.286485
     27 C                     0.123373
     28 C                    -0.300882
     29 C                    -0.248145
     30 H                     0.094249
     31 H                     0.106468
     32 H                     0.107895
     33 H                     0.122099
     34 H                     0.140132
     35 H                     0.124953
     36 H                     0.118645
     37 H                     0.139766
     38 H                     0.124220
     39 C                    -0.185773
     40 H                     0.115436
     41 H                     0.090181
     42 H                     0.096669
     43 C                    -0.168866
     44 H                     0.097197
     45 C                    -0.172233
     46 H                     0.098150
     47 H                     0.077812
     48 H                     0.087324
     49 C                    -0.182431
     50 H                     0.092299
     51 C                    -0.321514
     52 H                     0.095652
     53 H                     0.106034
     54 H                     0.110323
     55 H                     0.097415
     56 C                     0.246004
     57 C                    -0.117471
     58 N                    -0.461473
     59 C                    -0.081126
     60 C                     0.054316
     61 C                     0.041770
     62 C                     0.038425
     63 C                     0.054140
     64 C                     0.242586
     65 N                    -0.525429
     66 N                    -0.565400
     67 C                     0.218128
     68 C                     0.295423
     69 S                     0.616597
     70 N                    -0.566159
     71 C                    -0.228972
     72 S                     0.307073
     73 C                    -0.081669
     74 C                    -0.220738
     75 S                     0.288506
     76 C                     0.132929
     77 C                     0.031260
     78 C                    -0.323180
     79 C                    -0.038379
     80 N                    -0.414930
     81 S                     0.264354
     82 C                     0.137990
     83 C                    -0.319736
     84 C                    -0.213117
     85 H                     0.089382
     86 H                     0.101442
     87 H                     0.130009
     88 H                     0.107484
     89 H                     0.121157
     90 H                     0.123043
     91 H                     0.120067
     92 H                     0.128369
     93 H                     0.084404
     94 C                    -0.167460
     95 H                     0.118647
     96 H                     0.088288
     97 H                     0.112181
     98 C                    -0.178054
     99 H                     0.091187
    100 C                    -0.164392
    101 H                     0.079551
    102 H                     0.085783
    103 H                     0.091515
    104 C                    -0.174975
    105 H                     0.084190
    106 C                    -0.319210
    107 H                     0.092127
    108 H                     0.104529
    109 H                     0.104809
    110 H                     0.101238
  ----------------------------------------
  Sum of atomic charges =     0.000000

                    Cartesian Multipole Moments
 -----------------------------------------------------------------
    Charge (ESU x 10^10)
                 0.0000
    Dipole Moment (Debye)
         X      -2.5135      Y       2.7400      Z      -2.4599
       Tot       4.4583
    Quadrupole Moments (Debye-Ang)
        XX    -396.1795     XY     -18.2477     YY    -431.6371
        XZ     -16.4780     YZ       4.8902     ZZ    -433.2809

 Total job time:  83.75s(wall), 995.77s(cpu)
        *  Thank you very much for using Q-Chem.  Have a nice day.  *
