 Q-Chem 4.4, Q-Chem, Inc., Pleasanton, CA (2016)
 Q-Chem 4.4.2 for Intel X86 Linux

User input:
--------------------------------------------------------------
$comment
SP
$end

$rem
MEM_STATIC 5000
MEM_TOTAL 20000
JOBTYPE SP
EXCHANGE B3LYP
BASIS 6-31g(d,p)
$end

$molecule
0 1
C         -22.235000     -2.078000      9.007000
C         -22.895000     -2.907000      8.020000
N         -22.553000     -2.155000     10.282000
C         -23.701000     -3.903000      8.481000
C         -23.346000     -3.149000     10.732000
C         -23.951000     -4.106000      9.871000
C         -24.928000     -5.118000     10.321000
C         -25.864000     -4.974000     11.373000
C         -25.008000     -6.380000      9.697000
N         -26.840000     -5.829000     11.709000
N         -24.104000     -6.844000      8.787000
C         -25.921000     -7.335000     10.074000
C         -26.804000     -7.088000     11.148000
S         -24.658000     -8.305000      8.321000
N         -25.765000     -8.544000      9.442000
C         -27.885000     -7.971000     11.780000
S         -28.586000     -7.705000     13.364000
C         -28.536000     -8.960000     11.081000
C         -29.728000     -8.988000     13.102000
S         -28.373000     -9.725000      9.494000
C         -29.569000     -9.521000     11.808000
C         -30.583000     -9.525000     14.148000
C         -29.764000    -10.764000      9.904000
C         -30.256000    -10.504000     11.127000
N         -31.005000     -8.645000     15.014000
S         -31.137000    -11.134000     14.400000
C         -31.657000     -9.249000     16.059000
C         -31.751000    -10.606000     15.936000
C         -21.299000     -0.948000      8.589000
H         -22.678000     -2.842000      6.958000
H         -24.103000     -4.530000      7.690000
H         -23.606000     -3.119000     11.789000
H         -26.009000     -3.974000     11.780000
H         -30.239000    -11.439000      9.204000
H         -31.124000    -10.970000     11.580000
H         -31.996000     -8.595000     16.852000
H         -32.292000    -11.234000     16.632000
H         -21.871000     -0.085000      8.227000
C         -20.184000     -1.299000      7.555000
H         -20.725000     -0.600000      9.457000
H         -20.657000     -1.533000      6.593000
H         -19.688000     -2.247000      7.798000
C         -19.067000     -0.262000      7.397000
H         -19.523000      0.734000      7.357000
C         -18.324000     -0.597000      6.037000
H         -18.341000     -0.264000      8.219000
H         -19.012000     -0.557000      5.183000
H         -17.993000     -1.642000      6.087000
C         -17.140000      0.336000      5.863000
H         -17.351000      1.390000      6.080000
C         -16.570000      0.415000      4.396000
H         -16.338000     -0.023000      6.521000
H         -15.820000      1.206000      4.276000
H         -17.431000      0.638000      3.754000
H         -16.047000     -0.515000      4.141000
C         -21.682000     -2.617000      3.009000
C         -22.667000     -2.574000      3.949000
N         -21.190000     -3.785000      2.454000
C         -23.304000     -3.716000      4.449000
C         -21.962000     -4.893000      2.756000
C         -22.970000     -4.886000      3.826000
C         -23.772000     -6.117000      4.197000
C         -25.168000     -6.171000      4.362000
C         -23.105000     -7.321000      4.536000
N         -25.832000     -7.299000      4.562000
N         -21.735000     -7.431000      4.652000
C         -23.774000     -8.498000      4.881000
C         -25.170000     -8.446000      4.778000
S         -21.453000     -8.938000      5.121000
N         -23.009000     -9.516000      5.234000
C         -26.041000     -9.603000      4.920000
S         -27.779000     -9.472000      5.465000
C         -25.879000    -10.901000      4.540000
C         -28.005000    -11.163000      5.475000
S         -24.649000    -11.512000      3.479000
C         -26.934000    -11.693000      4.775000
C         -29.154000    -11.948000      5.871000
C         -25.694000    -12.967000      3.302000
C         -26.743000    -12.959000      4.168000
N         -28.951000    -13.240000      6.193000
S         -30.674000    -11.215000      6.053000
C         -30.125000    -13.691000      6.737000
C         -31.125000    -12.728000      6.813000
C         -20.825000     -1.325000      2.636000
H         -22.895000     -1.584000      4.332000
H         -24.092000     -3.714000      5.196000
H         -21.607000     -5.855000      2.390000
H         -25.742000     -5.246000      4.390000
H         -25.418000    -13.785000      2.650000
H         -27.457000    -13.775000      4.174000
H         -30.184000    -14.698000      7.126000
H         -32.177000    -12.821000      7.047000
H         -20.075000     -1.153000      3.418000
C         -21.700000     -0.062000      2.432000
H         -20.291000     -1.534000      1.701000
H         -22.103000      0.249000      3.403000
H         -22.629000     -0.385000      1.947000
C         -21.048000      1.023000      1.539000
H         -20.177000      1.441000      2.058000
C         -21.969000      2.205000      1.187000
H         -20.693000      0.528000      0.626000
H         -22.320000      2.692000      2.105000
H         -22.767000      1.790000      0.559000
C         -21.296000      3.306000      0.326000
H         -22.005000      4.128000      0.168000
C         -20.737000      2.915000     -1.047000
H         -20.494000      3.770000      0.912000
H         -20.334000      3.705000     -1.694000
H         -21.570000      2.534000     -1.650000
H         -19.903000      2.213000     -0.926000
$end

--------------------------------------------------------------

             Standard Nuclear Orientation (Angstroms)
    I     Atom           X                Y                Z
 ----------------------------------------------------------------
    1      C      -3.9604989187    -4.1438716781     0.5873317286
    2      C      -3.4853212001    -2.8427283635     0.1651443168
    3      N      -3.1254583147    -5.1428345744     0.7808732522
    4      C      -2.1392581205    -2.6373340617     0.1751626302
    5      C      -1.7936252117    -4.9298701640     0.7967397467
    6      C      -1.2095613228    -3.6619341070     0.5239714768
    7      C       0.2444369838    -3.4335287357     0.4019349628
    8      C       1.2029480191    -4.3556641155    -0.0822746370
    9      C       0.8219847490    -2.2038607590     0.7797910808
   10      N       2.5011822302    -4.1219321103    -0.3198757371
   11      N       0.1568412441    -1.2172008054     1.4466480773
   12      C       2.1664977041    -1.9492741865     0.6565287969
   13      C       3.0364931753    -2.9492438979     0.1693507428
   14      S       1.2219223791     0.0081320248     1.5974944601
   15      N       2.5641850304    -0.7497065062     1.1934861238
   16      C       4.5538836834    -2.9408166464    -0.0430851938
   17      S       5.5398963138    -4.3773613031    -0.2310520584
   18      C       5.2618461733    -1.7871002784    -0.2844369187
   19      C       6.9373443448    -3.4039480938    -0.5752943051
   20      S       4.9217652187    -0.0508422569    -0.2736653397
   21      C       6.5853923057    -2.0402534797    -0.5918098063
   22      C       8.2870638154    -3.9388565802    -0.6503959813
   23      C       6.6232227959     0.2376713538    -0.7256653502
   24      C       7.3194547890    -0.9037391820    -0.8592168401
   25      N       8.3719441694    -5.1379857799    -1.1576675927
   26      S       9.7828893079    -3.2221156971    -0.1942275883
   27      C       9.6428735912    -5.6400507184    -1.0367783774
   28      C      10.5240121057    -4.7695330342    -0.4612717485
   29      C      -5.4516694314    -4.4641353471     0.6268498796
   30      H      -4.1526799170    -2.0097661277    -0.0347663052
   31      H      -1.8589423222    -1.6193214487    -0.0807423777
   32      H      -1.1645285028    -5.8111278638     0.9123736405
   33      H       0.8296640702    -5.2519420699    -0.5762573513
   34      H       7.0209643801     1.2098323257    -0.9863465291
   35      H       8.3545256640    -0.9892913416    -1.1708225391
   36      H       9.7908047510    -6.6537167574    -1.3861829185
   37      H      11.5812867406    -4.9733856185    -0.3512923404
   38      H      -5.8378656559    -4.6365603390    -0.3851378171
   39      C      -6.3747125035    -3.4450725293     1.3651482343
   40      H      -5.6180258486    -5.3930179302     1.1867665604
   41      H      -6.3868880487    -2.5059408646     0.7978630568
   42      H      -5.9430886620    -3.1243179246     2.3214883113
   43      C      -7.7929543859    -3.9324400138     1.6799257717
   44      H      -8.1852045964    -4.4488757067     0.7961916785
   45      C      -8.6549621875    -2.6428769433     2.0083213219
   46      H      -7.8445072142    -4.6300760708     2.5245619287
   47      H      -8.6658321890    -1.9413989244     1.1644786636
   48      H      -8.1511591552    -2.1034318899     2.8202742386
   49      C     -10.0532856816    -3.0602343021     2.4244045358
   50      H     -10.5105741619    -3.8284129785     1.7893338572
   51      C     -11.1303774689    -1.9112722672     2.3697279938
   52      H      -9.9948394129    -3.4231701514     3.4587693665
   53      H     -12.1506886565    -2.2805279908     2.5284613896
   54      H     -11.0575509704    -1.4830338337     1.3624930931
   55      H     -10.9587031038    -1.1907279412     3.1789237591
   56      C      -6.7368939654     1.0915769560    -0.6185049703
   57      C      -5.7355037358     0.3202599275    -1.1264042217
   58      N      -6.5316977879     2.1948500019     0.1908133322
   59      C      -4.3778327708     0.5710981748    -0.8945794503
   60      C      -5.2073347886     2.5936590031     0.2340108643
   61      C      -4.1081644839     1.7361141621    -0.2323092906
   62      C      -2.6536936894     2.1483402788    -0.1284327455
   63      C      -1.7036161122     2.0827756933    -1.1638123293
   64      C      -2.1136065930     2.5295937336     1.1255121223
   65      N      -0.4786184724     2.5739088053    -1.0568121020
   66      N      -2.8105486209     2.4567671678     2.3135458344
   67      C      -0.7861964597     2.9289534632     1.2998943016
   68      C      -0.0298893257     3.0245595995     0.1247398497
   69      S      -1.7818089486     2.9129619545     3.4555243820
   70      N      -0.4193164672     3.1908055276     2.5420660157
   71      C       1.3112066769     3.5858413929     0.0624641701
   72      S       2.5234197574     3.1121936188    -1.2185616819
   73      C       1.8805576200     4.6276615614     0.7302202934
   74      C       3.7628676344     4.0654323333    -0.5360941638
   75      S       1.0448865278     5.8125330222     1.6839893677
   76      C       3.1382112110     4.9113792691     0.3650823641
   77      C       5.1474219823     4.2151056901    -0.9283302458
   78      C       2.5355009262     6.8101992847     1.5319704740
   79      C       3.5635832353     6.1215157871     0.9670078152
   80      N       6.0153513876     4.6733817343    -0.0059211094
   81      S       5.6683345006     3.6946102746    -2.4575613175
   82      C       7.2667827574     4.5130782822    -0.5405568077
   83      C       7.2766253732     3.9352042548    -1.8051159132
   84      C      -8.2649647507     0.6449732212    -0.7100843313
   85      H      -6.0636409837    -0.5481966277    -1.6893270922
   86      H      -3.5579911176    -0.0235334785    -1.2860253093
   87      H      -4.9657211024     3.4286403236     0.8896433995
   88      H      -1.9471917748     1.5537373973    -2.0839614356
   89      H       2.5976863070     7.8020010835     1.9595990162
   90      H       4.5254132967     6.5978807603     0.8132308814
   91      H       8.1379810321     4.7626509092     0.0490007128
   92      H       8.0776793957     3.8248944279    -2.5236235299
   93      H      -8.4626595740    -0.1186286019     0.0524358407
   94      C      -8.6556236695     0.1250200698    -2.1170115965
   95      H      -8.8853684808     1.5188466250    -0.4766180901
   96      H      -8.1633901385    -0.8399057894    -2.2861128596
   97      H      -8.1139332708     0.7340792829    -2.8506418759
   98      C     -10.1683675432     0.2300728955    -2.4337889258
   99      H     -10.7211427675    -0.4590172904    -1.7839271967
  100      C     -10.5477218359    -0.1207518005    -3.8837135284
  101      H     -10.4851637668     1.2524545469    -2.1909002441
  102      H     -10.2257975174    -1.1428538533    -4.1177351662
  103      H     -10.0915105190     0.6544498084    -4.5116838302
  104      C     -12.0685625837    -0.0517294409    -4.1815899017
  105      H     -12.2508082990    -0.3653221464    -5.2168556233
  106      C     -12.7897634067     1.2854572720    -3.9759395489
  107      H     -12.5785937679    -0.8200790684    -3.5887973233
  108      H     -13.8466534850     1.3613622968    -4.2628886554
  109      H     -12.3229901440     2.0218415931    -4.6411612058
  110      H     -12.7777992388     1.5582112195    -2.9136480904
 ----------------------------------------------------------------

    9   -5663.4967811770      7.51E-06 Convergence criterion met
 Total energy in the final basis set = -5663.4967811770

                    Orbital Energies (a.u.)
 --------------------------------------------------------------

 Alpha MOs
 -- Occupied --
-88.995 -88.989 -88.939 -88.929 -88.927 -88.923 -88.911 -88.906
-14.390 -14.389 -14.382 -14.374 -14.354 -14.354 -14.345 -14.345
-14.333 -14.324 -10.277 -10.266 -10.263 -10.262 -10.261 -10.258
-10.253 -10.249 -10.246 -10.243 -10.242 -10.241 -10.241 -10.237
-10.237 -10.235 -10.234 -10.233 -10.231 -10.230 -10.227 -10.226
-10.226 -10.226 -10.225 -10.224 -10.221 -10.220 -10.218 -10.217
-10.215 -10.205 -10.204 -10.203 -10.197 -10.196 -10.194 -10.192
-10.190 -10.186 -10.184 -10.183 -10.183 -10.182 -10.180 -10.180
-10.180 -10.178 -10.174 -10.172  -8.051  -8.044  -8.001  -7.990
 -7.986  -7.982  -7.971  -7.965  -6.016  -6.010  -6.009  -6.009
 -6.004  -6.002  -5.965  -5.962  -5.959  -5.954  -5.951  -5.951
 -5.947  -5.947  -5.946  -5.943  -5.943  -5.939  -5.936  -5.932
 -5.930  -5.927  -5.926  -5.921  -1.046  -1.040  -0.979  -0.974
 -0.972  -0.949  -0.939  -0.932  -0.929  -0.913  -0.912  -0.898
 -0.853  -0.846  -0.840  -0.829  -0.824  -0.818  -0.808  -0.807
 -0.806  -0.805  -0.803  -0.792  -0.785  -0.781  -0.772  -0.766
 -0.752  -0.746  -0.745  -0.740  -0.731  -0.726  -0.713  -0.708
 -0.697  -0.691  -0.681  -0.670  -0.658  -0.654  -0.653  -0.643
 -0.641  -0.638  -0.631  -0.618  -0.616  -0.607  -0.603  -0.600
 -0.598  -0.593  -0.586  -0.581  -0.579  -0.573  -0.571  -0.564
 -0.560  -0.551  -0.542  -0.536  -0.532  -0.522  -0.520  -0.517
 -0.515  -0.509  -0.506  -0.498  -0.490  -0.486  -0.481  -0.478
 -0.475  -0.474  -0.470  -0.470  -0.467  -0.465  -0.452  -0.449
 -0.447  -0.446  -0.443  -0.441  -0.439  -0.437  -0.436  -0.435
 -0.429  -0.425  -0.424  -0.422  -0.421  -0.419  -0.417  -0.415
 -0.413  -0.411  -0.409  -0.404  -0.403  -0.402  -0.399  -0.399
 -0.396  -0.394  -0.393  -0.391  -0.390  -0.388  -0.384  -0.382
 -0.382  -0.378  -0.373  -0.372  -0.366  -0.363  -0.361  -0.358
 -0.356  -0.355  -0.353  -0.349  -0.347  -0.345  -0.344  -0.343
 -0.340  -0.334  -0.333  -0.331  -0.330  -0.329  -0.326  -0.321
 -0.320  -0.320  -0.312  -0.310  -0.308  -0.305  -0.302  -0.300
 -0.299  -0.298  -0.296  -0.295  -0.294  -0.289  -0.286  -0.286
 -0.276  -0.273  -0.269  -0.265  -0.263  -0.258  -0.254  -0.250
 -0.244  -0.242  -0.242  -0.228  -0.198  -0.192

          Ground-State Mulliken Net Atomic Charges

     Atom                 Charge (a.u.)
  ----------------------------------------
      1 C                     0.277179
      2 C                    -0.118334
      3 N                    -0.481088
      4 C                    -0.055102
      5 C                     0.063207
      6 C                     0.036323
      7 C                     0.045751
      8 C                     0.048892
      9 C                     0.210548
     10 N                    -0.483592
     11 N                    -0.558547
     12 C                     0.201441
     13 C                     0.240102
     14 S                     0.625355
     15 N                    -0.539240
     16 C                    -0.236461
     17 S                     0.363545
     18 C                    -0.116377
     19 C                    -0.203877
     20 S                     0.301170
     21 C                     0.139540
     22 C                     0.037663
     23 C                    -0.333975
     24 C                    -0.054429
     25 N                    -0.414568
     26 S                     0.274375
     27 C                     0.120460
     28 C                    -0.311858
     29 C                    -0.237165
     30 H                     0.092033
     31 H                     0.098028
     32 H                     0.103127
     33 H                     0.107413
     34 H                     0.128691
     35 H                     0.098364
     36 H                     0.116186
     37 H                     0.130367
     38 H                     0.111594
     39 C                    -0.191282
     40 H                     0.117779
     41 H                     0.091033
     42 H                     0.101814
     43 C                    -0.178483
     44 H                     0.092815
     45 C                    -0.184248
     46 H                     0.101726
     47 H                     0.099142
     48 H                     0.099050
     49 C                    -0.179175
     50 H                     0.094977
     51 C                    -0.326717
     52 H                     0.094886
     53 H                     0.099321
     54 H                     0.101417
     55 H                     0.103786
     56 C                     0.243865
     57 C                    -0.106643
     58 N                    -0.461522
     59 C                    -0.070674
     60 C                     0.082254
     61 C                     0.032584
     62 C                     0.004712
     63 C                     0.067042
     64 C                     0.202746
     65 N                    -0.509842
     66 N                    -0.522010
     67 C                     0.268592
     68 C                     0.265592
     69 S                     0.616986
     70 N                    -0.588320
     71 C                    -0.238999
     72 S                     0.307961
     73 C                    -0.087472
     74 C                    -0.191572
     75 S                     0.250406
     76 C                     0.139785
     77 C                     0.041642
     78 C                    -0.298514
     79 C                    -0.048458
     80 N                    -0.420429
     81 S                     0.298231
     82 C                     0.127571
     83 C                    -0.323661
     84 C                    -0.238992
     85 H                     0.089016
     86 H                     0.111675
     87 H                     0.117598
     88 H                     0.109650
     89 H                     0.127144
     90 H                     0.115620
     91 H                     0.122288
     92 H                     0.131927
     93 H                     0.128183
     94 C                    -0.191626
     95 H                     0.120748
     96 H                     0.090364
     97 H                     0.098345
     98 C                    -0.177267
     99 H                     0.091764
    100 C                    -0.170501
    101 H                     0.102470
    102 H                     0.094925
    103 H                     0.092385
    104 C                    -0.182982
    105 H                     0.090926
    106 C                    -0.319388
    107 H                     0.089349
    108 H                     0.102618
    109 H                     0.100815
    110 H                     0.106513
  ----------------------------------------
  Sum of atomic charges =     0.000000

                    Cartesian Multipole Moments
 -----------------------------------------------------------------
    Charge (ESU x 10^10)
                 0.0000
    Dipole Moment (Debye)
         X       2.6983      Y       3.6494      Z      -1.5842
       Tot       4.8072
    Quadrupole Moments (Debye-Ang)
        XX    -381.1048     XY      16.0292     YY    -448.6518
        XZ      -2.1022     YZ       0.4427     ZZ    -443.1558

 Total job time:  87.73s(wall), 1055.04s(cpu)
        *  Thank you very much for using Q-Chem.  Have a nice day.  *
