 Q-Chem 4.4, Q-Chem, Inc., Pleasanton, CA (2016)
 Q-Chem 4.4.2 for Intel X86 Linux

User input:
--------------------------------------------------------------
$comment
SP
$end

$rem
MEM_STATIC 5000
MEM_TOTAL 20000
JOBTYPE SP
EXCHANGE B3LYP
BASIS 6-31g(d,p)
$end

$molecule
0 1
C          -3.002000    -13.483000    -13.705000
C          -2.301000    -12.609000    -14.527000
N          -2.973000    -13.382000    -12.377000
C          -1.430000    -11.731000    -13.860000
C          -2.202000    -12.487000    -11.787000
C          -1.337000    -11.685000    -12.460000
C          -0.511000    -10.679000    -11.692000
C          -1.122000     -9.776000    -10.714000
C           0.845000    -10.426000    -11.887000
N          -0.458000     -8.948000     -9.903000
N           1.625000    -11.053000    -12.786000
C           1.570000     -9.617000    -11.006000
C           0.890000     -8.905000     -9.990000
S           3.107000    -10.161000    -12.758000
N           2.938000     -9.557000    -11.263000
C           1.494000     -8.186000     -8.833000
S           0.682000     -6.828000     -7.995000
C           2.590000     -8.554000     -8.148000
C           1.866000     -6.899000     -6.669000
S           3.706000     -9.936000     -8.372000
C           2.811000     -7.859000     -6.930000
C           1.675000     -6.273000     -5.347000
C           4.504000     -9.389000     -6.865000
C           3.915000     -8.410000     -6.188000
N           2.680000     -5.790000     -4.629000
S           0.081000     -6.084000     -4.604000
C           2.218000     -5.302000     -3.416000
C           0.850000     -5.373000     -3.179000
C          -3.915000    -14.527000    -14.380000
H          -2.104000    -12.807000    -15.576000
H          -0.822000    -11.034000    -14.429000
H          -2.105000    -12.511000    -10.703000
H          -2.205000     -9.700000    -10.621000
H           5.368000     -9.908000     -6.472000
H           4.138000     -8.072000     -5.182000
H           2.959000     -4.893000     -2.742000
H           0.296000     -5.225000     -2.262000
H          -3.356000    -15.127000    -15.109000
C          -5.114000    -13.844000    -15.054000
H          -4.224000    -15.203000    -13.573000
H          -4.785000    -13.176000    -15.859000
H          -5.626000    -13.270000    -14.271000
C          -6.179000    -14.875000    -15.519000
H          -5.766000    -15.862000    -15.762000
C          -7.116000    -14.323000    -16.631000
H          -6.739000    -15.287000    -14.670000
H          -7.516000    -13.408000    -16.177000
H          -8.035000    -14.918000    -16.714000
C          -6.445000    -14.171000    -18.001000
H          -5.883000    -13.240000    -17.856000
C          -7.443000    -13.993000    -19.148000
H          -5.642000    -14.905000    -18.142000
H          -6.884000    -14.113000    -20.084000
H          -7.825000    -12.965000    -19.148000
H          -8.232000    -14.755000    -19.138000
C          -3.156000     -9.386000      1.158000
C          -2.421000     -8.866000      0.031000
N          -4.273000     -8.823000      1.557000
C          -2.874000     -7.755000     -0.686000
C          -4.648000     -7.659000      0.944000
C          -3.999000     -7.038000     -0.191000
C          -4.539000     -5.783000     -0.858000
C          -5.885000     -5.488000     -0.832000
C          -3.718000     -4.826000     -1.481000
N          -6.425000     -4.401000     -1.479000
N          -2.390000     -4.834000     -1.470000
C          -4.229000     -3.691000     -2.094000
C          -5.635000     -3.462000     -2.062000
S          -1.911000     -3.524000     -2.349000
N          -3.338000     -2.910000     -2.769000
C          -6.305000     -2.357000     -2.712000
S          -5.548000     -1.034000     -3.675000
C          -7.649000     -2.015000     -2.664000
C          -7.084000     -0.173000     -3.956000
S          -8.902000     -2.946000     -1.903000
C          -8.021000     -0.827000     -3.262000
C          -7.303000      0.995000     -4.691000
C          -9.944000     -1.549000     -2.291000
C          -9.351000     -0.556000     -3.030000
N          -8.421000      1.149000     -5.374000
S          -6.178000      2.331000     -4.749000
C          -8.533000      2.460000     -5.860000
C          -7.378000      3.161000     -5.665000
C          -2.753000    -10.680000      1.919000
H          -1.564000     -9.449000     -0.292000
H          -2.380000     -7.572000     -1.636000
H          -5.524000     -7.199000      1.399000
H          -6.615000     -6.215000     -0.480000
H         -10.971000     -1.607000     -1.955000
H          -9.867000      0.328000     -3.387000
H          -9.457000      2.719000     -6.361000
H          -7.119000      4.182000     -5.912000
H          -1.717000    -10.852000      1.600000
C          -3.714000    -11.919000      1.698000
H          -2.718000    -10.508000      3.002000
H          -3.110000    -12.801000      1.946000
H          -3.923000    -12.009000      0.625000
C          -5.037000    -11.825000      2.447000
H          -4.701000    -11.652000      3.477000
C          -5.842000    -13.160000      2.401000
H          -5.657000    -11.045000      1.987000
H          -5.500000    -13.846000      3.186000
H          -5.480000    -13.717000      1.528000
C          -7.376000    -13.046000      2.484000
H          -7.665000    -12.302000      1.731000
C          -7.855000    -12.565000      3.844000
H          -7.782000    -14.003000      2.135000
H          -7.945000    -13.433000      4.509000
H          -8.853000    -12.111000      3.867000
H          -7.228000    -11.818000      4.347000
$end

--------------------------------------------------------------

             Standard Nuclear Orientation (Angstroms)
    I     Atom           X                Y                Z
 ----------------------------------------------------------------
    1      C      -9.4065081011     0.8220764125     2.8802481563
    2      C      -9.7691267915     1.5977275302     1.7857921139
    3      N      -8.3242767510     0.0453631933     2.8693908984
    4      C      -9.0191767349     1.3718689283     0.6191830086
    5      C      -7.5955404681    -0.0778901703     1.7751706106
    6      C      -7.9300892097     0.4866773311     0.5861799984
    7      C      -7.0173544467     0.3003116491    -0.6039120505
    8      C      -5.5758558821     0.5406938313    -0.5063810558
    9      C      -7.4275936053    -0.0032969672    -1.9001742311
   10      N      -4.6805650482     0.2824399996    -1.4634391946
   11      N      -8.7043834746    -0.1874833177    -2.2817669695
   12      C      -6.5061939874    -0.3441247828    -2.8957274162
   13      C      -5.1205528186    -0.2213718182    -2.6377928101
   14      S      -8.6241119869    -0.2707071184    -4.0078614882
   15      N      -7.0751173498    -0.7394040635    -4.1045092402
   16      C      -3.9983603921    -0.7403911374    -3.4694953435
   17      S      -2.3550183052    -0.0300362284    -3.4455226825
   18      C      -3.9902739719    -1.8835085842    -4.1759527821
   19      C      -1.7088670021    -1.4192091537    -4.3498788496
   20      S      -5.2577518859    -3.1251697373    -4.4153965513
   21      C      -2.7213212314    -2.2896903964    -4.6660193876
   22      C      -0.2760394291    -1.7559964680    -4.4479627477
   23      C      -4.0150349679    -4.0587454672    -5.3048643800
   24      C      -2.7724778166    -3.5905938477    -5.2808479930
   25      N       0.2556131061    -2.3281818977    -5.5197777577
   26      S       0.8758358712    -1.4045628498    -3.1524768525
   27      C       1.6067164839    -2.5685674391    -5.3205506165
   28      C       2.1539653002    -2.1679288632    -4.1070262184
   29      C     -10.2422523784     0.9635198446     4.1689122935
   30      H     -10.7540401495     2.0389739155     1.6689105298
   31      H      -9.2553143967     1.9150928475    -0.2909712521
   32      H      -6.7926215979    -0.8128160836     1.7594801720
   33      H      -5.1431619799     1.0027337297     0.3805288152
   34      H      -4.2499282555    -5.0165266586    -5.7495961340
   35      H      -1.8669495423    -4.0967674260    -5.5967844631
   36      H       2.1406700796    -3.0464882937    -6.1311819842
   37      H       3.1132131230    -2.4039364954    -3.6667387986
   38      H     -11.3067007561     0.7867269171     3.9698748296
   39      C     -10.0371233544     2.3488640841     4.7990784793
   40      H      -9.8968653272     0.1552433856     4.8254965994
   41      H     -10.3912561097     3.1420069298     4.1297471578
   42      H      -8.9587965953     2.4546246009     4.9743928075
   43      C     -10.6573767985     2.4336333962     6.2208769280
   44      H     -11.5144676831     1.7656852030     6.3726248329
   45      C     -10.9430461742     3.8937242840     6.6744677208
   46      H     -10.0593740202     1.8794815944     6.9553518818
   47      H      -9.9652133050     4.3775050964     6.5598378575
   48      H     -11.0671463745     3.9591821306     7.7634073016
   49      C     -12.1235808424     4.5564488058     5.9551770249
   50      H     -11.6602810866     4.8254070571     4.9977613391
   51      C     -12.6256523810     5.8223369733     6.6542823943
   52      H     -12.8756959475     3.8193282136     5.6478952304
   53      H     -13.5856737315     6.0862019934     6.1941614778
   54      H     -11.9443268358     6.6552064494     6.4425468583
   55      H     -12.8079247355     5.6648568978     7.7244421089
   56      C       4.4887618502    -5.7386194682     1.6166673158
   57      C       3.6825092289    -5.0168282841     0.6628705884
   58      N       5.4394984486    -5.1370764868     2.2935018317
   59      C       3.8719233356    -3.6513365226     0.4322766911
   60      C       5.7163811895    -3.8360883775     1.9740399600
   61      C       4.9850727633    -3.0063986896     1.0403001636
   62      C       5.3187260364    -1.5409158240     0.8110634647
   63      C       5.8977110004    -0.7806289957     1.8041180202
   64      C       5.1218741196    -0.8879168464    -0.4189205425
   65      N       6.1539434492     0.5633897092     1.6636308208
   66      N       4.7358937656    -1.4773354075    -1.5446975747
   67      C       5.4226546790     0.4533879697    -0.6074608445
   68      C       5.9874031993     1.1932023512     0.4714435951
   69      S       4.6354464902    -0.2867566987    -2.6807498106
   70      N       5.0672837807     0.9942799633    -1.8077168071
   71      C       6.2894525836     2.6072889889     0.4320716428
   72      S       6.0490782994     3.7379131366    -0.9516393964
   73      C       6.9110128425     3.3834482835     1.3999784534
   74      C       6.7579917436     5.1397151800    -0.1078557986
   75      S       7.3567017630     2.8489186577     2.9910568504
   76      C       7.2119894759     4.6893285804     1.0661795373
   77      C       6.8961933737     6.4516904825    -0.5683241635
   78      C       8.1338474406     4.4504606989     3.1289868545
   79      C       7.9335119605     5.2984015794     2.0684770909
   80      N       6.7776567665     7.4643162325     0.2687344744
   81      S       7.2601256427     6.8653921873    -2.2267237544
   82      C       7.1576226888     8.6669734941    -0.3450263984
   83      C       7.3583513051     8.4977000682    -1.6846179518
   84      C       4.2470130753    -7.2285600609     1.9876128104
   85      H       2.8563026324    -5.5657850571     0.2216267542
   86      H       3.0878298924    -3.1539312647    -0.1314701331
   87      H       6.5829361517    -3.4411146965     2.5023195156
   88      H       5.9839841130    -1.1547090338     2.8229183320
   89      H       8.6652636085     4.6494327899     4.0503966241
   90      H       8.2962929431     6.3191477605     2.0281262256
   91      H       7.1820462284     9.5496650321     0.2811661754
   92      H       7.6550233176     9.2016534569    -2.4507552395
   93      H       3.5988709069    -7.5912500868     1.1795232889
   94      C       3.6711935015    -7.4763502774     3.4417499522
   95      H       5.1758729466    -7.8087747256     1.9222807180
   96      H       3.1987305615    -8.4659642804     3.4006781199
   97      H       2.8466372574    -6.7735472549     3.6128783011
   98      C       4.6955407688    -7.3081040566     4.5564570371
   99      H       5.4952302885    -7.9854223247     4.2317084640
  100      C       4.1571151059    -7.7953094642     5.9367087157
  101      H       4.9510364392    -6.2452554022     4.6537951094
  102      H       4.2885801058    -8.8793555745     6.0432262479
  103      H       3.0621327703    -7.7686056278     5.8756956862
  104      C       4.7355426992    -7.1062989493     7.1871994312
  105      H       4.6455529561    -6.0276651745     7.0068746521
  106      C       6.2023138014    -7.4356666286     7.4119247428
  107      H       4.0530556358    -7.3325025762     8.0151664158
  108      H       6.2664208426    -8.3749829576     7.9752400376
  109      H       6.7647532152    -6.7216689500     8.0255355484
  110      H       6.8236247415    -7.5379623555     6.5132282980
 ----------------------------------------------------------------

   10   -5663.4999123924      3.68E-06 Convergence criterion met
 Total energy in the final basis set = -5663.4999123924

                    Orbital Energies (a.u.)
 --------------------------------------------------------------

 Alpha MOs
 -- Occupied --
-88.992 -88.991 -88.928 -88.926 -88.924 -88.920 -88.910 -88.907
-14.396 -14.393 -14.384 -14.382 -14.355 -14.351 -14.346 -14.345
-14.330 -14.326 -10.275 -10.269 -10.266 -10.266 -10.263 -10.258
-10.257 -10.257 -10.248 -10.242 -10.242 -10.241 -10.240 -10.235
-10.234 -10.234 -10.234 -10.234 -10.233 -10.232 -10.231 -10.231
-10.230 -10.227 -10.226 -10.226 -10.223 -10.221 -10.218 -10.214
-10.212 -10.211 -10.211 -10.201 -10.198 -10.198 -10.196 -10.190
-10.189 -10.186 -10.185 -10.181 -10.179 -10.178 -10.176 -10.176
-10.175 -10.169 -10.169 -10.167  -8.047  -8.047  -7.990  -7.987
 -7.982  -7.978  -7.970  -7.966  -6.012  -6.012  -6.007  -6.006
 -6.005  -6.005  -5.954  -5.950  -5.950  -5.947  -5.947  -5.947
 -5.944  -5.943  -5.943  -5.939  -5.939  -5.935  -5.935  -5.931
 -5.931  -5.927  -5.925  -5.923  -1.048  -1.028  -0.971  -0.964
 -0.962  -0.953  -0.950  -0.939  -0.919  -0.913  -0.912  -0.899
 -0.843  -0.842  -0.832  -0.828  -0.814  -0.811  -0.810  -0.807
 -0.802  -0.800  -0.796  -0.796  -0.788  -0.780  -0.769  -0.767
 -0.752  -0.750  -0.742  -0.741  -0.725  -0.716  -0.713  -0.709
 -0.698  -0.693  -0.677  -0.676  -0.655  -0.654  -0.650  -0.646
 -0.641  -0.635  -0.628  -0.626  -0.614  -0.610  -0.601  -0.598
 -0.596  -0.593  -0.588  -0.583  -0.578  -0.577  -0.569  -0.560
 -0.558  -0.552  -0.541  -0.540  -0.530  -0.523  -0.520  -0.512
 -0.509  -0.505  -0.502  -0.500  -0.492  -0.489  -0.478  -0.477
 -0.475  -0.472  -0.470  -0.468  -0.457  -0.455  -0.451  -0.449
 -0.449  -0.441  -0.440  -0.437  -0.435  -0.434  -0.431  -0.430
 -0.428  -0.426  -0.424  -0.423  -0.420  -0.417  -0.416  -0.415
 -0.414  -0.408  -0.407  -0.406  -0.404  -0.400  -0.396  -0.396
 -0.394  -0.393  -0.392  -0.391  -0.390  -0.390  -0.384  -0.380
 -0.380  -0.377  -0.376  -0.371  -0.367  -0.363  -0.361  -0.360
 -0.358  -0.356  -0.353  -0.350  -0.348  -0.347  -0.344  -0.341
 -0.337  -0.336  -0.333  -0.332  -0.329  -0.327  -0.317  -0.317
 -0.312  -0.312  -0.308  -0.306  -0.305  -0.301  -0.300  -0.299
 -0.296  -0.295  -0.293  -0.288  -0.287  -0.285  -0.283  -0.282
 -0.281  -0.271  -0.270  -0.268  -0.257  -0.254  -0.251  -0.247
 -0.246  -0.244  -0.240  -0.232  -0.202  -0.198

          Ground-State Mulliken Net Atomic Charges

     Atom                 Charge (a.u.)
  ----------------------------------------
      1 C                     0.257270
      2 C                    -0.107841
      3 N                    -0.476842
      4 C                    -0.070647
      5 C                     0.069442
      6 C                     0.067413
      7 C                    -0.019815
      8 C                     0.063739
      9 C                     0.267985
     10 N                    -0.474280
     11 N                    -0.569093
     12 C                     0.181588
     13 C                     0.257964
     14 S                     0.598272
     15 N                    -0.519309
     16 C                    -0.219884
     17 S                     0.304884
     18 C                    -0.091570
     19 C                    -0.234711
     20 S                     0.261488
     21 C                     0.152759
     22 C                     0.027954
     23 C                    -0.306367
     24 C                    -0.027245
     25 N                    -0.409535
     26 S                     0.265904
     27 C                     0.108322
     28 C                    -0.320039
     29 C                    -0.230526
     30 H                     0.101088
     31 H                     0.099340
     32 H                     0.101687
     33 H                     0.120772
     34 H                     0.123574
     35 H                     0.124044
     36 H                     0.114231
     37 H                     0.152532
     38 H                     0.103671
     39 C                    -0.173781
     40 H                     0.115858
     41 H                     0.100753
     42 H                     0.112856
     43 C                    -0.195471
     44 H                     0.085688
     45 C                    -0.178927
     46 H                     0.091370
     47 H                     0.092630
     48 H                     0.083502
     49 C                    -0.172497
     50 H                     0.095268
     51 C                    -0.318689
     52 H                     0.096295
     53 H                     0.100698
     54 H                     0.109878
     55 H                     0.107131
     56 C                     0.270075
     57 C                    -0.127204
     58 N                    -0.464018
     59 C                    -0.058808
     60 C                     0.054142
     61 C                     0.032954
     62 C                     0.061587
     63 C                     0.045308
     64 C                     0.255232
     65 N                    -0.548723
     66 N                    -0.580653
     67 C                     0.164705
     68 C                     0.324776
     69 S                     0.607074
     70 N                    -0.537181
     71 C                    -0.219451
     72 S                     0.300041
     73 C                    -0.124207
     74 C                    -0.226828
     75 S                     0.289295
     76 C                     0.214640
     77 C                     0.027956
     78 C                    -0.317948
     79 C                    -0.047676
     80 N                    -0.420419
     81 S                     0.279044
     82 C                     0.113469
     83 C                    -0.301398
     84 C                    -0.228227
     85 H                     0.089655
     86 H                     0.114218
     87 H                     0.101190
     88 H                     0.122641
     89 H                     0.118481
     90 H                     0.113187
     91 H                     0.122083
     92 H                     0.133187
     93 H                     0.086274
     94 C                    -0.187833
     95 H                     0.115223
     96 H                     0.094715
     97 H                     0.093343
     98 C                    -0.147499
     99 H                     0.092002
    100 C                    -0.188528
    101 H                     0.118224
    102 H                     0.084733
    103 H                     0.082866
    104 C                    -0.175642
    105 H                     0.092860
    106 C                    -0.319973
    107 H                     0.093478
    108 H                     0.101027
    109 H                     0.098434
    110 H                     0.113311
  ----------------------------------------
  Sum of atomic charges =     0.000000

                    Cartesian Multipole Moments
 -----------------------------------------------------------------
    Charge (ESU x 10^10)
                 0.0000
    Dipole Moment (Debye)
         X      -0.8629      Y       2.2479      Z      -1.9944
       Tot       3.1266
    Quadrupole Moments (Debye-Ang)
        XX    -404.4897     XY      10.5035     YY    -407.1640
        XZ      -7.1014     YZ       4.2177     ZZ    -447.1934

 Total job time:  86.36s(wall), 1010.26s(cpu)
        *  Thank you very much for using Q-Chem.  Have a nice day.  *
