 Q-Chem 4.4, Q-Chem, Inc., Pleasanton, CA (2016)
 Q-Chem 4.4.2 for Intel X86 Linux

User input:
--------------------------------------------------------------
$comment
SP
$end

$rem
MEM_STATIC 5000
MEM_TOTAL 20000
JOBTYPE SP
EXCHANGE B3LYP
BASIS 6-31g(d,p)
$end

$molecule
0 1
C          26.305000     -8.422000     -1.085000
C          25.427000     -9.289000     -0.404000
N          26.256000     -7.089000     -0.811000
C          24.550000     -8.842000      0.527000
C          25.379000     -6.627000      0.119000
C          24.525000     -7.470000      0.892000
C          23.475000     -6.936000      1.798000
C          23.750000     -6.560000      3.153000
C          22.111000     -6.812000      1.328000
N          22.795000     -6.105000      3.974000
N          21.625000     -7.223000      0.119000
C          21.108000     -6.326000      2.216000
C          21.487000     -5.989000      3.589000
S          20.047000     -6.997000      0.194000
N          19.849000     -6.389000      1.702000
C          20.458000     -5.541000      4.548000
S          18.673000     -5.706000      4.494000
C          20.777000     -5.215000      5.889000
C          18.456000     -5.565000      6.254000
S          22.374000     -4.742000      6.471000
C          19.657000     -5.171000      6.744000
C          17.289000     -5.772000      7.006000
C          21.605000     -4.401000      8.026000
C          20.209000     -4.735000      7.997000
N          16.136000     -5.671000      6.397000
S          17.302000     -6.323000      8.601000
C          15.194000     -6.074000      7.217000
C          15.559000     -6.457000      8.454000
C          27.298000     -8.839000     -2.143000
H          25.387000    -10.306000     -0.785000
H          23.850000     -9.584000      0.901000
H          25.335000     -5.560000      0.333000
H          24.773000     -6.581000      3.526000
H          22.178000     -3.919000      8.807000
H          19.575000     -4.678000      8.875000
H          14.159000     -6.009000      6.908000
H          14.954000     -6.717000      9.313000
H          26.722000     -9.236000     -2.987000
C          28.309000     -9.844000     -1.634000
H          27.673000     -7.895000     -2.557000
H          27.846000    -10.787000     -1.318000
H          28.772000     -9.450000     -0.721000
C          29.431000    -10.132000     -2.579000
H          29.874000    -11.096000     -2.300000
C          30.400000     -8.844000     -2.587000
H          28.977000    -10.233000     -3.572000
H          30.696000     -8.580000     -1.565000
H          29.663000     -8.071000     -2.839000
C          31.572000     -9.152000     -3.563000
H          31.986000    -10.126000     -3.274000
C          32.654000     -8.049000     -3.507000
H          31.161000     -9.283000     -4.572000
H          33.650000     -8.455000     -3.721000
H          32.641000     -7.579000     -2.516000
H          32.483000     -7.269000     -4.260000
C          20.912000     -7.935000     13.780000
C          21.330000     -6.743000     13.307000
N          21.580000     -9.090000     13.481000
C          22.277000     -6.695000     12.314000
C          22.552000     -9.039000     12.572000
C          22.979000     -7.823000     11.959000
C          24.073000     -7.754000     10.918000
C          24.011000     -6.915000      9.816000
C          25.158000     -8.721000     10.949000
N          24.995000     -6.825000      8.864000
N          25.296000     -9.733000     11.830000
C          26.169000     -8.609000      9.974000
C          26.097000     -7.635000      8.943000
S          26.742000    -10.374000     11.442000
N          27.216000     -9.505000     10.182000
C          27.233000     -7.434000      8.029000
S          28.933000     -8.077000      8.011000
C          27.150000     -6.499000      7.000000
C          29.385000     -7.108000      6.578000
S          25.765000     -5.557000      6.440000
C          28.298000     -6.331000      6.287000
C          30.699000     -6.852000      6.097000
C          26.842000     -4.899000      5.225000
C          28.138000     -5.277000      5.374000
N          31.629000     -7.147000      6.991000
S          31.262000     -6.439000      4.476000
C          32.890000     -7.078000      6.375000
C          32.863000     -6.760000      5.066000
C          19.740000     -8.059000     14.659000
H          20.841000     -5.826000     13.619000
H          22.399000     -5.752000     11.790000
H          22.849000    -10.013000     12.186000
H          23.209000     -6.187000      9.711000
H          26.578000     -4.011000      4.666000
H          28.913000     -4.884000      4.727000
H          33.782000     -7.317000      6.939000
H          33.729000     -6.584000      4.441000
H          18.806000     -7.667000     14.237000
C          19.974000     -7.623000     16.103000
H          19.604000     -9.137000     14.809000
H          20.871000     -8.128000     16.482000
H          19.084000     -7.821000     16.714000
C          20.183000     -6.085000     16.298000
H          21.173000     -5.827000     15.902000
C          20.213000     -5.628000     17.735000
H          19.473000     -5.539000     15.663000
H          20.763000     -6.407000     18.278000
H          19.206000     -5.805000     18.133000
C          20.611000     -4.121000     17.978000
H          21.493000     -3.826000     17.397000
C          20.995000     -3.767000     19.450000
H          19.794000     -3.499000     17.592000
H          21.784000     -4.439000     19.810000
H          20.080000     -3.716000     20.053000
H          21.361000     -2.743000     19.590000
$end

--------------------------------------------------------------

             Standard Nuclear Orientation (Angstroms)
    I     Atom           X                Y                Z
 ----------------------------------------------------------------
    1      C      -7.7835989338    -1.8435838897    -0.9265671099
    2      C      -6.8384194558    -2.1302398049    -1.9319516833
    3      N      -7.3969122148    -1.9111949950     0.3773761863
    4      C      -5.5542118338    -2.4520288799    -1.6439211730
    5      C      -6.1121339997    -2.2353753306     0.6802376203
    6      C      -5.0978910010    -2.4573881293    -0.2993109782
    7      C      -3.7394230846    -2.9497334847     0.0480403875
    8      C      -2.6804374502    -2.0670737910     0.4385365989
    9      C      -3.4414823003    -4.3643732511    -0.0344072948
   10      N      -1.4503978704    -2.5125894530     0.7242102361
   11      N      -4.2719608893    -5.3466926458    -0.4950068171
   12      C      -2.1267723251    -4.8200737107     0.2732024782
   13      C      -1.1086140460    -3.8350208923     0.6411204903
   14      S      -3.3887418764    -6.6756386374    -0.5197399247
   15      N      -1.9374319614    -6.1448101811     0.0232634647
   16      C       0.2765102385    -4.2715439274     0.9058927630
   17      S       1.1164582805    -5.7935213737     0.4649415868
   18      C       1.2964940990    -3.3524794367     1.2541331772
   19      C       2.7490353500    -5.0908664014     0.5393600136
   20      S       1.0337207231    -1.7572614870     1.9605975044
   21      C       2.5999357212    -3.8691135421     1.1075380239
   22      C       3.9639867550    -5.6689052304     0.1393522691
   23      C       2.7884483970    -1.6534538841     2.1498639092
   24      C       3.4371819759    -2.8112991982     1.6023678158
   25      N       4.0339015678    -6.9730288685     0.0696066210
   26      S       5.2729370436    -4.7692404883    -0.4307770969
   27      C       5.1748178201    -7.3006406733    -0.4899946751
   28      C       6.0148505932    -6.3072463177    -0.8329168158
   29      C      -9.2324897805    -1.4923689787    -1.1646120653
   30      H      -7.2418158202    -2.2326974421    -2.9358559644
   31      H      -4.9503796082    -2.7610332829    -2.4926513553
   32      H      -5.8047619056    -2.2962852097     1.7233260069
   33      H      -2.8794551328    -1.0045703502     0.5711163877
   34      H       3.2146428212    -0.8261354289     2.7016940338
   35      H       4.5160086030    -2.9052865230     1.5441570668
   36      H       5.4389796605    -8.3459454994    -0.5821214497
   37      H       7.0325436130    -6.3467113897    -1.1993174510
   38      H      -9.7031080210    -2.3652475167    -1.6318620303
   39      C      -9.4024946926    -0.2470043439    -2.0080527900
   40      H      -9.6871700712    -1.5050204524    -0.1664824277
   41      H      -8.9873038524    -0.3595232676    -3.0172257475
   42      H      -8.8158831530     0.5658089292    -1.5626367095
   43      C     -10.8073703416     0.2556145159    -2.1005281517
   44      H     -10.8837210856     0.8956055715    -2.9882037753
   45      C     -11.1812340486     0.9126628549    -0.6769824345
   46      H     -11.4392445256    -0.6273438205    -2.2537782467
   47      H     -10.4291284448     1.6560336089    -0.3879615306
   48      H     -10.9513524784     0.0609428678    -0.0243496686
   49      C     -12.6398671826     1.4442875186    -0.7808506075
   50      H     -12.6939394937     2.0660576863    -1.6831094638
   51      C     -13.0335549375     2.2532793937     0.4765320302
   52      H     -13.3100488228     0.5933543607    -0.9567265006
   53      H     -13.7590405649     3.0393950813     0.2349937721
   54      H     -12.1322824091     2.6926974771     0.9212449460
   55      H     -13.5187034800     1.6235672806     1.2333302506
   56      C       7.7371623541     1.1577031490    -1.5495343265
   57      C       7.2337652649     1.1201854071    -0.2987342667
   58      N       7.0331975205     1.7155161224    -2.5805184193
   59      C       5.9081432791     1.4075667592    -0.0858955734
   60      C       5.7672728171     2.0669063681    -2.3622856527
   61      C       5.1415393411     1.9620769059    -1.0839185689
   62      C       3.7024686083     2.3469174030    -0.8265254502
   63      C       2.8685324896     1.6229750922     0.0117030870
   64      C       3.0887228282     3.4046835746    -1.6124782756
   65      N       1.5633777624     1.9575705579     0.2710812131
   66      N       3.6782378312     4.1012052397    -2.6057952599
   67      C       1.7522931788     3.7476199991    -1.3267504313
   68      C       0.9971590938     3.0347816224    -0.3580115798
   69      S       2.5537532568     5.2092163054    -3.0060288420
   70      N       1.3163171604     4.8552107746    -2.0516342740
   71      C      -0.3416416884     3.5040108133     0.0340718703
   72      S      -1.2773266788     5.0179775939    -0.3349419318
   73      C      -1.0932155397     2.7877459927     0.9625418229
   74      C      -2.6425012284     4.5438808834     0.7178091111
   75      S      -0.7839656724     1.2066544073     1.6862150350
   76      C      -2.2688304526     3.3745833048     1.3203805374
   77      C      -3.6946384579     5.3798085110     1.1844194966
   78      C      -2.3075976781     1.4139312205     2.5256790509
   79      C      -2.8706750126     2.6376894706     2.3522989464
   80      N      -3.4259059581     6.6654205019     1.0227233236
   81      S      -5.3300850753     4.9728886146     1.7087376819
   82      C      -4.5848530885     7.4103965111     1.2987492183
   83      C      -5.6636210585     6.6749874086     1.6315661635
   84      C       9.0714674821     0.6302981863    -1.8705870179
   85      H       7.8357680665     0.7507527066     0.5249562739
   86      H       5.4868667271     1.1237976815     0.8736408653
   87      H       5.1933939704     2.2424996073    -3.2709721132
   88      H       3.2530517664     0.7972668508     0.6071557097
   89      H      -2.5690811244     0.7914722785     3.3711920743
   90      H      -3.7797801935     2.9137294626     2.8728877409
   91      H      -4.5746179410     8.4871632299     1.1922143652
   92      H      -6.6205026468     7.0667214151     1.9516897244
   93      H       9.2188127033    -0.4282880137    -1.6220138033
   94      C      10.2332164185     1.5163900131    -1.4288080196
   95      H       9.1661952644     0.7268835626    -2.9590620577
   96      H      10.0569281515     2.5356204738    -1.7940020980
   97      H      11.1881232060     1.0998467656    -1.7741625479
   98      C      10.4412975556     1.6014806847     0.1192914017
   99      H       9.6259722319     2.2058700673     0.5357503921
  100      C      11.7021250127     2.3082180135     0.5500517430
  101      H      10.3074337176     0.6042618893     0.5586957108
  102      H      11.8157466231     3.1515323226    -0.1428415429
  103      H      12.5354685197     1.6802912749     0.2108930627
  104      C      11.8529195427     2.5822545861     2.0962299237
  105      H      10.9370214246     2.9952851954     2.5356003289
  106      C      12.9550793463     3.6202991719     2.4799788068
  107      H      11.9939200055     1.6126770964     2.5895932392
  108      H      12.8011671756     4.5590103445     1.9333186033
  109      H      13.9394666203     3.1472637611     2.3767596464
  110      H      12.9877135795     3.8746975991     3.5459752641
 ----------------------------------------------------------------

    9   -5663.4983515640      8.10E-06 Convergence criterion met
 Total energy in the final basis set = -5663.4983515640

                    Orbital Energies (a.u.)
 --------------------------------------------------------------

 Alpha MOs
 -- Occupied --
-88.989 -88.987 -88.932 -88.930 -88.925 -88.924 -88.912 -88.908
-14.391 -14.386 -14.383 -14.381 -14.353 -14.350 -14.344 -14.336
-14.327 -14.326 -10.271 -10.269 -10.266 -10.262 -10.258 -10.258
-10.256 -10.255 -10.243 -10.243 -10.242 -10.241 -10.239 -10.238
-10.232 -10.231 -10.229 -10.228 -10.228 -10.226 -10.226 -10.226
-10.225 -10.224 -10.222 -10.222 -10.221 -10.216 -10.213 -10.211
-10.210 -10.209 -10.205 -10.205 -10.199 -10.193 -10.191 -10.188
-10.187 -10.185 -10.184 -10.181 -10.180 -10.180 -10.179 -10.178
-10.177 -10.176 -10.175 -10.171  -8.045  -8.043  -7.993  -7.993
 -7.982  -7.982  -7.971  -7.966  -6.009  -6.008  -6.004  -6.003
 -6.002  -6.001  -5.957  -5.956  -5.954  -5.953  -5.950  -5.950
 -5.947  -5.946  -5.943  -5.943  -5.939  -5.939  -5.935  -5.932
 -5.931  -5.927  -5.927  -5.923  -1.040  -1.036  -0.995  -0.968
 -0.949  -0.948  -0.940  -0.928  -0.914  -0.909  -0.906  -0.901
 -0.843  -0.840  -0.830  -0.827  -0.820  -0.813  -0.811  -0.810
 -0.806  -0.805  -0.800  -0.795  -0.785  -0.780  -0.769  -0.768
 -0.753  -0.750  -0.741  -0.740  -0.722  -0.718  -0.715  -0.706
 -0.698  -0.691  -0.673  -0.673  -0.654  -0.654  -0.646  -0.637
 -0.636  -0.635  -0.626  -0.623  -0.614  -0.612  -0.604  -0.598
 -0.591  -0.590  -0.586  -0.582  -0.578  -0.575  -0.573  -0.571
 -0.548  -0.545  -0.540  -0.539  -0.525  -0.520  -0.520  -0.519
 -0.509  -0.504  -0.498  -0.495  -0.491  -0.488  -0.482  -0.476
 -0.475  -0.470  -0.468  -0.465  -0.463  -0.456  -0.452  -0.451
 -0.446  -0.446  -0.444  -0.441  -0.437  -0.437  -0.431  -0.429
 -0.428  -0.427  -0.426  -0.423  -0.420  -0.420  -0.414  -0.413
 -0.412  -0.410  -0.402  -0.401  -0.401  -0.399  -0.397  -0.395
 -0.394  -0.392  -0.389  -0.388  -0.387  -0.384  -0.383  -0.382
 -0.379  -0.376  -0.376  -0.370  -0.369  -0.369  -0.363  -0.359
 -0.352  -0.352  -0.349  -0.344  -0.343  -0.342  -0.341  -0.340
 -0.338  -0.334  -0.333  -0.329  -0.329  -0.327  -0.326  -0.325
 -0.319  -0.317  -0.314  -0.310  -0.304  -0.301  -0.301  -0.298
 -0.294  -0.294  -0.291  -0.289  -0.288  -0.288  -0.287  -0.281
 -0.276  -0.270  -0.270  -0.259  -0.254  -0.253  -0.247  -0.247
 -0.246  -0.244  -0.233  -0.232  -0.197  -0.195

          Ground-State Mulliken Net Atomic Charges

     Atom                 Charge (a.u.)
  ----------------------------------------
      1 C                     0.267978
      2 C                    -0.103186
      3 N                    -0.492623
      4 C                    -0.043811
      5 C                     0.095413
      6 C                    -0.001881
      7 C                    -0.045883
      8 C                     0.083585
      9 C                     0.240458
     10 N                    -0.529283
     11 N                    -0.529948
     12 C                     0.190971
     13 C                     0.313626
     14 S                     0.611605
     15 N                    -0.554092
     16 C                    -0.223500
     17 S                     0.350033
     18 C                    -0.157533
     19 C                    -0.211522
     20 S                     0.345520
     21 C                     0.177996
     22 C                     0.043511
     23 C                    -0.315143
     24 C                    -0.116783
     25 N                    -0.413609
     26 S                     0.280934
     27 C                     0.139679
     28 C                    -0.311924
     29 C                    -0.235334
     30 H                     0.084499
     31 H                     0.100307
     32 H                     0.100150
     33 H                     0.132138
     34 H                     0.131675
     35 H                     0.093512
     36 H                     0.107674
     37 H                     0.132724
     38 H                     0.107566
     39 C                    -0.182010
     40 H                     0.129118
     41 H                     0.088241
     42 H                     0.102216
     43 C                    -0.182817
     44 H                     0.087545
     45 C                    -0.182583
     46 H                     0.090531
     47 H                     0.093784
     48 H                     0.103500
     49 C                    -0.169200
     50 H                     0.098543
     51 C                    -0.323948
     52 H                     0.097052
     53 H                     0.098548
     54 H                     0.103507
     55 H                     0.105759
     56 C                     0.268422
     57 C                    -0.090299
     58 N                    -0.487878
     59 C                    -0.085425
     60 C                     0.103567
     61 C                     0.034142
     62 C                     0.036350
     63 C                     0.064686
     64 C                     0.226924
     65 N                    -0.546358
     66 N                    -0.553286
     67 C                     0.169242
     68 C                     0.312035
     69 S                     0.615765
     70 N                    -0.533693
     71 C                    -0.227523
     72 S                     0.355478
     73 C                    -0.141469
     74 C                    -0.223061
     75 S                     0.339216
     76 C                     0.169870
     77 C                     0.050237
     78 C                    -0.323589
     79 C                    -0.091458
     80 N                    -0.425042
     81 S                     0.279672
     82 C                     0.119184
     83 C                    -0.300722
     84 C                    -0.251385
     85 H                     0.088530
     86 H                     0.090825
     87 H                     0.118406
     88 H                     0.110545
     89 H                     0.123661
     90 H                     0.101030
     91 H                     0.117669
     92 H                     0.134653
     93 H                     0.103725
     94 C                    -0.181430
     95 H                     0.124982
     96 H                     0.108223
     97 H                     0.094359
     98 C                    -0.179208
     99 H                     0.093173
    100 C                    -0.175244
    101 H                     0.080263
    102 H                     0.091495
    103 H                     0.087216
    104 C                    -0.181250
    105 H                     0.094323
    106 C                    -0.321284
    107 H                     0.095442
    108 H                     0.109511
    109 H                     0.104146
    110 H                     0.099350
  ----------------------------------------
  Sum of atomic charges =     0.000000

                    Cartesian Multipole Moments
 -----------------------------------------------------------------
    Charge (ESU x 10^10)
                 0.0000
    Dipole Moment (Debye)
         X       0.2211      Y       0.4397      Z       0.1812
       Tot       0.5244
    Quadrupole Moments (Debye-Ang)
        XX    -400.2413     XY     -28.1727     YY    -441.2025
        XZ      14.2748     YZ      14.9610     ZZ    -442.0768

 Total job time:  83.65s(wall), 923.55s(cpu)
        *  Thank you very much for using Q-Chem.  Have a nice day.  *
