 Q-Chem 4.4, Q-Chem, Inc., Pleasanton, CA (2016)
 Q-Chem 4.4.2 for Intel X86 Linux

User input:
--------------------------------------------------------------
$comment
SP
$end

$rem
MEM_STATIC 5000
MEM_TOTAL 20000
JOBTYPE SP
EXCHANGE B3LYP
BASIS 6-31g(d,p)
$end

$molecule
0 1
C           3.598000    -28.727000     -2.395000
C           4.796000    -28.366000     -2.937000
N           3.082000    -27.963000     -1.397000
C           5.624000    -27.388000     -2.291000
C           3.749000    -26.853000     -0.973000
C           5.061000    -26.571000     -1.299000
C           5.883000    -25.528000     -0.635000
C           7.275000    -25.527000     -0.649000
C           5.267000    -24.359000     -0.117000
N           8.089000    -24.588000     -0.083000
N           3.907000    -23.993000     -0.108000
C           6.104000    -23.438000      0.503000
C           7.524000    -23.522000      0.569000
S           3.880000    -22.539000      0.673000
N           5.480000    -22.360000      1.032000
C           8.427000    -22.420000      1.040000
S           7.905000    -20.830000      1.694000
C           9.784000    -22.479000      1.145000
C           9.610000    -20.382000      2.124000
S          10.798000    -23.848000      0.901000
C          10.438000    -21.349000      1.608000
C           9.960000    -19.073000      2.643000
C          12.218000    -22.893000      1.322000
C          11.868000    -21.629000      1.681000
N           8.879000    -18.310000      2.728000
S          11.481000    -18.545000      3.168000
C           9.223000    -17.079000      3.181000
C          10.614000    -16.970000      3.381000
C           2.701000    -29.847000     -2.913000
H           5.196000    -28.967000     -3.748000
H           6.704000    -27.378000     -2.407000
H           3.164000    -26.288000     -0.249000
H           7.865000    -26.232000     -1.232000
H          13.222000    -23.274000      1.191000
H          12.513000    -20.824000      2.011000
H           8.428000    -16.399000      3.457000
H          11.149000    -16.129000      3.801000
H           3.064000    -30.837000     -2.611000
C           2.468000    -29.731000     -4.430000
H           1.701000    -29.861000     -2.463000
H           3.372000    -29.339000     -4.913000
H           1.641000    -29.028000     -4.586000
C           2.084000    -31.078000     -4.964000
H           2.905000    -31.792000     -4.823000
C           1.519000    -31.021000     -6.457000
H           1.347000    -31.540000     -4.296000
H           1.430000    -32.042000     -6.849000
H           2.295000    -30.562000     -7.083000
C           0.176000    -30.281000     -6.592000
H          -0.575000    -30.402000     -5.801000
C          -0.457000    -30.506000     -7.978000
H           0.337000    -29.206000     -6.446000
H          -1.209000    -29.760000     -8.262000
H          -1.027000    -31.440000     -8.062000
H           0.326000    -30.424000     -8.743000
C           2.552000    -19.423000      0.911000
C           1.615000    -19.367000      1.903000
N           2.292000    -20.010000     -0.274000
C           0.356000    -20.027000      1.772000
C           1.119000    -20.647000     -0.442000
C           0.127000    -20.790000      0.559000
C          -1.119000    -21.663000      0.426000
C          -1.605000    -21.781000     -0.928000
C          -1.774000    -22.445000      1.425000
N          -2.690000    -22.546000     -1.296000
N          -1.449000    -22.446000      2.737000
C          -2.752000    -23.271000      1.047000
C          -3.232000    -23.320000     -0.304000
S          -2.524000    -23.585000      3.354000
N          -3.238000    -24.069000      1.963000
C          -4.539000    -23.977000     -0.688000
S          -5.912000    -24.214000      0.427000
C          -4.799000    -24.658000     -1.851000
C          -6.764000    -25.270000     -0.721000
S          -3.693000    -25.021000     -3.115000
C          -5.997000    -25.329000     -1.880000
C          -8.061000    -25.851000     -0.404000
C          -4.928000    -26.001000     -3.868000
C          -6.131000    -26.039000     -3.093000
N          -8.822000    -26.186000     -1.383000
S          -8.635000    -25.902000      1.234000
C          -9.936000    -26.668000     -0.786000
C          -9.882000    -26.891000      0.540000
C           3.973000    -18.827000      1.046000
H           1.844000    -18.807000      2.805000
H          -0.336000    -19.917000      2.602000
H           0.904000    -21.108000     -1.405000
H          -1.137000    -21.222000     -1.737000
H          -4.586000    -26.563000     -4.728000
H          -6.993000    -26.659000     -3.311000
H         -10.790000    -26.726000     -1.448000
H         -10.625000    -27.292000      1.216000
H           4.116000    -18.583000      2.106000
C           4.462000    -17.774000      0.089000
H           4.488000    -19.787000      0.922000
H           3.808000    -16.896000      0.161000
H           4.343000    -18.123000     -0.944000
C           5.879000    -17.374000      0.321000
H           6.005000    -17.236000      1.402000
C           6.327000    -16.045000     -0.486000
H           6.540000    -18.195000      0.018000
H           5.503000    -15.327000     -0.391000
H           6.367000    -16.277000     -1.558000
C           7.716000    -15.512000      0.065000
H           7.675000    -15.414000      1.157000
C           8.136000    -14.252000     -0.730000
H           8.459000    -16.272000     -0.207000
H           7.336000    -13.529000     -0.533000
H           8.176000    -14.473000     -1.804000
H           9.095000    -13.794000     -0.458000
$end

--------------------------------------------------------------

             Standard Nuclear Orientation (Angstroms)
    I     Atom           X                Y                Z
 ----------------------------------------------------------------
    1      C       1.2575024416    -5.8263599029    -0.7318649566
    2      C       0.1282610104    -6.2925140108    -0.1262222090
    3      N       1.2544451852    -4.5584579567    -1.2200977988
    4      C      -1.1127355478    -5.5827970731    -0.2511758451
    5      C       0.1471369983    -3.7765505431    -1.0813376610
    6      C      -1.0926682890    -4.2560098946    -0.7069774336
    7      C      -2.3565107532    -3.4845187865    -0.8162143131
    8      C      -3.6148537771    -4.0787128859    -0.8531900676
    9      C      -2.3413893875    -2.0713492964    -0.6855837791
   10      N      -4.8140728281    -3.4297156999    -0.9263291144
   11      N      -1.2529903558    -1.2041484926    -0.4688182060
   12      C      -3.5639457052    -1.4219753728    -0.8155051299
   13      C      -4.8288167079    -2.0589441860    -0.9644483322
   14      S      -1.9274574490     0.3023818727    -0.4524964836
   15      N      -3.5083378103    -0.0720857494    -0.7380017961
   16      C      -6.1549644313    -1.3620166083    -0.8791361571
   17      S      -6.4115204505     0.4037963508    -0.6684619951
   18      C      -7.3792918448    -1.9351434447    -1.0479645137
   19      C      -8.2038929586     0.2285027091    -0.8905023777
   20      S      -7.7255332625    -3.5508722575    -1.5290365292
   21      C      -8.4893973345    -1.1144739314    -0.9332808110
   22      C      -9.1177390213     1.3437553600    -0.7279019517
   23      C      -9.4542251544    -3.2107307270    -1.4891105735
   24      C      -9.6887962917    -1.9067554964    -1.1830027827
   25      N      -8.4487323479     2.4395122469    -0.3966891563
   26      S     -10.7910830608     1.3519207387    -0.9881000533
   27      C      -9.3154259224     3.4662649527    -0.2135850087
   28      C     -10.6521289266     3.0536488440    -0.3860234768
   29      C       2.5934154850    -6.5611106433    -0.7848808953
   30      H       0.1405638186    -7.2990585392     0.2807652025
   31      H      -2.0741661158    -6.0838003391    -0.1833305039
   32      H       0.3315146072    -2.7591934614    -1.4228277275
   33      H      -3.7743719845    -5.1449830757    -0.7027380026
   34      H     -10.1930882692    -3.9940059301    -1.5935100648
   35      H     -10.6418192583    -1.3977875631    -1.1078438309
   36      H      -8.9067940098     4.4615937116    -0.0998237597
   37      H     -11.5352453071     3.6779105910    -0.3684527681
   38      H       2.5944127117    -7.3579241047    -1.5386449918
   39      C       3.0255506043    -7.0530332869     0.6080675429
   40      H       3.4253900964    -5.9469881928    -1.1500765440
   41      H       2.1401899866    -7.3439441276     1.1874434653
   42      H       3.5300161056    -6.2202136873     1.1124484232
   43      C       3.9874997433    -8.1905496530     0.4415401557
   44      H       3.4953486998    -9.0362285264    -0.0547788882
   45      C       4.7388455151    -8.5777071190     1.7969410661
   46      H       4.7162638299    -7.9422076563    -0.3395271645
   47      H       5.2827837235    -9.5196424111     1.6523204211
   48      H       3.9685632806    -8.8260284426     2.5383820950
   49      C       5.6925497311    -7.4881143170     2.3191572993
   50      H       6.2806264752    -6.9102476678     1.5948929285
   51      C       6.5956988103    -8.0203297840     3.4475980100
   52      H       5.1056811512    -6.6446889748     2.7026686578
   53      H       7.0380785819    -7.2429154499     4.0821081288
   54      H       7.4875359141    -8.5519717713     3.0922174005
   55      H       5.9891617029    -8.6307336491     4.1291828241
   56      C      -1.9710636643     3.4228958070     0.8854778376
   57      C      -1.3182244245     4.3090314905     0.0769399737
   58      N      -1.3009848050     2.5384122082     1.6503811555
   59      C       0.0998200074     4.2632585440    -0.0808473086
   60      C       0.0367875595     2.4577396555     1.5329970003
   61      C       0.8147630748     3.2145898192     0.6228069503
   62      C       2.3037117454     2.9948137531     0.3638391200
   63      C       3.0267905018     2.4990081360     1.5104732823
   64      C       3.0238691694     3.1054252606    -0.8640405073
   65      N       4.3694223511     2.1905183995     1.5035595583
   66      N       2.4999287230     3.5568051392    -2.0253813762
   67      C       4.2949459207     2.6991902764    -0.8953619041
   68      C       4.9853972970     2.2564904680     0.2816239822
   69      S       3.8053443803     3.3924498778    -3.0753872381
   70      N       4.8828167392     2.6884398332    -2.0642709377
   71      C       6.4901064388     2.1196797257     0.3486106925
   72      S       7.6294071958     3.0149225947    -0.6930499963
   73      C       7.1926588143     1.1711157279     1.0490223584
   74      C       9.0103041664     2.0283798732    -0.1650338837
   75      S       6.5531444613    -0.1503019527     1.9420944193
   76      C       8.5418362357     1.1367283484     0.7944171865
   77      C      10.3536692116     2.2621723810    -0.6758865226
   78      C       8.1822011478    -0.7375544303     2.1743503984
   79      C       9.1502753184     0.0895881688     1.5201749471
   80      N      11.3438686945     1.8804375377     0.0476951890
   81      S      10.6059076601     3.2009074933    -2.1147309041
   82      C      12.4341735396     2.2405711769    -0.6673349550
   83      C      12.2389632363     2.6381625325    -1.9380572109
   84      C      -3.5117592277     3.3515944469     1.0031863636
   85      H      -1.9001762224     5.0581993036    -0.4519500836
   86      H       0.5383541251     5.0154705746    -0.7302538752
   87      H       0.5784951602     1.7531393575     2.1624462004
   88      H       2.5288300680     2.3773911806     2.4713222416
   89      H       8.2405393716    -1.7109022972     2.6450929836
   90      H      10.2086437984    -0.1317020294     1.4436582250
   91      H      13.3459371637     2.2585936731    -0.0848520940
   92      H      12.9481808483     2.9406371643    -2.6965725212
   93      H      -3.9214107619     3.9594819090     0.1869489876
   94      C      -4.1937150536     3.5433064542     2.3305754391
   95      H      -3.5852920685     2.3226611541     0.6315814654
   96      H      -3.9535112912     4.5431307587     2.7132469859
   97      H      -3.7699464405     2.8547800387     3.0717923693
   98      C      -5.6720428813     3.3630590281     2.2691694200
   99      H      -6.0290145944     3.9041635254     1.3841507089
  100      C      -6.4498501331     3.8567004954     3.5994054821
  101      H      -5.9001112466     2.3013155098     2.1160141975
  102      H      -5.9979096115     4.8128539286     3.8910308878
  103      H      -6.2084331184     3.1754705034     4.4253906654
  104      C      -8.0101638275     3.9363086812     3.3235527830
  105      H      -8.2023911468     4.5215069844     2.4156207351
  106      C      -8.7380535487     4.3928893320     4.6110836227
  107      H      -8.3414927297     2.9018179915     3.1696594052
  108      H      -8.3276617354     5.3886661266     4.8149098593
  109      H      -8.5005373553     3.7194162757     5.4441124939
  110      H      -9.8311078287     4.4699495597     4.5589006520
 ----------------------------------------------------------------

   10   -5663.4690434862      7.07E-06 Convergence criterion met
 Total energy in the final basis set = -5663.4690434862

                    Orbital Energies (a.u.)
 --------------------------------------------------------------

 Alpha MOs
 -- Occupied --
-88.988 -88.981 -88.940 -88.925 -88.920 -88.915 -88.905 -88.903
-14.391 -14.388 -14.380 -14.380 -14.355 -14.347 -14.341 -14.341
-14.332 -14.319 -10.268 -10.267 -10.267 -10.262 -10.256 -10.253
-10.253 -10.247 -10.243 -10.241 -10.238 -10.237 -10.237 -10.237
-10.236 -10.236 -10.233 -10.232 -10.228 -10.227 -10.226 -10.225
-10.224 -10.224 -10.222 -10.222 -10.222 -10.220 -10.218 -10.215
-10.210 -10.207 -10.205 -10.204 -10.202 -10.199 -10.197 -10.195
-10.182 -10.182 -10.181 -10.180 -10.179 -10.178 -10.178 -10.177
-10.172 -10.170 -10.169 -10.169  -8.044  -8.035  -8.001  -7.987
 -7.980  -7.972  -7.967  -7.963  -6.009  -6.003  -6.001  -6.000
 -5.995  -5.994  -5.965  -5.962  -5.958  -5.951  -5.948  -5.944
 -5.944  -5.941  -5.937  -5.937  -5.933  -5.931  -5.929  -5.928
 -5.927  -5.924  -5.923  -5.920  -1.048  -1.019  -0.994  -0.976
 -0.947  -0.944  -0.940  -0.927  -0.915  -0.911  -0.909  -0.888
 -0.843  -0.837  -0.830  -0.828  -0.819  -0.815  -0.808  -0.807
 -0.799  -0.797  -0.791  -0.790  -0.779  -0.779  -0.763  -0.762
 -0.751  -0.750  -0.740  -0.740  -0.721  -0.719  -0.704  -0.703
 -0.690  -0.687  -0.673  -0.667  -0.654  -0.648  -0.646  -0.644
 -0.635  -0.628  -0.624  -0.620  -0.612  -0.610  -0.604  -0.596
 -0.596  -0.592  -0.586  -0.585  -0.576  -0.574  -0.570  -0.569
 -0.555  -0.541  -0.534  -0.533  -0.529  -0.521  -0.519  -0.515
 -0.505  -0.503  -0.496  -0.490  -0.487  -0.479  -0.478  -0.470
 -0.469  -0.465  -0.464  -0.459  -0.458  -0.456  -0.449  -0.449
 -0.446  -0.442  -0.441  -0.439  -0.435  -0.434  -0.431  -0.430
 -0.428  -0.423  -0.420  -0.419  -0.417  -0.416  -0.413  -0.410
 -0.408  -0.408  -0.405  -0.401  -0.399  -0.398  -0.397  -0.392
 -0.391  -0.389  -0.389  -0.385  -0.384  -0.382  -0.381  -0.380
 -0.378  -0.377  -0.370  -0.368  -0.364  -0.358  -0.356  -0.355
 -0.354  -0.350  -0.347  -0.346  -0.344  -0.342  -0.341  -0.340
 -0.337  -0.335  -0.334  -0.331  -0.325  -0.322  -0.319  -0.319
 -0.314  -0.312  -0.306  -0.304  -0.304  -0.301  -0.300  -0.298
 -0.297  -0.297  -0.297  -0.292  -0.287  -0.286  -0.284  -0.278
 -0.274  -0.270  -0.267  -0.261  -0.254  -0.252  -0.250  -0.242
 -0.242  -0.240  -0.233  -0.230  -0.191  -0.189

          Ground-State Mulliken Net Atomic Charges

     Atom                 Charge (a.u.)
  ----------------------------------------
      1 C                     0.273762
      2 C                    -0.127258
      3 N                    -0.489716
      4 C                    -0.091477
      5 C                     0.068116
      6 C                     0.060985
      7 C                     0.038655
      8 C                     0.047987
      9 C                     0.254686
     10 N                    -0.528243
     11 N                    -0.571342
     12 C                     0.178732
     13 C                     0.296641
     14 S                     0.646146
     15 N                    -0.574924
     16 C                    -0.214950
     17 S                     0.361347
     18 C                    -0.122998
     19 C                    -0.249356
     20 S                     0.286636
     21 C                     0.142805
     22 C                     0.082809
     23 C                    -0.307608
     24 C                    -0.073051
     25 N                    -0.427889
     26 S                     0.290513
     27 C                     0.137891
     28 C                    -0.325513
     29 C                    -0.232701
     30 H                     0.084573
     31 H                     0.100604
     32 H                     0.123928
     33 H                     0.111194
     34 H                     0.132054
     35 H                     0.094167
     36 H                     0.123752
     37 H                     0.124294
     38 H                     0.106114
     39 C                    -0.173334
     40 H                     0.124845
     41 H                     0.095546
     42 H                     0.111822
     43 C                    -0.190157
     44 H                     0.086859
     45 C                    -0.180134
     46 H                     0.092838
     47 H                     0.091383
     48 H                     0.094785
     49 C                    -0.172897
     50 H                     0.094143
     51 C                    -0.324676
     52 H                     0.097856
     53 H                     0.096444
     54 H                     0.105401
     55 H                     0.103787
     56 C                     0.243137
     57 C                    -0.116038
     58 N                    -0.484683
     59 C                    -0.074117
     60 C                     0.075067
     61 C                     0.023740
     62 C                     0.016777
     63 C                     0.051288
     64 C                     0.278663
     65 N                    -0.480677
     66 N                    -0.573209
     67 C                     0.204321
     68 C                     0.241030
     69 S                     0.586156
     70 N                    -0.530839
     71 C                    -0.197325
     72 S                     0.298810
     73 C                    -0.110995
     74 C                    -0.252282
     75 S                     0.283138
     76 C                     0.189508
     77 C                     0.084784
     78 C                    -0.309243
     79 C                    -0.081848
     80 N                    -0.413926
     81 S                     0.266355
     82 C                     0.117346
     83 C                    -0.299247
     84 C                    -0.217212
     85 H                     0.090098
     86 H                     0.118494
     87 H                     0.102887
     88 H                     0.121340
     89 H                     0.136083
     90 H                     0.118559
     91 H                     0.108449
     92 H                     0.128119
     93 H                     0.089592
     94 C                    -0.167848
     95 H                     0.130700
     96 H                     0.086035
     97 H                     0.112230
     98 C                    -0.178529
     99 H                     0.089511
    100 C                    -0.187655
    101 H                     0.114362
    102 H                     0.086665
    103 H                     0.094117
    104 C                    -0.174328
    105 H                     0.088933
    106 C                    -0.316972
    107 H                     0.104934
    108 H                     0.100348
    109 H                     0.104527
    110 H                     0.094991
  ----------------------------------------
  Sum of atomic charges =     0.000000

                    Cartesian Multipole Moments
 -----------------------------------------------------------------
    Charge (ESU x 10^10)
                 0.0000
    Dipole Moment (Debye)
         X      -1.3976      Y       1.3366      Z      -1.8654
       Tot       2.6869
    Quadrupole Moments (Debye-Ang)
        XX    -365.4788     XY      -3.7502     YY    -408.7289
        XZ     -10.8414     YZ     -17.6540     ZZ    -450.9392

 Total job time:  93.47s(wall), 1034.05s(cpu)
        *  Thank you very much for using Q-Chem.  Have a nice day.  *
