 Q-Chem 4.4, Q-Chem, Inc., Pleasanton, CA (2016)
 Q-Chem 4.4.2 for Intel X86 Linux

User input:
--------------------------------------------------------------
$comment
SP
$end

$rem
MEM_STATIC 5000
MEM_TOTAL 20000
JOBTYPE SP
EXCHANGE B3LYP
BASIS 6-31g(d,p)
$end

$molecule
0 1
C          -0.616000    -32.675000      9.975000
C          -1.963000    -32.370000     10.151000
N           0.342000    -31.715000     10.166000
C          -2.381000    -31.023000     10.471000
C          -0.062000    -30.493000     10.562000
C          -1.380000    -30.083000     10.793000
C          -1.647000    -28.714000     11.362000
C          -0.753000    -28.116000     12.332000
C          -2.835000    -27.980000     11.144000
N          -0.968000    -26.845000     12.850000
N          -3.866000    -28.479000     10.369000
C          -3.076000    -26.714000     11.755000
C          -2.080000    -26.130000     12.577000
S          -5.046000    -27.430000     10.657000
N          -4.349000    -26.267000     11.495000
C          -2.194000    -24.725000     13.218000
S          -3.664000    -23.780000     13.201000
C          -1.271000    -24.255000     14.182000
C          -2.955000    -22.667000     14.374000
S           0.266000    -24.859000     14.704000
C          -1.744000    -23.119000     14.812000
C          -3.555000    -21.508000     14.942000
C           0.321000    -23.526000     15.907000
C          -0.815000    -22.686000     15.892000
N          -2.823000    -20.435000     15.352000
S          -5.341000    -21.381000     15.020000
C          -3.716000    -19.553000     16.056000
C          -5.078000    -19.965000     16.001000
C          -0.201000    -34.092000      9.530000
H          -2.692000    -33.127000      9.878000
H          -3.448000    -30.868000     10.603000
H           0.696000    -29.758000     10.829000
H           0.121000    -28.648000     12.704000
H           1.148000    -23.519000     16.606000
H          -0.919000    -21.827000     16.545000
H          -3.336000    -18.581000     16.341000
H          -5.927000    -19.420000     16.391000
H           0.775000    -34.199000     10.019000
C          -0.268000    -34.168000      7.968000
H          -0.826000    -34.767000     10.129000
H           0.580000    -33.641000      7.513000
H          -1.182000    -33.646000      7.660000
C          -0.099000    -35.582000      7.384000
H          -0.333000    -35.608000      6.313000
C          -1.098000    -36.606000      7.927000
H           0.892000    -36.036000      7.503000
H          -0.889000    -36.842000      8.978000
H          -0.908000    -37.546000      7.394000
C          -2.568000    -36.072000      7.917000
H          -2.681000    -35.334000      8.721000
C          -3.589000    -37.164000      8.216000
H          -2.821000    -35.572000      6.974000
H          -3.115000    -38.147000      8.332000
H          -4.288000    -37.181000      7.371000
H          -4.183000    -36.836000      9.078000
C          12.143000    -11.839000      9.739000
C          11.864000    -11.452000     11.037000
N          11.667000    -13.007000      9.221000
C          11.083000    -12.316000     11.855000
C          10.903000    -13.812000     10.021000
C          10.588000    -13.539000     11.347000
C           9.725000    -14.525000     12.163000
C           8.871000    -14.118000     13.162000
C           9.682000    -15.970000     11.926000
N           7.914000    -14.863000     13.772000
N          10.460000    -16.631000     11.038000
C           8.673000    -16.719000     12.542000
C           7.737000    -16.125000     13.377000
S          10.020000    -18.186000     11.169000
N           8.843000    -18.038000     12.315000
C           6.591000    -16.843000     13.970000
S           5.891000    -18.258000     13.228000
C           5.836000    -16.389000     15.062000
C           4.590000    -18.233000     14.428000
S           5.980000    -14.913000     16.045000
C           4.725000    -17.145000     15.309000
C           3.496000    -19.181000     14.562000
C           4.600000    -15.486000     16.966000
C           4.038000    -16.680000     16.483000
N           2.405000    -18.770000     15.163000
S           3.384000    -20.408000     13.395000
C           1.540000    -19.792000     15.050000
C           1.860000    -20.789000     14.154000
C          12.842000    -10.947000      8.767000
H          12.246000    -10.514000     11.429000
H          10.760000    -12.048000     12.856000
H          10.469000    -14.665000      9.501000
H           8.819000    -13.058000     13.404000
H           4.347000    -14.800000     17.764000
H           3.164000    -17.045000     17.010000
H           0.562000    -19.796000     15.513000
H           1.359000    -21.724000     13.945000
H          12.500000    -10.910000      7.725000
C          14.362000    -11.276000      8.738000
H          12.760000     -9.924000      9.155000
H          14.820000    -10.659000      7.954000
H          14.606000    -12.315000      8.481000
C          15.145000    -10.995000     10.010000
H          14.471000    -11.210000     10.849000
C          15.566000     -9.501000     10.147000
H          15.943000    -11.746000     10.050000
H          14.798000     -8.828000      9.748000
H          16.427000     -9.305000      9.495000
C          15.898000     -9.078000     11.544000
H          15.006000     -9.106000     12.182000
C          16.512000     -7.664000     11.622000
H          16.592000     -9.758000     12.053000
H          15.776000     -6.965000     11.206000
H          17.429000     -7.628000     11.021000
H          16.720000     -7.358000     12.655000
$end

--------------------------------------------------------------

             Standard Nuclear Orientation (Angstroms)
    I     Atom           X                Y                Z
 ----------------------------------------------------------------
    1      C      11.2428591612    -4.4793285752    -0.8617158052
    2      C      11.8402343519    -3.3657512979    -0.2773370504
    3      N       9.8884534329    -4.5131161835    -1.0624358108
    4      C      11.0391374038    -2.2558921137     0.1895561611
    5      C       9.1732458517    -3.4271859907    -0.7123647719
    6      C       9.6685681416    -2.2484722267    -0.1432648759
    7      C       8.7466618200    -1.0755343828     0.0653413287
    8      C       7.6854721066    -0.7774993280    -0.8742285188
    9      C       8.9248430023    -0.0918054369     1.0644173154
   10      N       6.8093917693     0.2843148721    -0.6870819263
   11      N       9.9871733318    -0.1377784545     1.9486841036
   12      C       8.0654400209     1.0398351242     1.1867862490
   13      C       6.9569464484     1.1773890805     0.3143890294
   14      S       9.8958428026     1.2958166139     2.6643718248
   15      N       8.5221069312     1.9139882757     2.1434730320
   16      C       5.9086674871     2.3130237747     0.4110692273
   17      S       6.0910434091     3.6992242916     1.4595925460
   18      C       4.9293919179     2.5270446431    -0.5875996004
   19      C       4.7362994865     4.4859318327     0.6452589849
   20      S       4.4203963007     1.5649789577    -1.9348271531
   21      C       4.3156360828     3.7554545240    -0.4281068438
   22      C       4.1862874368     5.7695391095     0.9204754526
   23      C       3.3016819278     2.8939589328    -2.3924442175
   24      C       3.3571353782     4.0171360317    -1.5370383962
   25      N       2.8768284142     6.0658157379     0.6907142117
   26      S       5.2004648948     7.0189792230     1.7093686559
   27      C       2.7208481908     7.4840799898     0.8782926799
   28      C       3.8953254857     8.1223763020     1.3692039769
   29      C      12.1050798340    -5.6958870735    -1.2550349271
   30      H      12.8962934582    -3.4292015171    -0.0329352630
   31      H      11.5801430025    -1.4201026484     0.6239602493
   32      H       8.1164430867    -3.3964954010    -0.9737151183
   33      H       7.5402549807    -1.3707715373    -1.7754632673
   34      H       2.7533292985     2.7869436510    -3.3200411793
   35      H       2.7279250976     4.8895485643    -1.6715627277
   36      H       1.7147861838     7.8817024846     0.8662681293
   37      H       3.9863528346     9.1617506022     1.6544075634
   38      H      11.5603439466    -6.0788585117    -2.1266665526
   39      C      12.2644904237    -6.6241336050    -0.0048126907
   40      H      12.9996703526    -5.2645608871    -1.7227063127
   41      H      11.3405775588    -7.1834008320     0.1887414023
   42      H      12.4401148021    -5.9718521980     0.8591485607
   43      C      13.2832898728    -7.7651740984    -0.1753626097
   44      H      13.4897552452    -8.2688263058     0.7765720014
   45      C      14.6858395773    -7.2970862911    -0.5692840883
   46      H      13.0135716611    -8.5468344404    -0.8955134244
   47      H      14.7000487099    -6.9161062434    -1.5981817041
   48      H      15.3199920539    -8.1918464849    -0.6015924775
   49      C      15.1884482714    -6.1054309926     0.3102033477
   50      H      14.6535833735    -5.1954532526     0.0107220400
   51      C      16.6668754938    -5.8021133897     0.0944317556
   52      H      14.9918418926    -6.2660386287     1.3773533461
   53      H      17.1328660755    -6.5109593041    -0.6018521285
   54      H      17.1484823627    -5.8690645327     1.0775326499
   55      H      16.7501510732    -4.7482998212    -0.1988362800
   56      C     -12.9695058361    -2.6994557734     1.8914836155
   57      C     -13.1453567777    -1.5576252736     1.1314089112
   58      N     -11.7419188591    -3.2698700514     2.0551349689
   59      C     -12.0140677363    -0.9869967426     0.4832197534
   60      C     -10.6665896759    -2.6923439562     1.4371934206
   61      C     -10.7320917376    -1.5658815413     0.6255149697
   62      C      -9.4543495512    -1.0030368375    -0.0328175790
   63      C      -9.2753075210     0.3370805628    -0.2877593467
   64      C      -8.2918380658    -1.8160252490    -0.3984128318
   65      N      -8.1190660469     0.9533096524    -0.6432046485
   66      N      -8.2294600536    -3.1639959852    -0.2992519624
   67      C      -7.1002050394    -1.1649098392    -0.7369352883
   68      C      -7.0096211319     0.2199347599    -0.7494649313
   69      S      -6.7468049272    -3.5563426714    -0.8251643638
   70      N      -6.1694298660    -2.0471129661    -1.1559403233
   71      C      -5.7556884106     0.9598344945    -0.9958185661
   72      S      -4.1871521714     0.2791523020    -0.6506304737
   73      C      -5.6786341033     2.3150385048    -1.3509097151
   74      C      -3.4383865022     1.8404520887    -1.0179436216
   75      S      -6.9562691642     3.5246929921    -1.6154577689
   76      C      -4.4040329657     2.8072355257    -1.3510902762
   77      C      -2.0204734480     2.1613551825    -1.0116368807
   78      C      -5.6814102734     4.6804412961    -1.9617967160
   79      C      -4.3811107631     4.1733503582    -1.7979401807
   80      N      -1.6815938025     3.4168007915    -0.8401145532
   81      S      -0.9501391133     0.9415901593    -0.5151293780
   82      C      -0.3398694240     3.4078319596    -0.7681892299
   83      C       0.2710336043     2.1853018507    -0.5908685518
   84      C     -14.0656393839    -3.2962574077     2.7108541388
   85      H     -14.1301478016    -1.1137186471     1.0193127641
   86      H     -12.0585460630    -0.0522392909    -0.0666931351
   87      H      -9.7108090833    -3.1384823251     1.7088715660
   88      H     -10.0784180366     1.0276107786    -0.0366627101
   89      H      -6.0880123236     5.6511558865    -2.2143773105
   90      H      -3.5699620866     4.8706328299    -1.9730543697
   91      H       0.2571550970     4.3078512996    -0.7018875779
   92      H       1.3210241474     1.9283569763    -0.5707143751
   93      H     -13.8418905779    -3.6830812134     3.7130521308
   94      C     -14.7578964937    -4.4440697061     1.9216843081
   95      H     -14.8265969001    -2.5171155052     2.8438148638
   96      H     -15.4959940967    -4.9073748582     2.5892689577
   97      H     -14.0905880753    -5.2561190672     1.6048542120
   98      C     -15.5137928672    -4.0477359322     0.6640777670
   99      H     -14.9562386739    -3.2191131748     0.2091715707
  100      C     -16.9470058987    -3.5124374034     0.9597158756
  101      H     -15.4283548231    -4.8969197377    -0.0243931511
  102      H     -16.9769742496    -2.9348783075     1.8911026850
  103      H     -17.6135823043    -4.3578983316     1.1735211943
  104      C     -17.5364537242    -2.6844530420    -0.1392632682
  105      H     -16.9809870549    -1.7463215162    -0.2611567443
  106      C     -19.0256933436    -2.3464683632     0.0852533526
  107      H     -17.4588861542    -3.1523089745    -1.1283088175
  108      H     -19.0952996880    -1.7869561769     1.0262390433
  109      H     -19.6044019567    -3.2745766459     0.1694991643
  110      H     -19.4328342262    -1.7135408200    -0.7132627880
 ----------------------------------------------------------------

   11   -5663.5065571087      6.91E-06 Convergence criterion met
 Total energy in the final basis set = -5663.5065571087

                    Orbital Energies (a.u.)
 --------------------------------------------------------------

 Alpha MOs
 -- Occupied --
-88.997 -88.984 -88.936 -88.933 -88.927 -88.918 -88.918 -88.903
-14.396 -14.392 -14.381 -14.378 -14.360 -14.358 -14.344 -14.337
-14.334 -14.323 -10.277 -10.276 -10.267 -10.266 -10.258 -10.255
-10.255 -10.255 -10.253 -10.249 -10.243 -10.243 -10.240 -10.237
-10.237 -10.236 -10.235 -10.235 -10.232 -10.232 -10.229 -10.224
-10.224 -10.223 -10.221 -10.219 -10.219 -10.218 -10.218 -10.217
-10.217 -10.215 -10.215 -10.213 -10.204 -10.202 -10.199 -10.197
-10.192 -10.191 -10.183 -10.180 -10.180 -10.177 -10.175 -10.174
-10.174 -10.172 -10.172 -10.171  -8.053  -8.039  -7.995  -7.993
 -7.986  -7.981  -7.977  -7.962  -6.018  -6.012  -6.011  -6.005
 -5.999  -5.997  -5.959  -5.957  -5.956  -5.954  -5.952  -5.950
 -5.950  -5.946  -5.945  -5.943  -5.942  -5.942  -5.938  -5.938
 -5.933  -5.927  -5.923  -5.919  -1.051  -1.034  -0.981  -0.957
 -0.954  -0.950  -0.935  -0.926  -0.917  -0.913  -0.907  -0.897
 -0.848  -0.840  -0.834  -0.825  -0.811  -0.810  -0.807  -0.807
 -0.805  -0.801  -0.794  -0.789  -0.785  -0.783  -0.767  -0.764
 -0.749  -0.747  -0.741  -0.736  -0.732  -0.722  -0.713  -0.705
 -0.694  -0.689  -0.674  -0.667  -0.657  -0.655  -0.655  -0.641
 -0.635  -0.632  -0.629  -0.624  -0.612  -0.606  -0.602  -0.593
 -0.592  -0.589  -0.586  -0.585  -0.579  -0.575  -0.561  -0.556
 -0.554  -0.542  -0.541  -0.537  -0.527  -0.518  -0.515  -0.506
 -0.506  -0.503  -0.502  -0.497  -0.491  -0.480  -0.479  -0.474
 -0.471  -0.471  -0.468  -0.464  -0.463  -0.458  -0.453  -0.448
 -0.445  -0.442  -0.440  -0.438  -0.437  -0.435  -0.433  -0.430
 -0.428  -0.427  -0.423  -0.420  -0.419  -0.416  -0.413  -0.411
 -0.409  -0.409  -0.404  -0.404  -0.401  -0.401  -0.398  -0.394
 -0.394  -0.393  -0.391  -0.391  -0.388  -0.386  -0.386  -0.381
 -0.381  -0.375  -0.375  -0.367  -0.366  -0.365  -0.363  -0.358
 -0.357  -0.354  -0.354  -0.354  -0.352  -0.345  -0.344  -0.343
 -0.340  -0.335  -0.334  -0.332  -0.331  -0.327  -0.326  -0.320
 -0.316  -0.313  -0.310  -0.308  -0.306  -0.303  -0.302  -0.301
 -0.301  -0.295  -0.294  -0.289  -0.289  -0.285  -0.278  -0.277
 -0.277  -0.271  -0.271  -0.265  -0.256  -0.254  -0.252  -0.249
 -0.246  -0.242  -0.240  -0.231  -0.201  -0.187

          Ground-State Mulliken Net Atomic Charges

     Atom                 Charge (a.u.)
  ----------------------------------------
      1 C                     0.236794
      2 C                    -0.119702
      3 N                    -0.478261
      4 C                    -0.066955
      5 C                     0.069204
      6 C                     0.053441
      7 C                     0.028554
      8 C                     0.051844
      9 C                     0.186995
     10 N                    -0.537444
     11 N                    -0.538627
     12 C                     0.190304
     13 C                     0.329922
     14 S                     0.621603
     15 N                    -0.543929
     16 C                    -0.226716
     17 S                     0.342769
     18 C                    -0.111552
     19 C                    -0.228025
     20 S                     0.283817
     21 C                     0.153791
     22 C                     0.039044
     23 C                    -0.318892
     24 C                    -0.055819
     25 N                    -0.430769
     26 S                     0.276913
     27 C                     0.094055
     28 C                    -0.298126
     29 C                    -0.219562
     30 H                     0.089796
     31 H                     0.117631
     32 H                     0.096375
     33 H                     0.130314
     34 H                     0.137341
     35 H                     0.127200
     36 H                     0.125117
     37 H                     0.134666
     38 H                     0.118353
     39 C                    -0.174288
     40 H                     0.107013
     41 H                     0.114656
     42 H                     0.106793
     43 C                    -0.184292
     44 H                     0.094239
     45 C                    -0.181806
     46 H                     0.093901
     47 H                     0.090399
     48 H                     0.087597
     49 C                    -0.180793
     50 H                     0.096934
     51 C                    -0.323906
     52 H                     0.093171
     53 H                     0.109042
     54 H                     0.104073
     55 H                     0.100643
     56 C                     0.293309
     57 C                    -0.121662
     58 N                    -0.497250
     59 C                    -0.091467
     60 C                     0.075508
     61 C                     0.061160
     62 C                     0.055998
     63 C                     0.034421
     64 C                     0.199844
     65 N                    -0.528464
     66 N                    -0.542050
     67 C                     0.209066
     68 C                     0.319296
     69 S                     0.601160
     70 N                    -0.558293
     71 C                    -0.228820
     72 S                     0.337900
     73 C                    -0.111046
     74 C                    -0.256717
     75 S                     0.279749
     76 C                     0.162249
     77 C                     0.062053
     78 C                    -0.306851
     79 C                    -0.061357
     80 N                    -0.414779
     81 S                     0.269320
     82 C                     0.118702
     83 C                    -0.313642
     84 C                    -0.220317
     85 H                     0.096243
     86 H                     0.096543
     87 H                     0.114512
     88 H                     0.105230
     89 H                     0.131408
     90 H                     0.120959
     91 H                     0.119036
     92 H                     0.148690
     93 H                     0.119989
     94 C                    -0.186037
     95 H                     0.094808
     96 H                     0.087060
     97 H                     0.105139
     98 C                    -0.180828
     99 H                     0.089778
    100 C                    -0.165700
    101 H                     0.094820
    102 H                     0.089436
    103 H                     0.090534
    104 C                    -0.177396
    105 H                     0.086664
    106 C                    -0.318259
    107 H                     0.093966
    108 H                     0.098906
    109 H                     0.103496
    110 H                     0.099148
  ----------------------------------------
  Sum of atomic charges =     0.000000

                    Cartesian Multipole Moments
 -----------------------------------------------------------------
    Charge (ESU x 10^10)
                 0.0000
    Dipole Moment (Debye)
         X       5.0500      Y       3.3765      Z       0.2012
       Tot       6.0781
    Quadrupole Moments (Debye-Ang)
        XX    -381.7411     XY      -4.8186     YY    -417.5644
        XZ      14.1296     YZ       3.9487     ZZ    -448.6978

 Total job time:  99.55s(wall), 1092.13s(cpu)
        *  Thank you very much for using Q-Chem.  Have a nice day.  *
