 Q-Chem 4.4, Q-Chem, Inc., Pleasanton, CA (2016)
 Q-Chem 4.4.2 for Intel X86 Linux

User input:
--------------------------------------------------------------
$comment
SP
$end

$rem
MEM_STATIC 5000
MEM_TOTAL 20000
JOBTYPE SP
EXCHANGE B3LYP
BASIS 6-31g(d,p)
$end

$molecule
0 1
C          -0.080000    -17.383000     12.694000
C           0.366000    -16.490000     13.663000
N           0.554000    -17.633000     11.598000
C           1.524000    -15.761000     13.426000
C           1.687000    -16.934000     11.368000
C           2.231000    -16.017000     12.272000
C           3.478000    -15.174000     11.918000
C           3.562000    -13.855000     12.354000
C           4.547000    -15.585000     11.028000
N           4.607000    -13.001000     12.069000
N           4.665000    -16.808000     10.491000
C           5.525000    -14.726000     10.638000
C           5.536000    -13.379000     11.192000
S           6.035000    -16.835000      9.669000
N           6.517000    -15.262000      9.811000
C           6.572000    -12.461000     10.836000
S           7.525000    -12.378000      9.430000
C           7.036000    -11.537000     11.806000
C           8.463000    -10.917000     10.094000
S           6.431000    -11.143000     13.443000
C           8.105000    -10.748000     11.382000
C           9.322000    -10.119000      9.337000
C           7.823000    -10.022000     13.544000
C           8.612000     -9.911000     12.395000
N           9.273000    -10.352000      8.067000
S          10.253000     -8.709000      9.880000
C          10.096000     -9.438000      7.404000
C          10.672000     -8.487000      8.217000
C          -1.348000    -18.165000     12.941000
H          -0.224000    -16.347000     14.564000
H           1.896000    -15.257000     14.313000
H           2.189000    -17.099000     10.415000
H           2.839000    -13.497000     13.086000
H           7.827000     -9.385000     14.418000
H           9.407000     -9.181000     12.298000
H          10.144000     -9.625000      6.340000
H          11.274000     -7.636000      7.927000
H          -1.007000    -19.165000     13.235000
C          -2.297000    -18.324000     11.741000
H          -1.871000    -17.760000     13.816000
H          -1.733000    -18.632000     10.852000
H          -2.696000    -17.337000     11.475000
C          -3.425000    -19.305000     12.071000
H          -3.045000    -20.316000     12.266000
C          -4.574000    -19.385000     11.006000
H          -3.724000    -19.085000     13.103000
H          -5.011000    -20.387000     11.101000
H          -4.253000    -19.267000      9.963000
C          -5.568000    -18.230000     11.065000
H          -4.998000    -17.329000     10.806000
C          -6.362000    -18.087000     12.458000
H          -6.266000    -18.423000     10.240000
H          -6.795000    -17.084000     12.556000
H          -5.678000    -18.068000     13.316000
H          -7.129000    -18.845000     12.658000
C          12.143000    -11.839000      9.739000
C          11.864000    -11.452000     11.037000
N          11.667000    -13.007000      9.221000
C          11.083000    -12.316000     11.855000
C          10.903000    -13.812000     10.021000
C          10.588000    -13.539000     11.347000
C           9.725000    -14.525000     12.163000
C           8.871000    -14.118000     13.162000
C           9.682000    -15.970000     11.926000
N           7.914000    -14.863000     13.772000
N          10.460000    -16.631000     11.038000
C           8.673000    -16.719000     12.542000
C           7.737000    -16.125000     13.377000
S          10.020000    -18.186000     11.169000
N           8.843000    -18.038000     12.315000
C           6.591000    -16.843000     13.970000
S           5.891000    -18.258000     13.228000
C           5.836000    -16.389000     15.062000
C           4.590000    -18.233000     14.428000
S           5.980000    -14.913000     16.045000
C           4.725000    -17.145000     15.309000
C           3.496000    -19.181000     14.562000
C           4.600000    -15.486000     16.966000
C           4.038000    -16.680000     16.483000
N           2.405000    -18.770000     15.163000
S           3.384000    -20.408000     13.395000
C           1.540000    -19.792000     15.050000
C           1.860000    -20.789000     14.154000
C          12.842000    -10.947000      8.767000
H          12.246000    -10.514000     11.429000
H          10.760000    -12.048000     12.856000
H          10.469000    -14.665000      9.501000
H           8.819000    -13.058000     13.404000
H           4.347000    -14.800000     17.764000
H           3.164000    -17.045000     17.010000
H           0.562000    -19.796000     15.513000
H           1.359000    -21.724000     13.945000
H          12.500000    -10.910000      7.725000
C          14.362000    -11.276000      8.738000
H          12.760000     -9.924000      9.155000
H          14.820000    -10.659000      7.954000
H          14.606000    -12.315000      8.481000
C          15.145000    -10.995000     10.010000
H          14.471000    -11.210000     10.849000
C          15.566000     -9.501000     10.147000
H          15.943000    -11.746000     10.050000
H          14.798000     -8.828000      9.748000
H          16.427000     -9.305000      9.495000
C          15.898000     -9.078000     11.544000
H          15.006000     -9.106000     12.182000
C          16.512000     -7.664000     11.622000
H          16.592000     -9.758000     12.053000
H          15.776000     -6.965000     11.206000
H          17.429000     -7.628000     11.021000
H          16.720000     -7.358000     12.655000
$end

--------------------------------------------------------------

             Standard Nuclear Orientation (Angstroms)
    I     Atom           X                Y                Z
 ----------------------------------------------------------------
    1      C      -6.9668101404    -1.2019373804    -0.0658502065
    2      C      -6.3051258347    -1.1863002811    -1.2894740706
    3      N      -6.3692695824    -1.1556675618     1.0771617730
    4      C      -4.9164949898    -1.1922577055    -1.3050588600
    5      C      -5.0183237084    -1.1503773601     1.0668051641
    6      C      -4.2505666248    -1.1275220165    -0.1011279221
    7      C      -2.7076003678    -1.2186844864    -0.0573268477
    8      C      -2.0336354665    -1.9369858187    -1.0405498681
    9      C      -1.8658457208    -0.7325075145     1.0191781761
   10      N      -0.6664501056    -2.1149066438    -1.0819548053
   11      N      -2.3030216084    -0.0186250191     2.0666852291
   12      C      -0.5334097861    -0.9956834384     1.0618151660
   13      C       0.0728119624    -1.7223018708    -0.0454187051
   14      S      -1.0229741536     0.3817509694     2.9352994019
   15      N       0.1680239132    -0.4333308928     2.1328144097
   16      C       1.4782209057    -1.9821114368    -0.0544015530
   17      S       2.5703289262    -2.1391644907     1.2396496090
   18      C       2.1708160939    -1.9787411591    -1.2914434062
   19      C       3.9919680400    -2.4012826831     0.0711046662
   20      S       1.5752772943    -1.8786184064    -2.9755868005
   21      C       3.5493517240    -2.1571147895    -1.1779517122
   22      C       5.2588363922    -2.8437453248     0.4545174842
   23      C       3.3019817180    -1.8950488653    -3.4475273403
   24      C       4.2253108737    -2.0490882823    -2.4088848954
   25      N       5.3243874734    -3.2530048859     1.6783637439
   26      S       6.6698868252    -3.1253076233    -0.5844095332
   27      C       6.6042531780    -3.7578444144     1.9220332514
   28      C       7.4326356356    -3.7818131528     0.8218723525
   29      C      -8.4767165733    -1.2125815835    -0.0452040206
   30      H      -6.8862642089    -1.2162209049    -2.2069341222
   31      H      -4.5031195481    -0.9710649951    -2.2845299055
   32      H      -4.5129415145    -1.1745135527     2.0319187752
   33      H      -2.5848352381    -2.2671616452    -1.9202542135
   34      H       3.4782805766    -1.9737026374    -4.5116670382
   35      H       5.2855003639    -2.1904507161    -2.5830942729
   36      H       6.7379744988    -4.0587013512     2.9520685478
   37      H       8.4282437219    -4.1982524551     0.7441044532
   38      H      -8.7604637599    -0.1790590040     0.1872515921
   39      C      -9.1390021024    -2.1294821358     0.9971746318
   40      H      -8.8617288719    -1.4069629291    -1.0537477343
   41      H      -8.6670368430    -1.9891678974     1.9773999673
   42      H      -8.9155394208    -3.1726901955     0.7404503165
   43      C     -10.6493486504    -1.8849835387     1.0493161792
   44      H     -10.8884320714    -0.8654833754     1.3779566134
   45      C     -11.4623990176    -2.9080399842     1.9171471592
   46      H     -10.9704596561    -1.7569922731     0.0084843206
   47      H     -12.3630281873    -2.3783214524     2.2522044316
   48      H     -10.9462501623    -3.2731073974     2.8144376043
   49      C     -11.7084005001    -4.2519029904     1.2396093440
   50      H     -10.7192900816    -4.7082338414     1.1084425247
   51      C     -12.5482767994    -4.1781311324    -0.1317037183
   52      H     -12.2451139919    -4.8463535113     1.9903724265
   53      H     -12.4100685920    -5.0932263479    -0.7204322110
   54      H     -12.1190925102    -3.4512111197    -0.8329662520
   55      H     -13.6178984118    -3.9567660113    -0.0329105533
   56      C       6.6602349400     0.0919819181     1.1585293206
   57      C       6.3946225998     0.2255564791    -0.1920342364
   58      N       5.7507310684     0.4545670109     2.1074543746
   59      C       5.1480576272     0.7841627824    -0.5915536562
   60      C       4.5521035343     0.9718968728     1.6983298846
   61      C       4.1924383723     1.1805861812     0.3720117690
   62      C       2.8145329428     1.7822990175     0.0225274489
   63      C       2.1312488980     1.4620754401    -1.1279271458
   64      C       2.0742250176     2.7000546003     0.8918443452
   65      N       0.8359838569     1.7496924950    -1.4152229917
   66      N       2.5427899228     3.2110045897     2.0537935859
   67      C       0.7322815496     2.9651676708     0.5961404584
   68      C       0.1062762704     2.3945429904    -0.5032511299
   69      S       1.3474685870     4.1541797614     2.6109412321
   70      N       0.2336365612     3.9109310666     1.4189859935
   71      C      -1.3302474224     2.5535197454    -0.8059309467
   72      S      -2.5149015583     2.8767002931     0.4329951656
   73      C      -1.9229745724     2.2930112723    -2.0506858869
   74      C      -3.8057653739     2.6789712610    -0.7619106213
   75      S      -1.2154067902     1.7310069349    -3.5833632692
   76      C      -3.2879913048     2.3481168295    -2.0270490954
   77      C      -5.2355630927     2.8328749146    -0.5486311132
   78      C      -2.8315526726     1.8016101818    -4.2645810524
   79      C      -3.8327536520     2.1518626008    -3.3427953714
   80      N      -6.0440881293     2.2094269045    -1.3720403941
   81      S      -5.7547896679     3.1523924543     1.0351221205
   82      C      -7.2762392876     2.4328806757    -0.8848546645
   83      C      -7.3633427766     2.9364695573     0.3950032263
   84      C       7.8801329384    -0.5978351969     1.6733596046
   85      H       7.1290939676    -0.0761874896    -0.9329353008
   86      H       4.8371944895     0.8511064284    -1.6293574228
   87      H       3.8408903207     1.1286935753     2.5082407186
   88      H       2.5921830602     0.7734375588    -1.8337497628
   89      H      -2.8315360538     1.5162070148    -5.3085896884
   90      H      -4.8473358931     2.1736606759    -3.7235547704
   91      H      -8.1799258489     2.1101474217    -1.3849175063
   92      H      -8.2286075696     3.2513978110     0.9616107034
   93      H       7.7991235925    -1.2609255520     2.5439029217
   94      C       8.9879998751     0.4456076268     1.9948248813
   95      H       8.2707365562    -1.2125351853     0.8527685140
   96      H       9.8304128604    -0.0937337508     2.4471082445
   97      H       8.7013578583     1.2159412482     2.7225119472
   98      C       9.5614668520     1.2162560660     0.8170003571
   99      H       8.7360906194     1.3727947638     0.1108334429
  100      C      10.6614627470     0.4232251971     0.0494346779
  101      H       9.8344207083     2.2057359313     1.2027862933
  102      H      10.4374839305    -0.6495667605     0.0193530301
  103      H      11.6001744250     0.4622513645     0.6170070026
  104      C      10.9083449746     0.9027302078    -1.3469485469
  105      H      10.0329883223     0.7195860904    -1.9823232109
  106      C      12.1391452249     0.2457927005    -2.0072816865
  107      H      11.0470878913     1.9884761654    -1.4178225095
  108      H      11.9584327465    -0.8359287013    -2.0312568611
  109      H      13.0329553239     0.4526764309    -1.4058761420
  110      H      12.2868009048     0.5850713625    -3.0402757764
 ----------------------------------------------------------------

   10   -5663.5026660727      6.37E-06 Convergence criterion met
 Total energy in the final basis set = -5663.5026660727

                    Orbital Energies (a.u.)
 --------------------------------------------------------------

 Alpha MOs
 -- Occupied --
-88.988 -88.985 -88.930 -88.928 -88.923 -88.921 -88.913 -88.906
-14.389 -14.382 -14.380 -14.379 -14.347 -14.346 -14.342 -14.336
-14.322 -14.321 -10.262 -10.260 -10.259 -10.257 -10.255 -10.253
-10.252 -10.250 -10.239 -10.238 -10.235 -10.233 -10.233 -10.232
-10.230 -10.229 -10.229 -10.228 -10.227 -10.226 -10.226 -10.225
-10.224 -10.224 -10.221 -10.220 -10.217 -10.216 -10.213 -10.212
-10.210 -10.208 -10.208 -10.203 -10.202 -10.202 -10.197 -10.190
-10.182 -10.179 -10.179 -10.177 -10.176 -10.176 -10.175 -10.174
-10.173 -10.173 -10.173 -10.172  -8.044  -8.041  -7.988  -7.988
 -7.986  -7.979  -7.972  -7.965  -6.009  -6.006  -6.003  -6.002
 -6.000  -5.998  -5.953  -5.952  -5.949  -5.949  -5.949  -5.946
 -5.945  -5.945  -5.943  -5.943  -5.939  -5.936  -5.935  -5.933
 -5.930  -5.928  -5.926  -5.922  -1.039  -1.035  -0.987  -0.973
 -0.958  -0.953  -0.950  -0.924  -0.910  -0.909  -0.899  -0.897
 -0.844  -0.841  -0.831  -0.824  -0.815  -0.811  -0.808  -0.807
 -0.803  -0.802  -0.800  -0.790  -0.783  -0.779  -0.766  -0.765
 -0.748  -0.746  -0.740  -0.739  -0.726  -0.721  -0.706  -0.704
 -0.691  -0.690  -0.670  -0.670  -0.658  -0.655  -0.642  -0.640
 -0.639  -0.634  -0.626  -0.623  -0.613  -0.607  -0.604  -0.594
 -0.592  -0.590  -0.584  -0.581  -0.578  -0.577  -0.561  -0.554
 -0.546  -0.542  -0.539  -0.539  -0.524  -0.521  -0.520  -0.510
 -0.509  -0.503  -0.500  -0.496  -0.481  -0.480  -0.476  -0.471
 -0.469  -0.466  -0.465  -0.463  -0.459  -0.455  -0.447  -0.447
 -0.444  -0.443  -0.441  -0.439  -0.433  -0.432  -0.431  -0.429
 -0.428  -0.424  -0.421  -0.419  -0.416  -0.414  -0.414  -0.412
 -0.408  -0.406  -0.402  -0.402  -0.401  -0.396  -0.394  -0.392
 -0.392  -0.390  -0.389  -0.387  -0.386  -0.384  -0.381  -0.379
 -0.379  -0.375  -0.373  -0.372  -0.366  -0.360  -0.357  -0.355
 -0.355  -0.353  -0.351  -0.347  -0.347  -0.344  -0.341  -0.338
 -0.336  -0.335  -0.331  -0.329  -0.327  -0.327  -0.317  -0.316
 -0.312  -0.310  -0.308  -0.307  -0.307  -0.305  -0.301  -0.298
 -0.298  -0.295  -0.291  -0.291  -0.287  -0.285  -0.282  -0.277
 -0.274  -0.271  -0.267  -0.260  -0.253  -0.252  -0.248  -0.245
 -0.243  -0.240  -0.232  -0.230  -0.193  -0.188

          Ground-State Mulliken Net Atomic Charges

     Atom                 Charge (a.u.)
  ----------------------------------------
      1 C                     0.299545
      2 C                    -0.111070
      3 N                    -0.491049
      4 C                    -0.091310
      5 C                     0.072854
      6 C                     0.051983
      7 C                     0.059563
      8 C                     0.047011
      9 C                     0.229172
     10 N                    -0.532080
     11 N                    -0.544322
     12 C                     0.181015
     13 C                     0.310146
     14 S                     0.605877
     15 N                    -0.563366
     16 C                    -0.197433
     17 S                     0.355501
     18 C                    -0.145974
     19 C                    -0.241832
     20 S                     0.298763
     21 C                     0.184153
     22 C                     0.085667
     23 C                    -0.317730
     24 C                    -0.085103
     25 N                    -0.429662
     26 S                     0.255934
     27 C                     0.120537
     28 C                    -0.319537
     29 C                    -0.237688
     30 H                     0.084206
     31 H                     0.117099
     32 H                     0.113993
     33 H                     0.110542
     34 H                     0.128263
     35 H                     0.115460
     36 H                     0.116313
     37 H                     0.134592
     38 H                     0.112274
     39 C                    -0.167975
     40 H                     0.086665
     41 H                     0.121703
     42 H                     0.090688
     43 C                    -0.177416
     44 H                     0.082634
     45 C                    -0.176802
     46 H                     0.088315
     47 H                     0.086141
     48 H                     0.093076
     49 C                    -0.172355
     50 H                     0.098518
     51 C                    -0.327024
     52 H                     0.092630
     53 H                     0.098885
     54 H                     0.102296
     55 H                     0.105219
     56 C                     0.297072
     57 C                    -0.129950
     58 N                    -0.497357
     59 C                    -0.092906
     60 C                     0.079500
     61 C                     0.062261
     62 C                     0.065488
     63 C                     0.037976
     64 C                     0.203414
     65 N                    -0.533031
     66 N                    -0.541422
     67 C                     0.210118
     68 C                     0.310428
     69 S                     0.598038
     70 N                    -0.563987
     71 C                    -0.233704
     72 S                     0.348459
     73 C                    -0.113766
     74 C                    -0.255978
     75 S                     0.287585
     76 C                     0.160690
     77 C                     0.065075
     78 C                    -0.311000
     79 C                    -0.069019
     80 N                    -0.415914
     81 S                     0.284815
     82 C                     0.128917
     83 C                    -0.309764
     84 C                    -0.211231
     85 H                     0.096258
     86 H                     0.099070
     87 H                     0.120142
     88 H                     0.114048
     89 H                     0.131952
     90 H                     0.119885
     91 H                     0.105045
     92 H                     0.133707
     93 H                     0.119818
     94 C                    -0.191566
     95 H                     0.094110
     96 H                     0.083781
     97 H                     0.104131
     98 C                    -0.179841
     99 H                     0.089604
    100 C                    -0.164347
    101 H                     0.094296
    102 H                     0.086299
    103 H                     0.090117
    104 C                    -0.177667
    105 H                     0.086227
    106 C                    -0.318326
    107 H                     0.094791
    108 H                     0.096650
    109 H                     0.104130
    110 H                     0.099377
  ----------------------------------------
  Sum of atomic charges =     0.000000

                    Cartesian Multipole Moments
 -----------------------------------------------------------------
    Charge (ESU x 10^10)
                 0.0000
    Dipole Moment (Debye)
         X      -0.1177      Y       0.0614      Z      -2.6140
       Tot       2.6174
    Quadrupole Moments (Debye-Ang)
        XX    -398.7990     XY     -20.2518     YY    -450.1438
        XZ      -5.0730     YZ       8.7118     ZZ    -430.9051

 Total job time:  127.27s(wall), 1384.46s(cpu)
        *  Thank you very much for using Q-Chem.  Have a nice day.  *
