 Q-Chem 4.4, Q-Chem, Inc., Pleasanton, CA (2016)
 Q-Chem 4.4.2 for Intel X86 Linux

User input:
--------------------------------------------------------------
$comment
SP
$end

$rem
MEM_STATIC 5000
MEM_TOTAL 20000
JOBTYPE SP
EXCHANGE B3LYP
BASIS 6-31g(d,p)
$end

$molecule
0 1
C         -10.221000    -20.019000     10.752000
C         -11.272000    -19.565000     10.021000
N          -8.999000    -20.253000     10.193000
C         -11.171000    -19.631000      8.621000
C          -8.799000    -20.148000      8.884000
C          -9.901000    -19.839000      8.001000
C          -9.791000    -19.774000      6.507000
C          -8.692000    -19.171000      5.925000
C         -10.815000    -20.182000      5.613000
N          -8.405000    -19.099000      4.605000
N         -11.982000    -20.703000      6.046000
C         -10.558000    -20.153000      4.262000
C          -9.375000    -19.617000      3.744000
S         -12.668000    -21.249000      4.631000
N         -11.537000    -20.713000      3.554000
C          -9.084000    -19.680000      2.280000
S          -9.948000    -20.682000      1.096000
C          -7.969000    -19.107000      1.680000
C          -8.715000    -20.348000     -0.132000
S          -6.875000    -17.888000      2.288000
C          -7.768000    -19.461000      0.314000
C          -8.488000    -21.133000     -1.338000
C          -6.144000    -17.906000      0.635000
C          -6.687000    -18.794000     -0.266000
N          -9.435000    -22.048000     -1.574000
S          -6.960000    -21.334000     -2.182000
C          -8.979000    -22.948000     -2.485000
C          -7.645000    -22.752000     -2.889000
C         -10.257000    -20.138000     12.219000
H         -12.272000    -19.408000     10.412000
H         -12.054000    -19.343000      8.058000
H          -7.764000    -20.317000      8.592000
H          -7.893000    -18.752000      6.535000
H          -5.287000    -17.292000      0.396000
H          -6.342000    -18.903000     -1.288000
H          -9.586000    -23.777000     -2.823000
H          -7.008000    -23.385000     -3.493000
H          -9.251000    -20.016000     12.640000
C         -10.825000    -21.465000     12.632000
H         -10.878000    -19.379000     12.711000
H         -10.186000    -22.262000     12.233000
H         -11.711000    -21.749000     12.050000
C         -11.096000    -21.572000     14.162000
H         -11.448000    -22.565000     14.470000
C         -12.069000    -20.497000     14.700000
H         -10.130000    -21.457000     14.670000
H         -12.858000    -20.366000     13.949000
H         -11.469000    -19.581000     14.763000
C         -12.813000    -20.798000     15.961000
H         -13.487000    -21.659000     15.867000
C         -13.695000    -19.655000     16.483000
H         -12.088000    -21.022000     16.753000
H         -13.088000    -18.742000     16.505000
H         -14.152000    -19.946000     17.437000
H         -14.470000    -19.471000     15.729000
C           2.552000    -19.423000      0.911000
C           1.615000    -19.367000      1.903000
N           2.292000    -20.010000     -0.274000
C           0.356000    -20.027000      1.772000
C           1.119000    -20.647000     -0.442000
C           0.127000    -20.790000      0.559000
C          -1.119000    -21.663000      0.426000
C          -1.605000    -21.781000     -0.928000
C          -1.774000    -22.445000      1.425000
N          -2.690000    -22.546000     -1.296000
N          -1.449000    -22.446000      2.737000
C          -2.752000    -23.271000      1.047000
C          -3.232000    -23.320000     -0.304000
S          -2.524000    -23.585000      3.354000
N          -3.238000    -24.069000      1.963000
C          -4.539000    -23.977000     -0.688000
S          -5.912000    -24.214000      0.427000
C          -4.799000    -24.658000     -1.851000
C          -6.764000    -25.270000     -0.721000
S          -3.693000    -25.021000     -3.115000
C          -5.997000    -25.329000     -1.880000
C          -8.061000    -25.851000     -0.404000
C          -4.928000    -26.001000     -3.868000
C          -6.131000    -26.039000     -3.093000
N          -8.822000    -26.186000     -1.383000
S          -8.635000    -25.902000      1.234000
C          -9.936000    -26.668000     -0.786000
C          -9.882000    -26.891000      0.540000
C           3.973000    -18.827000      1.046000
H           1.844000    -18.807000      2.805000
H          -0.336000    -19.917000      2.602000
H           0.904000    -21.108000     -1.405000
H          -1.137000    -21.222000     -1.737000
H          -4.586000    -26.563000     -4.728000
H          -6.993000    -26.659000     -3.311000
H         -10.790000    -26.726000     -1.448000
H         -10.625000    -27.292000      1.216000
H           4.116000    -18.583000      2.106000
C           4.462000    -17.774000      0.089000
H           4.488000    -19.787000      0.922000
H           3.808000    -16.896000      0.161000
H           4.343000    -18.123000     -0.944000
C           5.879000    -17.374000      0.321000
H           6.005000    -17.236000      1.402000
C           6.327000    -16.045000     -0.486000
H           6.540000    -18.195000      0.018000
H           5.503000    -15.327000     -0.391000
H           6.367000    -16.277000     -1.558000
C           7.716000    -15.512000      0.065000
H           7.675000    -15.414000      1.157000
C           8.136000    -14.252000     -0.730000
H           8.459000    -16.272000     -0.207000
H           7.336000    -13.529000     -0.533000
H           8.176000    -14.473000     -1.804000
H           9.095000    -13.794000     -0.458000
$end

--------------------------------------------------------------

             Standard Nuclear Orientation (Angstroms)
    I     Atom           X                Y                Z
 ----------------------------------------------------------------
    1      C      -8.4589454921     3.9002176691     0.4944302917
    2      C      -8.7915898989     3.1107000086    -0.5596510915
    3      N      -7.1696610419     4.0334878510     0.9192898745
    4      C      -7.8314589833     2.1918487615    -1.0161793060
    5      C      -6.1833342852     3.3180687083     0.3902898942
    6      C      -6.4654018162     2.3230669404    -0.6196523763
    7      C      -5.4334780710     1.4160596630    -1.2203454617
    8      C      -4.1901807960     1.9177352966    -1.5560051770
    9      C      -5.6779285667     0.0707946615    -1.6008478019
   10      N      -3.1309387754     1.2223195058    -2.0296677359
   11      N      -6.8762984862    -0.5218158485    -1.4177049085
   12      C      -4.6240955352    -0.6838426072    -2.0613361668
   13      C      -3.3590077033    -0.1317562586    -2.2846351619
   14      S      -6.5356460942    -2.1142898776    -1.7625518517
   15      N      -4.9575544354    -1.9627523749    -2.2241242749
   16      C      -2.2112644310    -0.9935181661    -2.6993613318
   17      S      -2.1732336724    -2.7673843651    -2.6337231623
   18      C      -0.9454524165    -0.5116349711    -3.0109099319
   19      C      -0.4291484577    -2.7720005166    -2.9467318765
   20      S      -0.4325025987     1.1121567530    -3.4016066443
   21      C       0.0586552420    -1.5099825415    -3.1744426163
   22      C       0.4761195858    -3.8803298904    -2.6741777193
   23      C       1.1770636297     0.3756765352    -3.7676495995
   24      C       1.2894091465    -0.9820701114    -3.5699211778
   25      N      -0.1455487811    -5.0169431091    -2.3404580274
   26      S       2.1836897755    -3.7616651268    -2.2771339925
   27      C       0.7457645504    -5.8711181083    -1.7714214594
   28      C       2.0415908296    -5.3464717901    -1.6078106555
   29      C      -9.4187739538     4.7985849770     1.1571606322
   30      H      -9.8060898717     2.9387903106    -0.9042767737
   31      H      -8.1471249066     1.5127852760    -1.8028366695
   32      H      -5.2048050509     3.5678407758     0.7966695835
   33      H      -3.9399390504     2.9626773437    -1.3784180518
   34      H       2.0167767898     0.9873456997    -4.0664951145
   35      H       2.1977265515    -1.5450436141    -3.7527060980
   36      H       0.4552477885    -6.8540992122    -1.4260489642
   37      H       2.8900415526    -5.7591094306    -1.0775884867
   38      H      -8.9011989780     5.6654980937     1.5869731407
   39      C     -10.1743140127     4.0715776607     2.2317496613
   40      H     -10.1788468223     5.2119824696     0.4824920115
   41      H      -9.4606539314     3.7093422137     2.9815534819
   42      H     -10.5039887053     3.0725167273     1.9193911358
   43      C     -11.3553279452     4.8969315646     2.8231776151
   44      H     -11.8635138702     4.3899808567     3.6535781482
   45      C     -12.4037996728     5.3279355084     1.7711602023
   46      H     -10.9239774263     5.7975693768     3.2784064160
   47      H     -12.5344180577     4.4879021929     1.0776431756
   48      H     -11.9413164488     6.1699799753     1.2419198191
   49      C     -13.7889249162     5.6251538336     2.2479697315
   50      H     -14.2868101887     4.7535146333     2.6915780722
   51      C     -14.7540423959     6.1288742569     1.1655322111
   52      H     -13.7375987084     6.4097825942     3.0126842720
   53      H     -14.2603569626     6.9455296447     0.6253001585
   54      H     -15.7226366753     6.3746610679     1.6183676838
   55      H     -14.8697347344     5.3224058377     0.4312155412
   56      C       7.6698179007     4.2467591067     0.7992686942
   57      C       6.3201025810     4.4551750290     0.7986693100
   58      N       8.1931182955     3.0064316116     0.7349382846
   59      C       5.4011816264     3.3636876773     0.8442943036
   60      C       7.3650884651     1.9469842553     0.7780648312
   61      C       5.9588771546     2.0266012394     0.9288789093
   62      C       5.0424580285     0.8266476264     1.1582722652
   63      C       5.5170755364    -0.3928396926     0.5491541321
   64      C       3.8718525110     0.7376614195     1.9708694454
   65      N       4.8782341119    -1.6088801329     0.6540411284
   66      N       3.2942456561     1.7821993795     2.6051255225
   67      C       3.3196129845    -0.4623300543     2.1624313627
   68      C       3.7998363749    -1.6398270421     1.4984371314
   69      S       2.0252025457     1.0298285738     3.4157442704
   70      N       2.3315871154    -0.5279440064     3.0177416522
   71      C       3.0037692847    -2.9236498548     1.4247474214
   72      S       1.2267611555    -3.0151246139     1.5603847213
   73      C       3.5092735580    -4.1995166925     1.4483957205
   74      C       1.2490927354    -4.7875850053     1.6901131357
   75      S       5.1489489492    -4.6664399659     1.6632172004
   76      C       2.5726494116    -5.1971549767     1.5656094666
   77      C       0.0209315561    -5.5570395465     1.8308924896
   78      C       4.6284059743    -6.3323278189     1.7437570817
   79      C       3.2060626844    -6.4567790319     1.6401739701
   80      N       0.0367595974    -6.7840812362     1.4515441475
   81      S      -1.4605085385    -4.7862693278     2.3066755454
   82      C      -1.2226132717    -7.2188111993     1.6854647235
   83      C      -2.0279950901    -6.4237364547     2.4135699886
   84      C       8.7089350707     5.3904952608     0.8684432323
   85      H       5.9505278432     5.4758705934     0.7634545674
   86      H       4.3456857068     3.6193921655     0.8241057339
   87      H       7.7881464944     0.9456722987     0.7108988468
   88      H       6.4136546146    -0.3927629382    -0.0690140899
   89      H       5.4132649487    -7.0307041378     2.0058160593
   90      H       2.6510223981    -7.3797159971     1.7629975797
   91      H      -1.4676068425    -8.1339953334     1.1626452987
   92      H      -3.0468108936    -6.5704873806     2.7456912382
   93      H       8.1598691679     6.3034169969     1.1305224916
   94      C       9.7357544620     5.5665576264    -0.2171086923
   95      H       9.1460971262     5.0608213536     1.8183934689
   96      H       9.2204811977     5.7457532012    -1.1690364255
   97      H      10.2819830259     4.6279714969    -0.3711912461
   98      C      10.7023601577     6.6682972318     0.0541039015
   99      H      10.1224763598     7.5298047603     0.4076863663
  100      C      11.6140922729     7.0709477536    -1.2205768849
  101      H      11.3713872607     6.3687811693     0.8698635866
  102      H      10.9460907584     7.0920722168    -2.0905497200
  103      H      12.3128656519     6.2510643420    -1.4306124919
  104      C      12.3629524378     8.4425280412    -0.9467394001
  105      H      11.6452159755     9.2036372402    -0.6161094591
  106      C      13.2425735239     8.8018366315    -2.1687005622
  107      H      13.0783779492     8.2387485686    -0.1403441718
  108      H      12.5288965543     8.9062265527    -2.9941131424
  109      H      13.9430664054     7.9864960737    -2.3888062133
  110      H      13.8318494665     9.7244439690    -2.0981416204
 ----------------------------------------------------------------

   10   -5663.4902715189      6.14E-06 Convergence criterion met
 Total energy in the final basis set = -5663.4902715189

                    Orbital Energies (a.u.)
 --------------------------------------------------------------

 Alpha MOs
 -- Occupied --
-88.990 -88.986 -88.927 -88.925 -88.925 -88.920 -88.914 -88.912
-14.393 -14.390 -14.387 -14.383 -14.358 -14.350 -14.345 -14.338
-14.331 -14.322 -10.270 -10.270 -10.263 -10.260 -10.258 -10.255
-10.250 -10.249 -10.246 -10.245 -10.242 -10.237 -10.236 -10.236
-10.235 -10.232 -10.231 -10.229 -10.228 -10.228 -10.228 -10.228
-10.227 -10.226 -10.225 -10.222 -10.221 -10.220 -10.217 -10.217
-10.215 -10.209 -10.207 -10.205 -10.203 -10.202 -10.197 -10.191
-10.186 -10.184 -10.184 -10.179 -10.178 -10.178 -10.176 -10.176
-10.175 -10.175 -10.173 -10.173  -8.046  -8.041  -7.989  -7.985
 -7.984  -7.978  -7.974  -7.973  -6.011  -6.006  -6.006  -6.004
 -6.000  -5.998  -5.953  -5.950  -5.949  -5.948  -5.946  -5.946
 -5.944  -5.943  -5.943  -5.941  -5.939  -5.938  -5.937  -5.935
 -5.934  -5.934  -5.930  -5.929  -1.050  -1.036  -0.997  -0.961
 -0.950  -0.945  -0.939  -0.935  -0.920  -0.914  -0.909  -0.904
 -0.848  -0.838  -0.830  -0.826  -0.822  -0.813  -0.810  -0.805
 -0.803  -0.802  -0.794  -0.793  -0.789  -0.782  -0.768  -0.766
 -0.755  -0.744  -0.744  -0.739  -0.726  -0.719  -0.710  -0.707
 -0.691  -0.691  -0.676  -0.671  -0.657  -0.655  -0.647  -0.640
 -0.638  -0.633  -0.625  -0.620  -0.613  -0.605  -0.598  -0.597
 -0.596  -0.590  -0.590  -0.587  -0.579  -0.576  -0.575  -0.563
 -0.560  -0.537  -0.536  -0.535  -0.532  -0.523  -0.520  -0.511
 -0.506  -0.505  -0.498  -0.496  -0.489  -0.485  -0.481  -0.476
 -0.473  -0.471  -0.469  -0.468  -0.465  -0.459  -0.452  -0.446
 -0.445  -0.445  -0.442  -0.437  -0.435  -0.434  -0.432  -0.427
 -0.425  -0.424  -0.423  -0.420  -0.419  -0.414  -0.413  -0.413
 -0.411  -0.407  -0.406  -0.402  -0.400  -0.400  -0.397  -0.395
 -0.394  -0.393  -0.389  -0.388  -0.385  -0.384  -0.384  -0.383
 -0.379  -0.377  -0.375  -0.370  -0.364  -0.361  -0.360  -0.358
 -0.356  -0.354  -0.352  -0.347  -0.347  -0.346  -0.344  -0.340
 -0.339  -0.338  -0.338  -0.330  -0.328  -0.326  -0.323  -0.322
 -0.319  -0.318  -0.312  -0.311  -0.310  -0.304  -0.303  -0.302
 -0.301  -0.300  -0.295  -0.291  -0.289  -0.287  -0.282  -0.279
 -0.277  -0.277  -0.269  -0.268  -0.258  -0.254  -0.248  -0.245
 -0.244  -0.240  -0.233  -0.228  -0.195  -0.187

          Ground-State Mulliken Net Atomic Charges

     Atom                 Charge (a.u.)
  ----------------------------------------
      1 C                     0.268835
      2 C                    -0.114826
      3 N                    -0.475817
      4 C                    -0.057711
      5 C                     0.078401
      6 C                     0.003289
      7 C                     0.051368
      8 C                     0.046425
      9 C                     0.218632
     10 N                    -0.523365
     11 N                    -0.570242
     12 C                     0.255791
     13 C                     0.290896
     14 S                     0.587830
     15 N                    -0.573646
     16 C                    -0.233490
     17 S                     0.363376
     18 C                    -0.120454
     19 C                    -0.229078
     20 S                     0.289884
     21 C                     0.147409
     22 C                     0.042272
     23 C                    -0.314567
     24 C                    -0.069201
     25 N                    -0.430334
     26 S                     0.301418
     27 C                     0.125201
     28 C                    -0.323325
     29 C                    -0.216730
     30 H                     0.090875
     31 H                     0.112134
     32 H                     0.105884
     33 H                     0.108615
     34 H                     0.121047
     35 H                     0.123825
     36 H                     0.119031
     37 H                     0.146780
     38 H                     0.115392
     39 C                    -0.186736
     40 H                     0.102888
     41 H                     0.101731
     42 H                     0.090052
     43 C                    -0.185789
     44 H                     0.088855
     45 C                    -0.161334
     46 H                     0.093865
     47 H                     0.087488
     48 H                     0.095135
     49 C                    -0.183929
     50 H                     0.092602
     51 C                    -0.312932
     52 H                     0.089876
     53 H                     0.101833
     54 H                     0.103354
     55 H                     0.098833
     56 C                     0.261973
     57 C                    -0.121278
     58 N                    -0.492105
     59 C                    -0.072030
     60 C                     0.087420
     61 C                     0.018082
     62 C                     0.018258
     63 C                     0.048032
     64 C                     0.278923
     65 N                    -0.484758
     66 N                    -0.570550
     67 C                     0.205139
     68 C                     0.240672
     69 S                     0.590527
     70 N                    -0.532336
     71 C                    -0.192689
     72 S                     0.313276
     73 C                    -0.121145
     74 C                    -0.244364
     75 S                     0.277016
     76 C                     0.184540
     77 C                     0.089632
     78 C                    -0.308529
     79 C                    -0.094948
     80 N                    -0.423064
     81 S                     0.279331
     82 C                     0.118606
     83 C                    -0.298748
     84 C                    -0.215045
     85 H                     0.087665
     86 H                     0.118269
     87 H                     0.096977
     88 H                     0.120127
     89 H                     0.138717
     90 H                     0.120332
     91 H                     0.108674
     92 H                     0.130087
     93 H                     0.086834
     94 C                    -0.165431
     95 H                     0.122297
     96 H                     0.089542
     97 H                     0.115137
     98 C                    -0.177930
     99 H                     0.086391
    100 C                    -0.184355
    101 H                     0.096212
    102 H                     0.090789
    103 H                     0.095377
    104 C                    -0.177408
    105 H                     0.097419
    106 C                    -0.316347
    107 H                     0.098018
    108 H                     0.102590
    109 H                     0.104233
    110 H                     0.098338
  ----------------------------------------
  Sum of atomic charges =     0.000000

                    Cartesian Multipole Moments
 -----------------------------------------------------------------
    Charge (ESU x 10^10)
                 0.0000
    Dipole Moment (Debye)
         X      -0.8200      Y      -0.9599      Z       1.3091
       Tot       1.8187
    Quadrupole Moments (Debye-Ang)
        XX    -423.0117     XY       8.6093     YY    -423.1826
        XZ      -4.0213     YZ     -12.0071     ZZ    -452.4826

 Total job time:  97.02s(wall), 1064.52s(cpu)
        *  Thank you very much for using Q-Chem.  Have a nice day.  *
