 Q-Chem 4.4, Q-Chem, Inc., Pleasanton, CA (2016)
 Q-Chem 4.4.2 for Intel X86 Linux

User input:
--------------------------------------------------------------
$comment
SP
$end

$rem
MEM_STATIC 5000
MEM_TOTAL 20000
JOBTYPE SP
EXCHANGE B3LYP
BASIS 6-31g(d,p)
$end

$molecule
0 1
C           4.850000    -21.850000     -3.099000
C           5.830000    -22.670000     -3.652000
N           5.170000    -20.845000     -2.298000
C           7.194000    -22.318000     -3.558000
C           6.445000    -20.486000     -2.100000
C           7.504000    -21.204000     -2.748000
C           8.940000    -20.829000     -2.614000
C           9.884000    -21.829000     -2.219000
C           9.533000    -19.535000     -2.849000
N          11.178000    -21.602000     -1.970000
N           8.803000    -18.488000     -3.153000
C          10.834000    -19.313000     -2.659000
C          11.688000    -20.373000     -2.217000
S           9.896000    -17.201000     -3.175000
N          11.281000    -17.988000     -2.810000
C          13.138000    -20.191000     -2.000000
S          13.932000    -20.921000     -0.587000
C          14.054000    -19.509000     -2.697000
C          15.567000    -20.247000     -1.106000
S          13.762000    -19.000000     -4.309000
C          15.395000    -19.596000     -2.292000
C          16.858000    -20.589000     -0.569000
C          15.515000    -18.657000     -4.388000
C          16.246000    -19.154000     -3.337000
N          17.004000    -21.767000      0.005000
S          18.140000    -19.397000     -0.170000
C          18.302000    -21.880000      0.414000
C          19.050000    -20.717000      0.393000
C           3.381000    -22.113000     -3.171000
H           5.508000    -23.480000     -4.300000
H           7.975000    -22.823000     -4.119000
H           6.639000    -19.647000     -1.434000
H           9.546000    -22.862000     -2.284000
H          15.942000    -18.054000     -5.179000
H          17.326000    -19.141000     -3.245000
H          18.691000    -22.867000      0.623000
H          20.044000    -20.328000      0.568000
H           3.272000    -23.017000     -2.559000
C           2.698000    -22.216000     -4.614000
H           2.921000    -21.293000     -2.606000
H           3.008000    -23.015000     -5.299000
H           2.946000    -21.256000     -5.083000
C           1.205000    -22.409000     -4.455000
H           1.143000    -23.318000     -3.844000
C           0.432000    -22.786000     -5.787000
H           0.695000    -21.634000     -3.869000
H           0.910000    -23.600000     -6.345000
H           0.271000    -21.907000     -6.424000
C          -0.968000    -23.229000     -5.421000
H          -0.863000    -24.240000     -5.008000
C          -1.951000    -23.301000     -6.610000
H          -1.398000    -22.597000     -4.635000
H          -1.363000    -23.637000     -7.473000
H          -2.344000    -22.301000     -6.831000
H          -2.780000    -24.011000     -6.499000
C           2.552000    -19.423000      0.911000
C           1.615000    -19.367000      1.903000
N           2.292000    -20.010000     -0.274000
C           0.356000    -20.027000      1.772000
C           1.119000    -20.647000     -0.442000
C           0.127000    -20.790000      0.559000
C          -1.119000    -21.663000      0.426000
C          -1.605000    -21.781000     -0.928000
C          -1.774000    -22.445000      1.425000
N          -2.690000    -22.546000     -1.296000
N          -1.449000    -22.446000      2.737000
C          -2.752000    -23.271000      1.047000
C          -3.232000    -23.320000     -0.304000
S          -2.524000    -23.585000      3.354000
N          -3.238000    -24.069000      1.963000
C          -4.539000    -23.977000     -0.688000
S          -5.912000    -24.214000      0.427000
C          -4.799000    -24.658000     -1.851000
C          -6.764000    -25.270000     -0.721000
S          -3.693000    -25.021000     -3.115000
C          -5.997000    -25.329000     -1.880000
C          -8.061000    -25.851000     -0.404000
C          -4.928000    -26.001000     -3.868000
C          -6.131000    -26.039000     -3.093000
N          -8.822000    -26.186000     -1.383000
S          -8.635000    -25.902000      1.234000
C          -9.936000    -26.668000     -0.786000
C          -9.882000    -26.891000      0.540000
C           3.973000    -18.827000      1.046000
H           1.844000    -18.807000      2.805000
H          -0.336000    -19.917000      2.602000
H           0.904000    -21.108000     -1.405000
H          -1.137000    -21.222000     -1.737000
H          -4.586000    -26.563000     -4.728000
H          -6.993000    -26.659000     -3.311000
H         -10.790000    -26.726000     -1.448000
H         -10.625000    -27.292000      1.216000
H           4.116000    -18.583000      2.106000
C           4.462000    -17.774000      0.089000
H           4.488000    -19.787000      0.922000
H           3.808000    -16.896000      0.161000
H           4.343000    -18.123000     -0.944000
C           5.879000    -17.374000      0.321000
H           6.005000    -17.236000      1.402000
C           6.327000    -16.045000     -0.486000
H           6.540000    -18.195000      0.018000
H           5.503000    -15.327000     -0.391000
H           6.367000    -16.277000     -1.558000
C           7.716000    -15.512000      0.065000
H           7.675000    -15.414000      1.157000
C           8.136000    -14.252000     -0.730000
H           8.459000    -16.272000     -0.207000
H           7.336000    -13.529000     -0.533000
H           8.176000    -14.473000     -1.804000
H           9.095000    -13.794000     -0.458000
$end

--------------------------------------------------------------

             Standard Nuclear Orientation (Angstroms)
    I     Atom           X                Y                Z
 ----------------------------------------------------------------
    1      C      -0.7371273352     1.7712734461    -0.2893828847
    2      C      -1.5066273348     2.6985214019     0.4082488084
    3      N      -1.2569005541     0.6279932565    -0.7098257572
    4      C      -2.9081975668     2.5490332230     0.4888103941
    5      C      -2.5686531195     0.3766800187    -0.6105440183
    6      C      -3.4453492521     1.3481107007    -0.0234875294
    7      C      -4.9201308992     1.1575303767     0.0733382596
    8      C      -5.5583239862     1.3185637792     1.3437471808
    9      C      -5.8324401102     0.8259623274    -0.9939314028
   10      N      -6.8523524604     1.0823741581     1.5838945748
   11      N      -5.4079561401     0.5772334826    -2.2102670148
   12      C      -7.1351473436     0.6450570500    -0.7743587621
   13      C      -7.6687090323     0.7850677793     0.5462429644
   14      S      -6.7900678745     0.0928836784    -3.0509063077
   15      N      -7.9097095836     0.2148470930    -1.8666992444
   16      C      -9.1038086004     0.6081550326     0.8493998706
   17      S      -9.6104212991    -0.2691830176     2.3100594885
   18      C     -10.1985162897     0.9848848172     0.1788189699
   19      C     -11.3881387167     0.0012206493     1.9057518829
   20      S     -10.1317968455     2.1727401016    -1.0570763894
   21      C     -11.4502562762     0.7538938227     0.7701438947
   22      C     -12.5200708216    -0.2362492994     2.7626951328
   23      C     -11.9162246422     2.2077562897    -0.9498835495
   24      C     -12.4403130594     1.5440429651     0.1321455415
   25      N     -12.3327311038    -0.2087772023     4.0675419108
   26      S     -14.0381029136    -1.0402299305     2.2404090883
   27      C     -13.5361482263    -0.4345671174     4.6722403013
   28      C     -14.5535924839    -0.8874775850     3.8523663532
   29      C       0.7445938446     1.8540878045    -0.4624670472
   30      H      -1.0259195284     3.6177871779     0.7300537771
   31      H      -3.5654189662     3.3284862400     0.8632700401
   32      H      -2.9320544038    -0.5803093574    -0.9809813823
   33      H      -4.9744377363     1.8174699330     2.1155810340
   34      H     -12.5236291449     2.6706097219    -1.7169855443
   35      H     -13.4820180407     1.5293428101     0.4315910916
   36      H     -13.6514641922    -0.1512244481     5.7093469303
   37      H     -15.6026879613    -1.1507914450     3.8455479546
   38      H       1.1111447632     1.7074025898     0.5611368176
   39      C       1.3527001064     3.1397303817    -1.1950494233
   40      H       1.0123727473     0.9513466951    -1.0251196475
   41      H       1.2180669459     4.1298004057    -0.7418813974
   42      H       0.8454258577     3.1432733180    -2.1675335025
   43      C       2.8523767645     2.9836800405    -1.3299464662
   44      H       3.1747300846     2.8433124036    -0.2907971682
   45      C       3.6226009773     4.2873778322    -1.8000621222
   46      H       3.1809548769     2.0790523207    -1.8570196230
   47      H       3.3362944630     5.1824064507    -1.2349105037
   48      H       3.5218607793     4.4492869095    -2.8807877410
   49      C       5.1067125623     4.0654625041    -1.6041759551
   50      H       5.2828177466     4.1586079055    -0.5252756362
   51      C       6.0105028602     5.0905799387    -2.3235446663
   52      H       5.4048884221     3.0522774914    -1.8985690370
   53      H       5.4807912593     6.0501415109    -2.2781992249
   54      H       6.1257539663     4.8118200339    -3.3782010549
   55      H       6.9966595485     5.2544013378    -1.8715274817
   56      C       1.0861380076    -3.0467869688    -1.1339125336
   57      C       2.0306701438    -4.0191672033    -0.9680670535
   58      N       1.4217054668    -1.7450309682    -1.2299322981
   59      C       3.4065823371    -3.6912980648    -0.7751695046
   60      C       2.7067324909    -1.3887042317    -1.0520030875
   61      C       3.7551352779    -2.2834637791    -0.7252448457
   62      C       5.1721664840    -1.8572840539    -0.3474520418
   63      C       5.5985354389    -0.6308643291    -0.9779599108
   64      C       6.0562465292    -2.4405043776     0.6100481032
   65      N       6.8200932300    -0.0329146467    -0.7585818342
   66      N       5.8132049433    -3.5869650706     1.2834934735
   67      C       7.1892972502    -1.7990102803     0.9038599255
   68      C       7.5926076651    -0.6058420432     0.2170613618
   69      S       7.1726110042    -3.6979641989     2.2700680298
   70      N       7.9096763513    -2.2896586227     1.8797565157
   71      C       9.0005040104    -0.0571622162     0.2813445496
   72      S      10.4468661012    -1.0370666868     0.6451397268
   73      C       9.3609932724     1.2672043744     0.2758105021
   74      C      11.4747832954     0.4022599015     0.8202660076
   75      S       8.3160597998     2.6312186378     0.2925474937
   76      C      10.6862469376     1.5132666139     0.5393291867
   77      C      12.8915947516     0.2929420050     1.1379984345
   78      C       9.7160799524     3.6585724114     0.4852176687
   79      C      10.9296378202     2.9037313920     0.5674997260
   80      N      13.6586385046     1.2640911935     0.7940505683
   81      S      13.5472589520    -1.1823632625     1.7772947851
   82      C      14.8887414522     0.8732416574     1.1987879875
   83      C      14.9643235488    -0.2043455028     2.0012929774
   84      C      -0.4299044753    -3.3385147621    -1.2297878938
   85      H       1.7166224790    -5.0587620604    -0.9842410202
   86      H       4.0920582103    -4.5270118729    -0.6676090181
   87      H       2.9789693157    -0.3382710805    -1.1446977804
   88      H       4.9616621234    -0.1294403786    -1.7052510505
   89      H       9.4812571710     4.7002962532     0.6643201496
   90      H      11.9072237799     3.3180221708     0.7858041971
   91      H      15.6927635014     1.4312806710     0.7371983388
   92      H      15.8198089376    -0.6768400084     2.4646715394
   93      H      -0.5725606897    -4.3827973417    -0.9253078475
   94      C      -1.2197824149    -2.9256440428    -2.4419799618
   95      H      -0.6917067111    -2.7620859980    -0.3345837444
   96      H      -0.8057886873    -3.4283303048    -3.3249860294
   97      H      -1.0723435354    -1.8566414209    -2.6383117505
   98      C      -2.6772413543    -3.2160485978    -2.3271251213
   99      H      -2.7755758910    -4.2325916949    -1.9265612054
  100      C      -3.4891225784    -3.0635328119    -3.7184488842
  101      H      -3.1248365641    -2.5326783558    -1.5953911256
  102      H      -2.8692515355    -3.5263688415    -4.4963098614
  103      H      -3.5269378295    -2.0015606406    -3.9930269497
  104      C      -4.9359290843    -3.6997657026    -3.5807185565
  105      H      -4.8622330424    -4.7194508910    -3.1825226123
  106      C      -5.7026896101    -3.5288516247    -4.9144695355
  107      H      -5.4764771277    -3.0658563903    -2.8668559671
  108      H      -5.1017719671    -4.0831839157    -5.6446419107
  109      H      -5.7433902922    -2.4700371880    -5.1993773155
  110      H      -6.7301695049    -3.9119402269    -4.9454080027
 ----------------------------------------------------------------

    9   -5663.4485184267      9.66E-06 Convergence criterion met
 Total energy in the final basis set = -5663.4485184267

                    Orbital Energies (a.u.)
 --------------------------------------------------------------

 Alpha MOs
 -- Occupied --
-88.990 -88.988 -88.925 -88.921 -88.921 -88.914 -88.906 -88.904
-14.395 -14.391 -14.388 -14.382 -14.356 -14.350 -14.342 -14.341
-14.326 -14.321 -10.268 -10.267 -10.264 -10.264 -10.256 -10.254
-10.253 -10.250 -10.243 -10.243 -10.238 -10.237 -10.233 -10.233
-10.231 -10.229 -10.229 -10.228 -10.228 -10.227 -10.226 -10.226
-10.225 -10.224 -10.224 -10.223 -10.221 -10.221 -10.218 -10.215
-10.214 -10.213 -10.205 -10.204 -10.201 -10.200 -10.197 -10.193
-10.184 -10.183 -10.182 -10.180 -10.179 -10.178 -10.177 -10.176
-10.174 -10.170 -10.169 -10.168  -8.045  -8.044  -7.988  -7.983
 -7.981  -7.972  -7.968  -7.966  -6.010  -6.009  -6.004  -6.004
 -6.003  -6.001  -5.951  -5.949  -5.947  -5.945  -5.944  -5.944
 -5.941  -5.940  -5.937  -5.937  -5.933  -5.932  -5.930  -5.929
 -5.928  -5.927  -5.924  -5.921  -1.048  -1.036  -0.994  -0.970
 -0.956  -0.947  -0.940  -0.935  -0.916  -0.914  -0.911  -0.903
 -0.843  -0.836  -0.827  -0.826  -0.819  -0.813  -0.812  -0.807
 -0.803  -0.800  -0.796  -0.790  -0.783  -0.779  -0.764  -0.763
 -0.752  -0.745  -0.742  -0.740  -0.722  -0.716  -0.705  -0.704
 -0.688  -0.687  -0.673  -0.671  -0.658  -0.654  -0.644  -0.641
 -0.636  -0.636  -0.628  -0.622  -0.610  -0.604  -0.595  -0.595
 -0.593  -0.591  -0.586  -0.581  -0.578  -0.576  -0.572  -0.569
 -0.556  -0.548  -0.544  -0.533  -0.529  -0.525  -0.520  -0.518
 -0.503  -0.502  -0.499  -0.494  -0.486  -0.483  -0.478  -0.476
 -0.473  -0.470  -0.467  -0.466  -0.461  -0.456  -0.449  -0.445
 -0.444  -0.442  -0.442  -0.436  -0.431  -0.431  -0.430  -0.426
 -0.424  -0.423  -0.420  -0.419  -0.418  -0.416  -0.411  -0.409
 -0.408  -0.404  -0.403  -0.402  -0.399  -0.398  -0.397  -0.395
 -0.392  -0.391  -0.390  -0.389  -0.385  -0.384  -0.381  -0.378
 -0.377  -0.372  -0.372  -0.369  -0.363  -0.362  -0.358  -0.357
 -0.355  -0.354  -0.352  -0.351  -0.345  -0.341  -0.341  -0.337
 -0.336  -0.336  -0.334  -0.325  -0.325  -0.322  -0.321  -0.319
 -0.318  -0.317  -0.315  -0.307  -0.306  -0.305  -0.302  -0.302
 -0.301  -0.298  -0.297  -0.294  -0.287  -0.284  -0.284  -0.278
 -0.273  -0.273  -0.265  -0.261  -0.253  -0.251  -0.249  -0.242
 -0.239  -0.237  -0.229  -0.229  -0.194  -0.190

          Ground-State Mulliken Net Atomic Charges

     Atom                 Charge (a.u.)
  ----------------------------------------
      1 C                     0.286950
      2 C                    -0.121015
      3 N                    -0.478026
      4 C                    -0.071045
      5 C                     0.111572
      6 C                     0.012622
      7 C                    -0.002799
      8 C                     0.068292
      9 C                     0.285221
     10 N                    -0.490548
     11 N                    -0.567992
     12 C                     0.175881
     13 C                     0.240287
     14 S                     0.602849
     15 N                    -0.518305
     16 C                    -0.199194
     17 S                     0.314935
     18 C                    -0.104997
     19 C                    -0.240861
     20 S                     0.251182
     21 C                     0.170324
     22 C                     0.024776
     23 C                    -0.294047
     24 C                    -0.070278
     25 N                    -0.398373
     26 S                     0.263314
     27 C                     0.115557
     28 C                    -0.307606
     29 C                    -0.264847
     30 H                     0.086871
     31 H                     0.109320
     32 H                     0.112039
     33 H                     0.109407
     34 H                     0.124396
     35 H                     0.110528
     36 H                     0.112708
     37 H                     0.145029
     38 H                     0.108947
     39 C                    -0.182835
     40 H                     0.160601
     41 H                     0.090840
     42 H                     0.103651
     43 C                    -0.179690
     44 H                     0.096032
     45 C                    -0.181863
     46 H                     0.093936
     47 H                     0.091455
     48 H                     0.093953
     49 C                    -0.175544
     50 H                     0.091404
     51 C                    -0.325609
     52 H                     0.106936
     53 H                     0.095413
     54 H                     0.105387
     55 H                     0.102038
     56 C                     0.260762
     57 C                    -0.123809
     58 N                    -0.485965
     59 C                    -0.070931
     60 C                     0.092952
     61 C                     0.019068
     62 C                     0.018773
     63 C                     0.048047
     64 C                     0.276723
     65 N                    -0.483333
     66 N                    -0.569437
     67 C                     0.204966
     68 C                     0.237136
     69 S                     0.584670
     70 N                    -0.533049
     71 C                    -0.200110
     72 S                     0.298452
     73 C                    -0.116257
     74 C                    -0.250369
     75 S                     0.288000
     76 C                     0.189569
     77 C                     0.085316
     78 C                    -0.315386
     79 C                    -0.079959
     80 N                    -0.414168
     81 S                     0.265346
     82 C                     0.116621
     83 C                    -0.298198
     84 C                    -0.213316
     85 H                     0.086512
     86 H                     0.115069
     87 H                     0.092105
     88 H                     0.119768
     89 H                     0.135836
     90 H                     0.118597
     91 H                     0.108475
     92 H                     0.127931
     93 H                     0.082932
     94 C                    -0.173083
     95 H                     0.128647
     96 H                     0.086147
     97 H                     0.134099
     98 C                    -0.182141
     99 H                     0.085526
    100 C                    -0.187434
    101 H                     0.094974
    102 H                     0.091551
    103 H                     0.101407
    104 C                    -0.181296
    105 H                     0.099170
    106 C                    -0.318174
    107 H                     0.097189
    108 H                     0.104420
    109 H                     0.101283
    110 H                     0.099193
  ----------------------------------------
  Sum of atomic charges =     0.000000

                    Cartesian Multipole Moments
 -----------------------------------------------------------------
    Charge (ESU x 10^10)
                 0.0000
    Dipole Moment (Debye)
         X       0.4095      Y      -0.7129      Z       0.1520
       Tot       0.8361
    Quadrupole Moments (Debye-Ang)
        XX    -350.7366     XY     -14.7936     YY    -422.3189
        XZ      27.3932     YZ      -0.6800     ZZ    -449.3670

 Total job time:  86.14s(wall), 966.37s(cpu)
        *  Thank you very much for using Q-Chem.  Have a nice day.  *
