 Q-Chem 4.4, Q-Chem, Inc., Pleasanton, CA (2016)
 Q-Chem 4.4.2 for Intel X86 Linux

User input:
--------------------------------------------------------------
$comment
SP
$end

$rem
MEM_STATIC 5000
MEM_TOTAL 20000
JOBTYPE SP
EXCHANGE B3LYP
BASIS 6-31g(d,p)
$end

$molecule
0 1
C          -3.804000    -19.633000      2.610000
C          -3.612000    -19.827000      1.235000
N          -3.437000    -18.484000      3.145000
C          -3.099000    -18.769000      0.473000
C          -2.935000    -17.485000      2.426000
C          -2.783000    -17.489000      1.008000
C          -2.206000    -16.345000      0.274000
C          -1.167000    -16.573000     -0.672000
C          -2.579000    -14.994000      0.405000
N          -0.549000    -15.554000     -1.340000
N          -3.457000    -14.532000      1.251000
C          -1.951000    -13.963000     -0.292000
C          -0.841000    -14.259000     -1.147000
S          -3.711000    -12.939000      0.958000
N          -2.470000    -12.734000     -0.003000
C           0.056000    -13.256000     -1.809000
S          -0.007000    -11.479000     -1.647000
C           1.309000    -13.543000     -2.272000
C           1.644000    -11.189000     -1.958000
S           2.046000    -15.056000     -2.505000
C           2.216000    -12.419000     -2.283000
C           2.292000     -9.980000     -1.603000
C           3.617000    -14.197000     -2.581000
C           3.573000    -12.876000     -2.509000
N           3.272000     -9.501000     -2.336000
S           1.976000     -9.125000     -0.052000
C           3.806000     -8.354000     -1.777000
C           3.199000     -7.923000     -0.563000
C          -4.525000    -20.621000      3.574000
H          -3.794000    -20.805000      0.800000
H          -2.985000    -18.975000     -0.587000
H          -2.542000    -16.645000      2.996000
H          -0.850000    -17.570000     -0.975000
H           4.493000    -14.776000     -2.841000
H           4.407000    -12.201000     -2.668000
H           4.536000     -7.898000     -2.432000
H           3.360000     -7.011000     -0.004000
H          -3.726000    -21.093000      4.159000
C          -5.763000    -21.512000      3.112000
H          -5.009000    -19.936000      4.281000
H          -5.346000    -22.199000      2.364000
H          -6.459000    -20.793000      2.664000
C          -6.407000    -22.316000      4.241000
H          -5.740000    -23.049000      4.712000
C          -7.676000    -23.095000      3.723000
H          -6.742000    -21.633000      5.031000
H          -7.341000    -24.060000      3.323000
H          -8.171000    -22.436000      2.999000
C          -8.770000    -23.264000      4.818000
H          -8.422000    -23.716000      5.755000
C         -10.015000    -24.036000      4.269000
H          -9.061000    -22.275000      5.193000
H         -10.926000    -23.906000      4.867000
H          -9.864000    -25.096000      4.034000
H         -10.321000    -23.692000      3.273000
C           2.552000    -19.423000      0.911000
C           1.615000    -19.367000      1.903000
N           2.292000    -20.010000     -0.274000
C           0.356000    -20.027000      1.772000
C           1.119000    -20.647000     -0.442000
C           0.127000    -20.790000      0.559000
C          -1.119000    -21.663000      0.426000
C          -1.605000    -21.781000     -0.928000
C          -1.774000    -22.445000      1.425000
N          -2.690000    -22.546000     -1.296000
N          -1.449000    -22.446000      2.737000
C          -2.752000    -23.271000      1.047000
C          -3.232000    -23.320000     -0.304000
S          -2.524000    -23.585000      3.354000
N          -3.238000    -24.069000      1.963000
C          -4.539000    -23.977000     -0.688000
S          -5.912000    -24.214000      0.427000
C          -4.799000    -24.658000     -1.851000
C          -6.764000    -25.270000     -0.721000
S          -3.693000    -25.021000     -3.115000
C          -5.997000    -25.329000     -1.880000
C          -8.061000    -25.851000     -0.404000
C          -4.928000    -26.001000     -3.868000
C          -6.131000    -26.039000     -3.093000
N          -8.822000    -26.186000     -1.383000
S          -8.635000    -25.902000      1.234000
C          -9.936000    -26.668000     -0.786000
C          -9.882000    -26.891000      0.540000
C           3.973000    -18.827000      1.046000
H           1.844000    -18.807000      2.805000
H          -0.336000    -19.917000      2.602000
H           0.904000    -21.108000     -1.405000
H          -1.137000    -21.222000     -1.737000
H          -4.586000    -26.563000     -4.728000
H          -6.993000    -26.659000     -3.311000
H         -10.790000    -26.726000     -1.448000
H         -10.625000    -27.292000      1.216000
H           4.116000    -18.583000      2.106000
C           4.462000    -17.774000      0.089000
H           4.488000    -19.787000      0.922000
H           3.808000    -16.896000      0.161000
H           4.343000    -18.123000     -0.944000
C           5.879000    -17.374000      0.321000
H           6.005000    -17.236000      1.402000
C           6.327000    -16.045000     -0.486000
H           6.540000    -18.195000      0.018000
H           5.503000    -15.327000     -0.391000
H           6.367000    -16.277000     -1.558000
C           7.716000    -15.512000      0.065000
H           7.675000    -15.414000      1.157000
C           8.136000    -14.252000     -0.730000
H           8.459000    -16.272000     -0.207000
H           7.336000    -13.529000     -0.533000
H           8.176000    -14.473000     -1.804000
H           9.095000    -13.794000     -0.458000
$end

--------------------------------------------------------------

             Standard Nuclear Orientation (Angstroms)
    I     Atom           X                Y                Z
 ----------------------------------------------------------------
    1      C      -2.1127879243     1.5646164480     1.9651876352
    2      C      -1.9955080881     1.0178778715     0.6797120932
    3      N      -1.0442194331     2.0971839379     2.5270134519
    4      C      -0.7648207620     1.1178555412     0.0174506864
    5      C       0.1283969794     2.1782415487     1.9062345760
    6      C       0.3764653396     1.7695731804     0.5626214421
    7      C       1.7105132525     1.8790467049    -0.0608789296
    8      C       2.2633345403     0.7523483760    -0.7327126140
    9      C       2.5379295770     3.0178135424    -0.0700066868
   10      N       3.5159468290     0.7674864153    -1.2779119299
   11      N       2.2782512956     4.1443371134     0.5329492270
   12      C       3.8093126502     3.0267266917    -0.6415481437
   13      C       4.3409923154     1.8227897063    -1.2059889897
   14      S       3.4162697884     5.2536143906     0.1299209001
   15      N       4.4345624750     4.2346443461    -0.5261332538
   16      C       5.7485076514     1.6162663878    -1.6804473104
   17      S       7.0958053832     2.7853998892    -1.6039118433
   18      C       6.3293975239     0.3888229396    -1.8311010110
   19      C       8.3552794903     1.6383089366    -1.5366116197
   20      S       5.6049731280    -1.1480037540    -1.8311935337
   21      C       7.7652462312     0.3819332260    -1.6747775596
   22      C       9.6609159986     1.9561583664    -1.0872842914
   23      C       7.2391749061    -1.8375722873    -1.5751119326
   24      C       8.2478980847    -0.9805255178    -1.5646532673
   25      N      10.7125976645     1.3509247658    -1.5920495461
   26      S       9.9711387781     3.0382759660     0.3160208528
   27      C      11.8775736215     1.7596275100    -0.9683195671
   28      C      11.7153877701     2.7354828961     0.0560866097
   29      C      -3.4363289649     1.7076876548     2.7733031860
   30      H      -2.8287304432     0.4691570752     0.2513676119
   31      H      -0.7394972339     0.6877948418    -0.9792631711
   32      H       0.9646475502     2.5089437244     2.5196431298
   33      H       1.7011085814    -0.1621215226    -0.9169781173
   34      H       7.3392890478    -2.9142983932    -1.6043531980
   35      H       9.3017594884    -1.2368160013    -1.5522706227
   36      H      12.7515804861     1.3472166894    -1.4540049751
   37      H      12.4698653954     3.2852087942     0.6026311641
   38      H      -3.3932262257     0.9281658106     3.5439508671
   39      C      -4.8344846171     2.0132523276     2.0720471679
   40      H      -3.2666821762     2.6413627534     3.3235765519
   41      H      -5.0414926850     1.1211372388     1.4665388457
   42      H      -4.6358184434     2.8933476683     1.4491146333
   43      C      -5.9848426695     2.2439158239     3.0514672528
   44      H      -6.2146395565     1.3821051402     3.6906031821
   45      C      -7.3069265667     2.6302656966     2.2844249171
   46      H      -5.7362809539     3.0795456775     3.7168647440
   47      H      -7.8221091208     1.7017916577     2.0087931064
   48      H      -7.0034008714     3.2636400108     1.4416965324
   49      C      -8.2232365394     3.5864161454     3.1033109611
   50      H      -8.4758700133     3.2356215936     4.1115254771
   51      C      -9.5218327609     3.9523780692     2.3113957359
   52      H      -7.6597561294     4.4908616120     3.3638780838
   53      H     -10.0357181549     4.8501163769     2.6780191569
   54      H     -10.2415554754     3.1400398535     2.1573443239
   55      H      -9.3225373687     4.1929054356     1.2595326590
   56      C       2.0764590851    -3.5090094451     1.7703369431
   57      C       1.4441096541    -2.5561022033     2.5168427941
   58      N       1.5894350072    -3.9122388771     0.5801236964
   59      C       0.1784903557    -2.0253580080     2.1239555449
   60      C       0.3979969920    -3.4406693159     0.1702217507
   61      C      -0.4257006206    -2.5657396593     0.9202446430
   62      C      -1.8514889080    -2.1757312492     0.5363759162
   63      C      -2.0853275902    -2.1538054102    -0.8877991883
   64      C      -2.9764726754    -1.9497961617     1.3860316462
   65      N      -3.3022973730    -1.8687295457    -1.4671007500
   66      N      -2.9289666324    -1.9301983142     2.7367089209
   67      C      -4.1759834495    -1.7858343603     0.8239511979
   68      C      -4.3520445070    -1.7256359429    -0.5985046554
   69      S      -4.5461536432    -1.6801882119     3.1314697610
   70      N      -5.2023695063    -1.7157546990     1.6324538284
   71      C      -5.6157617131    -1.2081581277    -1.2485735238
   72      S      -6.7562458443    -0.0764510298    -0.4720054385
   73      C      -6.1795049566    -1.6644326231    -2.4138791233
   74      C      -7.9747906850    -0.3070733870    -1.7451534266
   75      S      -5.6571257083    -2.9900137098    -3.3744288115
   76      C      -7.4285132090    -1.1661435919    -2.6931145557
   77      C      -9.2513435647     0.3927193636    -1.7141396936
   78      C      -7.0910172594    -2.8007648428    -4.3546195511
   79      C      -7.9335659635    -1.7466377615    -3.8769106674
   80      N      -9.8645802974     0.5685633910    -2.8289520490
   81      S      -9.8220445862     1.1350434329    -0.2518208774
   82      C     -10.9841174762     1.2464807052    -2.4872012327
   83      C     -11.2769195369     1.3400193845    -1.1770720525
   84      C       3.3887531007    -4.2018476103     2.2068477602
   85      H       1.9229670890    -2.2036272624     3.4257443142
   86      H      -0.2452609495    -1.2596631801     2.7673918368
   87      H       0.0126378566    -3.7557105740    -0.7984692952
   88      H      -1.2706034856    -2.3345592213    -1.5874696058
   89      H      -7.2319121821    -3.5819877057    -5.0909940885
   90      H      -8.9184409746    -1.5124257086    -4.2643818623
   91      H     -11.4703209082     1.7277927485    -3.3255740255
   92      H     -12.1176875568     1.8003266587    -0.6760208077
   93      H       3.5483939498    -3.9448142649     3.2613778256
   94      C       4.6229667012    -4.1264976241     1.3496324035
   95      H       2.9549843844    -5.2082704657     2.2408879842
   96      H       4.9140159010    -3.0747489955     1.2360578229
   97      H       4.3918260855    -4.4606178196     0.3308150937
   98      C       5.7671274370    -4.9164244660     1.8868705213
   99      H       5.8304341122    -4.7070029093     2.9618662778
  100      C       7.1777308758    -4.6101035876     1.1557347897
  101      H       5.5513155576    -5.9858874672     1.7753128149
  102      H       7.2373232567    -3.5217581396     1.0313244442
  103      H       7.1392532455    -5.0020170557     0.1312684381
  104      C       8.3741554530    -5.2319547720     1.9917254209
  105      H       8.3039432009    -4.9172195828     3.0404203242
  106      C       9.7120288490    -4.9440343443     1.2683848347
  107      H       8.2524735984    -6.3203609715     1.9269298109
  108      H       9.7785612850    -3.8500891864     1.2484995048
  109      H       9.6824643421    -5.3296228742     0.2415623449
  110      H      10.6213589928    -5.3404598358     1.7367805213
 ----------------------------------------------------------------

   10   -5663.4691036574      4.46E-06 Convergence criterion met
 Total energy in the final basis set = -5663.4691036574

                    Orbital Energies (a.u.)
 --------------------------------------------------------------

 Alpha MOs
 -- Occupied --
-88.992 -88.988 -88.928 -88.927 -88.923 -88.917 -88.908 -88.906
-14.394 -14.391 -14.379 -14.366 -14.359 -14.347 -14.346 -14.343
-14.329 -14.322 -10.271 -10.270 -10.269 -10.268 -10.259 -10.256
-10.252 -10.249 -10.246 -10.244 -10.243 -10.241 -10.241 -10.239
-10.237 -10.236 -10.236 -10.231 -10.231 -10.231 -10.227 -10.227
-10.226 -10.226 -10.225 -10.225 -10.225 -10.224 -10.217 -10.215
-10.214 -10.213 -10.211 -10.207 -10.202 -10.197 -10.195 -10.194
-10.192 -10.188 -10.188 -10.186 -10.185 -10.184 -10.183 -10.183
-10.179 -10.177 -10.173 -10.173  -8.047  -8.044  -7.989  -7.988
 -7.982  -7.978  -7.970  -7.966  -6.012  -6.009  -6.007  -6.005
 -6.003  -6.001  -5.953  -5.952  -5.950  -5.949  -5.947  -5.946
 -5.945  -5.943  -5.942  -5.939  -5.938  -5.935  -5.934  -5.930
 -5.930  -5.927  -5.926  -5.922  -1.052  -1.045  -0.996  -0.964
 -0.953  -0.951  -0.944  -0.938  -0.918  -0.914  -0.913  -0.902
 -0.849  -0.846  -0.831  -0.828  -0.821  -0.810  -0.807  -0.804
 -0.802  -0.796  -0.796  -0.792  -0.781  -0.781  -0.767  -0.765
 -0.753  -0.749  -0.744  -0.743  -0.724  -0.716  -0.712  -0.706
 -0.697  -0.690  -0.676  -0.675  -0.657  -0.656  -0.647  -0.642
 -0.638  -0.635  -0.625  -0.623  -0.613  -0.612  -0.599  -0.597
 -0.595  -0.592  -0.588  -0.583  -0.579  -0.578  -0.576  -0.573
 -0.558  -0.548  -0.540  -0.536  -0.532  -0.523  -0.522  -0.512
 -0.506  -0.504  -0.502  -0.497  -0.491  -0.488  -0.483  -0.479
 -0.478  -0.473  -0.468  -0.467  -0.462  -0.458  -0.451  -0.450
 -0.445  -0.444  -0.443  -0.439  -0.433  -0.433  -0.432  -0.428
 -0.425  -0.424  -0.423  -0.421  -0.420  -0.419  -0.417  -0.414
 -0.411  -0.410  -0.406  -0.405  -0.405  -0.402  -0.399  -0.396
 -0.394  -0.392  -0.391  -0.390  -0.389  -0.386  -0.384  -0.383
 -0.379  -0.375  -0.374  -0.371  -0.367  -0.362  -0.360  -0.358
 -0.357  -0.354  -0.353  -0.349  -0.348  -0.346  -0.343  -0.340
 -0.338  -0.337  -0.336  -0.336  -0.328  -0.326  -0.323  -0.322
 -0.318  -0.317  -0.316  -0.308  -0.307  -0.304  -0.302  -0.300
 -0.299  -0.294  -0.291  -0.290  -0.289  -0.287  -0.285  -0.283
 -0.275  -0.272  -0.267  -0.261  -0.255  -0.253  -0.250  -0.249
 -0.244  -0.239  -0.232  -0.230  -0.200  -0.192

          Ground-State Mulliken Net Atomic Charges

     Atom                 Charge (a.u.)
  ----------------------------------------
      1 C                     0.263371
      2 C                    -0.112949
      3 N                    -0.478067
      4 C                    -0.093451
      5 C                     0.089195
      6 C                     0.044061
      7 C                     0.014494
      8 C                     0.061782
      9 C                     0.273117
     10 N                    -0.538457
     11 N                    -0.570578
     12 C                     0.165457
     13 C                     0.331736
     14 S                     0.602876
     15 N                    -0.543762
     16 C                    -0.213753
     17 S                     0.301168
     18 C                    -0.112368
     19 C                    -0.215134
     20 S                     0.294778
     21 C                     0.129124
     22 C                     0.037497
     23 C                    -0.317192
     24 C                    -0.036567
     25 N                    -0.400833
     26 S                     0.270556
     27 C                     0.112522
     28 C                    -0.311022
     29 C                    -0.249675
     30 H                     0.080812
     31 H                     0.098137
     32 H                     0.104410
     33 H                     0.123962
     34 H                     0.122881
     35 H                     0.123370
     36 H                     0.117420
     37 H                     0.140385
     38 H                     0.115102
     39 C                    -0.190637
     40 H                     0.123660
     41 H                     0.104232
     42 H                     0.108914
     43 C                    -0.184062
     44 H                     0.094075
     45 C                    -0.176778
     46 H                     0.095684
     47 H                     0.113011
     48 H                     0.101924
     49 C                    -0.185222
     50 H                     0.093885
     51 C                    -0.331055
     52 H                     0.097164
     53 H                     0.101016
     54 H                     0.102393
     55 H                     0.105266
     56 C                     0.264632
     57 C                    -0.121966
     58 N                    -0.492143
     59 C                    -0.074200
     60 C                     0.084384
     61 C                     0.013611
     62 C                     0.035984
     63 C                     0.034562
     64 C                     0.269652
     65 N                    -0.476653
     66 N                    -0.573828
     67 C                     0.208228
     68 C                     0.227375
     69 S                     0.596103
     70 N                    -0.538402
     71 C                    -0.204393
     72 S                     0.324104
     73 C                    -0.114563
     74 C                    -0.266142
     75 S                     0.280653
     76 C                     0.188943
     77 C                     0.075154
     78 C                    -0.309190
     79 C                    -0.081146
     80 N                    -0.414980
     81 S                     0.280578
     82 C                     0.117960
     83 C                    -0.308344
     84 C                    -0.215666
     85 H                     0.089483
     86 H                     0.129017
     87 H                     0.097499
     88 H                     0.119812
     89 H                     0.137116
     90 H                     0.119437
     91 H                     0.109189
     92 H                     0.128964
     93 H                     0.086955
     94 C                    -0.171498
     95 H                     0.121310
     96 H                     0.101589
     97 H                     0.113196
     98 C                    -0.177581
     99 H                     0.086764
    100 C                    -0.192101
    101 H                     0.095203
    102 H                     0.100676
    103 H                     0.090429
    104 C                    -0.177106
    105 H                     0.098443
    106 C                    -0.317768
    107 H                     0.097806
    108 H                     0.104450
    109 H                     0.101934
    110 H                     0.098606
  ----------------------------------------
  Sum of atomic charges =     0.000000

                    Cartesian Multipole Moments
 -----------------------------------------------------------------
    Charge (ESU x 10^10)
                 0.0000
    Dipole Moment (Debye)
         X      -1.3421      Y       0.9476      Z       2.5869
       Tot       3.0645
    Quadrupole Moments (Debye-Ang)
        XX    -375.1370     XY      -4.3398     YY    -436.5342
        XZ      11.5999     YZ       3.8403     ZZ    -449.2068

 Total job time:  101.86s(wall), 1126.60s(cpu)
        *  Thank you very much for using Q-Chem.  Have a nice day.  *
