 Q-Chem 4.4, Q-Chem, Inc., Pleasanton, CA (2016)
 Q-Chem 4.4.2 for Intel X86 Linux

User input:
--------------------------------------------------------------
$comment
SP
$end

$rem
MEM_STATIC 5000
MEM_TOTAL 20000
JOBTYPE SP
EXCHANGE B3LYP
BASIS 6-31g(d,p)
$end

$molecule
0 1
C         -13.851000    -25.481000      4.921000
C         -13.155000    -26.398000      4.145000
N         -14.388000    -24.358000      4.405000
C         -13.075000    -26.210000      2.768000
C         -14.297000    -24.217000      3.052000
C         -13.681000    -25.120000      2.201000
C         -13.624000    -24.916000      0.642000
C         -13.726000    -26.001000     -0.251000
C         -13.473000    -23.623000      0.070000
N         -13.853000    -25.861000     -1.581000
N         -13.272000    -22.535000      0.854000
C         -13.546000    -23.448000     -1.288000
C         -13.710000    -24.620000     -2.128000
S         -13.367000    -21.279000     -0.202000
N         -13.510000    -22.097000     -1.631000
C         -13.854000    -24.568000     -3.591000
S         -14.997000    -25.453000     -4.598000
C         -13.001000    -23.834000     -4.378000
C         -14.298000    -24.664000     -6.070000
S         -11.773000    -22.721000     -3.944000
C         -13.283000    -23.875000     -5.757000
C         -14.776000    -24.861000     -7.408000
C         -11.494000    -22.526000     -5.692000
C         -12.446000    -23.078000     -6.500000
N         -15.690000    -25.822000     -7.441000
S         -14.917000    -23.586000     -8.559000
C         -16.347000    -25.710000     -8.607000
C         -16.108000    -24.581000     -9.283000
C         -13.962000    -25.596000      6.445000
H         -12.635000    -27.192000      4.673000
H         -12.621000    -26.948000      2.115000
H         -14.768000    -23.294000      2.716000
H         -13.998000    -26.955000      0.201000
H         -10.663000    -21.881000     -5.943000
H         -12.446000    -22.898000     -7.569000
H         -16.992000    -26.546000     -8.842000
H         -16.517000    -24.330000    -10.252000
H         -14.991000    -25.642000      6.823000
C         -13.086000    -24.420000      7.059000
H         -13.529000    -26.571000      6.701000
H         -13.553000    -23.448000      6.860000
H         -12.172000    -24.408000      6.452000
C         -12.846000    -24.484000      8.536000
H         -13.790000    -24.421000      9.090000
C         -11.861000    -23.445000      9.019000
H         -12.429000    -25.491000      8.658000
H         -11.737000    -23.496000     10.108000
H         -12.273000    -22.481000      8.694000
C         -10.446000    -23.573000      8.460000
H         -10.429000    -23.414000      7.374000
C          -9.839000    -24.936000      8.863000
H          -9.870000    -22.690000      8.763000
H          -8.755000    -24.890000      8.704000
H         -10.109000    -25.711000      8.135000
H          -9.939000    -25.144000      9.936000
C           2.552000    -19.423000      0.911000
C           1.615000    -19.367000      1.903000
N           2.292000    -20.010000     -0.274000
C           0.356000    -20.027000      1.772000
C           1.119000    -20.647000     -0.442000
C           0.127000    -20.790000      0.559000
C          -1.119000    -21.663000      0.426000
C          -1.605000    -21.781000     -0.928000
C          -1.774000    -22.445000      1.425000
N          -2.690000    -22.546000     -1.296000
N          -1.449000    -22.446000      2.737000
C          -2.752000    -23.271000      1.047000
C          -3.232000    -23.320000     -0.304000
S          -2.524000    -23.585000      3.354000
N          -3.238000    -24.069000      1.963000
C          -4.539000    -23.977000     -0.688000
S          -5.912000    -24.214000      0.427000
C          -4.799000    -24.658000     -1.851000
C          -6.764000    -25.270000     -0.721000
S          -3.693000    -25.021000     -3.115000
C          -5.997000    -25.329000     -1.880000
C          -8.061000    -25.851000     -0.404000
C          -4.928000    -26.001000     -3.868000
C          -6.131000    -26.039000     -3.093000
N          -8.822000    -26.186000     -1.383000
S          -8.635000    -25.902000      1.234000
C          -9.936000    -26.668000     -0.786000
C          -9.882000    -26.891000      0.540000
C           3.973000    -18.827000      1.046000
H           1.844000    -18.807000      2.805000
H          -0.336000    -19.917000      2.602000
H           0.904000    -21.108000     -1.405000
H          -1.137000    -21.222000     -1.737000
H          -4.586000    -26.563000     -4.728000
H          -6.993000    -26.659000     -3.311000
H         -10.790000    -26.726000     -1.448000
H         -10.625000    -27.292000      1.216000
H           4.116000    -18.583000      2.106000
C           4.462000    -17.774000      0.089000
H           4.488000    -19.787000      0.922000
H           3.808000    -16.896000      0.161000
H           4.343000    -18.123000     -0.944000
C           5.879000    -17.374000      0.321000
H           6.005000    -17.236000      1.402000
C           6.327000    -16.045000     -0.486000
H           6.540000    -18.195000      0.018000
H           5.503000    -15.327000     -0.391000
H           6.367000    -16.277000     -1.558000
C           7.716000    -15.512000      0.065000
H           7.675000    -15.414000      1.157000
C           8.136000    -14.252000     -0.730000
H           8.459000    -16.272000     -0.207000
H           7.336000    -13.529000     -0.533000
H           8.176000    -14.473000     -1.804000
H           9.095000    -13.794000     -0.458000
$end

--------------------------------------------------------------

             Standard Nuclear Orientation (Angstroms)
    I     Atom           X                Y                Z
 ----------------------------------------------------------------
    1      C      -5.6221161729     6.1648633205    -0.2386668394
    2      C      -5.3541612860     5.4252241117     0.9052802832
    3      N      -5.8642976488     5.5877342999    -1.4319917014
    4      C      -5.4205227043     4.0356613922     0.8544412165
    5      C      -5.9309926414     4.2260071182    -1.4366672375
    6      C      -5.7450333507     3.4198737401    -0.3255263288
    7      C      -5.8544777651     1.8514983664    -0.3852474065
    8      C      -6.4061801650     1.1067620202     0.6759171598
    9      C      -5.4050111030     1.1210697996    -1.5193937058
   10      N      -6.6753462873    -0.2072865400     0.6020593233
   11      N      -4.7747943641     1.7466080585    -2.5442496706
   12      C      -5.6167672291    -0.2307954430    -1.6073579549
   13      C      -6.2454846534    -0.9061501799    -0.4872283286
   14      S      -4.6380898201     0.5708922756    -3.6847325795
   15      N      -5.2252277120    -0.7288043084    -2.8494650262
   16      C      -6.5763510120    -2.3393778870    -0.4732715206
   17      S      -8.0654561380    -3.1008705725     0.0802786702
   18      C      -5.6645826621    -3.2977301301    -0.8420173058
   19      C      -7.3809758796    -4.7239336862    -0.3381217418
   20      S      -4.1092282678    -3.1375947827    -1.5422589631
   21      C      -6.1414415788    -4.6216261023    -0.7895670601
   22      C      -8.0836737534    -5.9670654971    -0.2025636403
   23      C      -4.0393625724    -4.9167614053    -1.5097795314
   24      C      -5.2194341472    -5.5419827426    -1.2262281997
   25      N      -9.2394822951    -5.7848047398     0.4226512277
   26      S      -7.9982922212    -7.2334648781    -1.3684322444
   27      C      -9.9930247200    -6.8733410558     0.1967939663
   28      C      -9.5250053968    -7.6975654681    -0.7467896449
   29      C      -5.5418006355     7.6946213878    -0.2775470405
   30      H      -5.0271537956     5.9782820083     1.7809589139
   31      H      -5.3090219489     3.4244081480     1.7438826439
   32      H      -6.1452834899     3.8419815185    -2.4332964419
   33      H      -6.8848566073     1.6935762657     1.4600867236
   34      H      -3.0979139449    -5.3334460313    -1.8408919054
   35      H      -5.3192336886    -6.6175685978    -1.3174209604
   36      H     -10.8867232813    -6.9354779612     0.8030842323
   37      H      -9.9745232220    -8.6359861505    -1.0409721525
   38      H      -6.4711158741     8.1902985843    -0.5849853338
   39      C      -4.2733203041     8.0652833416    -1.1612411986
   40      H      -5.3905216290     8.0100212699     0.7623027451
   41      H      -4.4493380882     7.8103539526    -2.2131455413
   42      H      -3.4956421222     7.3606615090    -0.8407513886
   43      C      -3.8535637603     9.5027558976    -1.1347441287
   44      H      -4.6445602342    10.1498712492    -1.5317167979
   45      C      -2.5424922757     9.7474768573    -1.8448414559
   46      H      -3.7463148433     9.6914329163    -0.0596996401
   47      H      -2.2840651992    10.8138121133    -1.8383170572
   48      H      -2.6872330952     9.3628586578    -2.8625761639
   49      C      -1.3278411358     9.0491785220    -1.2381355608
   50      H      -1.4203930661     7.9572941335    -1.3028551285
   51      C      -1.1082675836     9.5344277554     0.2127082063
   52      H      -0.4752229446     9.1808805192    -1.9156094008
   53      H      -0.0955548601     9.2485832967     0.5211865446
   54      H      -1.7011534174     8.9360095561     0.9154820296
   55      H      -1.1105861707    10.6285892751     0.2987209560
   56      C      11.0864898924    -0.3602405491    -0.5274155974
   57      C      10.3630930170     0.7190949303    -0.9480114646
   58      N      10.4938223407    -1.4323912932     0.0343957188
   59      C       8.9586566193     0.8093745124    -0.7087417385
   60      C       9.1720465658    -1.3910791421     0.2816286192
   61      C       8.3381496131    -0.2736935186     0.0314701876
   62      C       6.8815061464    -0.1623645653     0.4765877845
   63      C       6.1927632507    -1.4294614531     0.5360411314
   64      C       6.1724551317     0.9881232188     0.9372118364
   65      N       4.8865537692    -1.5808186592     0.9468717374
   66      N       6.6675376529     2.2458314739     0.9429774506
   67      C       4.9472834887     0.8217106641     1.4401087512
   68      C       4.2854166563    -0.4510488046     1.4359098209
   69      S       5.4000019953     3.1083490983     1.6379966620
   70      N       4.3807498452     1.8728578679     1.9750715413
   71      C       2.8001857334    -0.6052964106     1.6760155925
   72      S       1.5952690435     0.6788588578     1.3868028383
   73      C       2.1823678464    -1.6449230161     2.3251747252
   74      C       0.3086214456    -0.2352918601     2.2039995245
   75      S       2.9333771881    -2.9766222121     3.1095618873
   76      C       0.8468121087    -1.4596837886     2.5864471882
   77      C      -1.0432808400     0.2923145315     2.3233758446
   78      C       1.3655308497    -3.4660463113     3.7053436513
   79      C       0.3318186352    -2.5596862524     3.3063091902
   80      N      -2.0025797569    -0.5484012019     2.4741393803
   81      S      -1.3636749875     1.9800179893     2.0701454580
   82      C      -3.1118174601     0.2232408953     2.5365027641
   83      C      -2.9370427003     1.5512187078     2.6663092076
   84      C      12.6249197799    -0.4576891862    -0.6555531977
   85      H      10.8776289986     1.5186271647    -1.4730313974
   86      H       8.4591203186     1.6946901828    -1.0915519370
   87      H       8.6917441049    -2.2637925046     0.7218512139
   88      H       6.6857419450    -2.3454718410     0.2137323101
   89      H       1.3946609197    -4.2890377774     4.4083688897
   90      H      -0.6988953595    -2.6051454095     3.6387699039
   91      H      -4.0296466977    -0.3259235009     2.3723931769
   92      H      -3.6607942226     2.3491776695     2.7625964312
   93      H      12.9859548872     0.5439218115    -0.9201548995
   94      C      13.2651998387    -1.5789749335    -1.4279123883
   95      H      12.8032567183    -0.5283484234     0.4239856893
   96      H      12.9236458910    -1.5343386580    -2.4696093229
   97      H      12.8990428386    -2.5445999897    -1.0583879614
   98      C      14.7547851264    -1.5576988231    -1.3789634577
   99      H      15.0708864861    -0.5212306588    -1.5501203295
  100      C      15.4611854265    -2.5580435078    -2.4365565401
  101      H      15.0868258299    -1.8376395954    -0.3719117534
  102      H      14.9145010744    -2.4529108973    -3.3818651423
  103      H      15.2745299587    -3.5937515382    -2.1249853412
  104      C      17.0104124572    -2.2340897397    -2.5459209001
  105      H      17.1586356504    -1.1631150353    -2.7324472192
  106      C      17.6713611064    -3.2114604610    -3.5478781628
  107      H      17.4425900248    -2.4998119956    -1.5731684996
  108      H      17.1635021826    -3.0089884010    -4.4979425703
  109      H      17.4877315368    -4.2504076293    -3.2465710725
  110      H      18.7524794696    -3.1051413408    -3.7005488197
 ----------------------------------------------------------------

   10   -5663.4546791091      6.84E-06 Convergence criterion met
 Total energy in the final basis set = -5663.4546791091

                    Orbital Energies (a.u.)
 --------------------------------------------------------------

 Alpha MOs
 -- Occupied --
-88.995 -88.988 -88.932 -88.924 -88.921 -88.918 -88.906 -88.906
-14.394 -14.391 -14.389 -14.388 -14.355 -14.355 -14.340 -14.337
-14.330 -14.329 -10.270 -10.268 -10.266 -10.263 -10.258 -10.257
-10.256 -10.253 -10.243 -10.242 -10.241 -10.238 -10.233 -10.232
-10.230 -10.230 -10.229 -10.228 -10.228 -10.226 -10.226 -10.225
-10.223 -10.223 -10.223 -10.222 -10.222 -10.221 -10.220 -10.219
-10.216 -10.214 -10.204 -10.202 -10.200 -10.200 -10.195 -10.195
-10.190 -10.184 -10.183 -10.183 -10.177 -10.177 -10.177 -10.176
-10.175 -10.173 -10.172 -10.170  -8.050  -8.044  -7.994  -7.987
 -7.980  -7.976  -7.967  -7.967  -6.015  -6.009  -6.009  -6.008
 -6.004  -6.002  -5.958  -5.955  -5.951  -5.950  -5.947  -5.944
 -5.943  -5.941  -5.940  -5.937  -5.937  -5.932  -5.932  -5.932
 -5.928  -5.928  -5.923  -5.923  -1.048  -1.034  -0.993  -0.983
 -0.957  -0.947  -0.941  -0.937  -0.918  -0.915  -0.911  -0.899
 -0.844  -0.843  -0.833  -0.828  -0.819  -0.818  -0.814  -0.811
 -0.808  -0.805  -0.801  -0.790  -0.786  -0.780  -0.768  -0.764
 -0.753  -0.751  -0.746  -0.741  -0.721  -0.720  -0.710  -0.704
 -0.695  -0.688  -0.674  -0.673  -0.659  -0.655  -0.647  -0.645
 -0.639  -0.636  -0.632  -0.623  -0.611  -0.610  -0.605  -0.597
 -0.596  -0.592  -0.590  -0.586  -0.580  -0.578  -0.574  -0.555
 -0.551  -0.546  -0.542  -0.533  -0.529  -0.528  -0.522  -0.520
 -0.510  -0.505  -0.503  -0.495  -0.488  -0.487  -0.479  -0.473
 -0.472  -0.471  -0.470  -0.466  -0.463  -0.458  -0.458  -0.449
 -0.448  -0.444  -0.441  -0.438  -0.435  -0.432  -0.431  -0.430
 -0.430  -0.424  -0.423  -0.420  -0.418  -0.417  -0.416  -0.410
 -0.408  -0.408  -0.405  -0.405  -0.403  -0.400  -0.399  -0.397
 -0.397  -0.392  -0.391  -0.389  -0.389  -0.387  -0.385  -0.383
 -0.381  -0.375  -0.373  -0.373  -0.368  -0.359  -0.358  -0.357
 -0.356  -0.355  -0.352  -0.349  -0.347  -0.345  -0.343  -0.341
 -0.338  -0.337  -0.335  -0.329  -0.327  -0.325  -0.320  -0.318
 -0.317  -0.317  -0.313  -0.312  -0.306  -0.306  -0.303  -0.303
 -0.302  -0.301  -0.299  -0.296  -0.290  -0.287  -0.285  -0.284
 -0.281  -0.275  -0.271  -0.266  -0.256  -0.256  -0.252  -0.252
 -0.242  -0.240  -0.237  -0.230  -0.193  -0.189

          Ground-State Mulliken Net Atomic Charges

     Atom                 Charge (a.u.)
  ----------------------------------------
      1 C                     0.256766
      2 C                    -0.119343
      3 N                    -0.475652
      4 C                    -0.083900
      5 C                     0.076167
      6 C                     0.064448
      7 C                     0.025933
      8 C                     0.050235
      9 C                     0.221102
     10 N                    -0.492257
     11 N                    -0.547873
     12 C                     0.238017
     13 C                     0.215286
     14 S                     0.618843
     15 N                    -0.546344
     16 C                    -0.202693
     17 S                     0.330889
     18 C                    -0.113558
     19 C                    -0.247584
     20 S                     0.273166
     21 C                     0.190275
     22 C                     0.035630
     23 C                    -0.304875
     24 C                    -0.072501
     25 N                    -0.413958
     26 S                     0.294729
     27 C                     0.134291
     28 C                    -0.319288
     29 C                    -0.220738
     30 H                     0.089234
     31 H                     0.091762
     32 H                     0.111955
     33 H                     0.112180
     34 H                     0.126434
     35 H                     0.116240
     36 H                     0.112067
     37 H                     0.130332
     38 H                     0.115742
     39 C                    -0.170315
     40 H                     0.086360
     41 H                     0.115191
     42 H                     0.094251
     43 C                    -0.171320
     44 H                     0.090198
     45 C                    -0.167164
     46 H                     0.088046
     47 H                     0.087006
     48 H                     0.084489
     49 C                    -0.179623
     50 H                     0.093237
     51 C                    -0.318084
     52 H                     0.090015
     53 H                     0.095654
     54 H                     0.109462
     55 H                     0.107869
     56 C                     0.261977
     57 C                    -0.120987
     58 N                    -0.492499
     59 C                    -0.071429
     60 C                     0.087618
     61 C                     0.018826
     62 C                     0.016904
     63 C                     0.048791
     64 C                     0.277360
     65 N                    -0.481189
     66 N                    -0.572356
     67 C                     0.203921
     68 C                     0.239213
     69 S                     0.584017
     70 N                    -0.531288
     71 C                    -0.197831
     72 S                     0.296950
     73 C                    -0.111472
     74 C                    -0.251809
     75 S                     0.278281
     76 C                     0.190082
     77 C                     0.085329
     78 C                    -0.310275
     79 C                    -0.081389
     80 N                    -0.412920
     81 S                     0.264834
     82 C                     0.111319
     83 C                    -0.299321
     84 C                    -0.215298
     85 H                     0.086402
     86 H                     0.116032
     87 H                     0.097426
     88 H                     0.120736
     89 H                     0.136192
     90 H                     0.121090
     91 H                     0.122651
     92 H                     0.117387
     93 H                     0.086186
     94 C                    -0.165555
     95 H                     0.122081
     96 H                     0.089546
     97 H                     0.115354
     98 C                    -0.177670
     99 H                     0.086070
    100 C                    -0.184377
    101 H                     0.096044
    102 H                     0.090817
    103 H                     0.095445
    104 C                    -0.177469
    105 H                     0.097231
    106 C                    -0.316247
    107 H                     0.098004
    108 H                     0.102474
    109 H                     0.104277
    110 H                     0.098082
  ----------------------------------------
  Sum of atomic charges =     0.000000

                    Cartesian Multipole Moments
 -----------------------------------------------------------------
    Charge (ESU x 10^10)
                 0.0000
    Dipole Moment (Debye)
         X      -0.0258      Y       0.3946      Z      -1.0744
       Tot       1.1449
    Quadrupole Moments (Debye-Ang)
        XX    -443.3549     XY      31.0308     YY    -404.6546
        XZ      -4.6727     YZ      13.7292     ZZ    -441.6854

 Total job time:  91.82s(wall), 1010.36s(cpu)
        *  Thank you very much for using Q-Chem.  Have a nice day.  *
