 Q-Chem 4.4, Q-Chem, Inc., Pleasanton, CA (2016)
 Q-Chem 4.4.2 for Intel X86 Linux

User input:
--------------------------------------------------------------
$comment
SP
$end

$rem
MEM_STATIC 5000
MEM_TOTAL 20000
JOBTYPE SP
EXCHANGE B3LYP
BASIS 6-31g(d,p)
$end

$molecule
0 1
C           2.875000    -31.196000      0.969000
C           2.037000    -30.609000      1.979000
N           4.020000    -30.645000      0.580000
C           2.375000    -29.378000      2.513000
C           4.323000    -29.439000      1.054000
C           3.558000    -28.740000      2.006000
C           3.881000    -27.328000      2.493000
C           2.882000    -26.329000      2.681000
C           5.196000    -26.868000      2.760000
N           3.098000    -25.102000      3.131000
N           6.280000    -27.603000      2.607000
C           5.432000    -25.572000      3.209000
C           4.380000    -24.697000      3.445000
S           7.518000    -26.626000      3.033000
N           6.686000    -25.378000      3.560000
C           4.608000    -23.309000      3.999000
S           6.197000    -22.524000      4.381000
C           3.543000    -22.401000      4.252000
C           5.378000    -21.172000      5.112000
S           1.809000    -22.474000      4.066000
C           4.029000    -21.235000      4.864000
C           6.103000    -20.124000      5.766000
C           1.762000    -20.856000      4.870000
C           2.993000    -20.349000      5.249000
N           7.361000    -19.999000      5.608000
S           5.372000    -18.896000      6.692000
C           7.862000    -18.881000      6.204000
C           6.912000    -18.093000      6.746000
C           2.453000    -32.440000      0.268000
H           1.083000    -31.034000      2.276000
H           1.798000    -28.921000      3.312000
H           5.235000    -29.020000      0.632000
H           1.856000    -26.603000      2.442000
H           0.810000    -20.355000      4.985000
H           3.020000    -19.377000      5.728000
H           8.910000    -18.714000      5.993000
H           7.027000    -17.041000      6.968000
H           1.359000    -32.485000      0.196000
C           3.139000    -33.723000      0.723000
H           2.741000    -32.281000     -0.779000
H           2.833000    -33.775000      1.776000
H           4.235000    -33.760000      0.716000
C           2.594000    -34.955000      0.018000
H           1.501000    -34.930000      0.113000
C           3.076000    -36.239000      0.661000
H           2.711000    -34.894000     -1.071000
H           2.831000    -36.275000      1.730000
H           4.165000    -36.141000      0.750000
C           2.677000    -37.503000     -0.118000
H           1.631000    -37.450000     -0.443000
C           2.917000    -38.794000      0.674000
H           3.313000    -37.502000     -1.012000
H           3.895000    -38.857000      1.167000
H           2.821000    -39.697000      0.058000
H           2.239000    -38.919000      1.527000
C           2.552000    -19.423000      0.911000
C           1.615000    -19.367000      1.903000
N           2.292000    -20.010000     -0.274000
C           0.356000    -20.027000      1.772000
C           1.119000    -20.647000     -0.442000
C           0.127000    -20.790000      0.559000
C          -1.119000    -21.663000      0.426000
C          -1.605000    -21.781000     -0.928000
C          -1.774000    -22.445000      1.425000
N          -2.690000    -22.546000     -1.296000
N          -1.449000    -22.446000      2.737000
C          -2.752000    -23.271000      1.047000
C          -3.232000    -23.320000     -0.304000
S          -2.524000    -23.585000      3.354000
N          -3.238000    -24.069000      1.963000
C          -4.539000    -23.977000     -0.688000
S          -5.912000    -24.214000      0.427000
C          -4.799000    -24.658000     -1.851000
C          -6.764000    -25.270000     -0.721000
S          -3.693000    -25.021000     -3.115000
C          -5.997000    -25.329000     -1.880000
C          -8.061000    -25.851000     -0.404000
C          -4.928000    -26.001000     -3.868000
C          -6.131000    -26.039000     -3.093000
N          -8.822000    -26.186000     -1.383000
S          -8.635000    -25.902000      1.234000
C          -9.936000    -26.668000     -0.786000
C          -9.882000    -26.891000      0.540000
C           3.973000    -18.827000      1.046000
H           1.844000    -18.807000      2.805000
H          -0.336000    -19.917000      2.602000
H           0.904000    -21.108000     -1.405000
H          -1.137000    -21.222000     -1.737000
H          -4.586000    -26.563000     -4.728000
H          -6.993000    -26.659000     -3.311000
H         -10.790000    -26.726000     -1.448000
H         -10.625000    -27.292000      1.216000
H           4.116000    -18.583000      2.106000
C           4.462000    -17.774000      0.089000
H           4.488000    -19.787000      0.922000
H           3.808000    -16.896000      0.161000
H           4.343000    -18.123000     -0.944000
C           5.879000    -17.374000      0.321000
H           6.005000    -17.236000      1.402000
C           6.327000    -16.045000     -0.486000
H           6.540000    -18.195000      0.018000
H           5.503000    -15.327000     -0.391000
H           6.367000    -16.277000     -1.558000
C           7.716000    -15.512000      0.065000
H           7.675000    -15.414000      1.157000
C           8.136000    -14.252000     -0.730000
H           8.459000    -16.272000     -0.207000
H           7.336000    -13.529000     -0.533000
H           8.176000    -14.473000     -1.804000
H           9.095000    -13.794000     -0.458000
$end

--------------------------------------------------------------

             Standard Nuclear Orientation (Angstroms)
    I     Atom           X                Y                Z
 ----------------------------------------------------------------
    1      C       3.6726070016     6.0546744655    -0.6597680572
    2      C       3.5838370594     5.2235837385     0.5099845239
    3      N       2.6143213603     6.3585007328    -1.4038568294
    4      C       2.3746130049     4.6358991864     0.8373452626
    5      C       1.4615996988     5.7563602352    -1.1217565064
    6      C       1.2614821935     4.8835601998    -0.0362598080
    7      C      -0.0488558063     4.1468507343     0.2385410101
    8      C      -0.0961973823     2.7813320340     0.6440819505
    9      C      -1.3308676228     4.7318303671     0.0761879027
   10      N      -1.1975635644     2.1020743793     0.9274308015
   11      N      -1.5308517221     5.9673891866    -0.3386503352
   12      C      -2.4927371868     4.0155578205     0.3480808138
   13      C      -2.4316306076     2.7122998597     0.8232751672
   14      S      -3.1541442418     6.1491845365    -0.3614723866
   15      N      -3.5732328847     4.7663709920     0.3015874981
   16      C      -3.6779606935     1.9399402150     1.1914679105
   17      S      -5.3988284472     2.4891896271     1.0365187010
   18      C      -3.6348814550     0.6066038284     1.6844752730
   19      C      -5.9505194504     1.0708786263     1.8833108491
   20      S      -2.3514433551    -0.5274773282     2.0211168837
   21      C      -4.9211003781     0.1771583639     2.0471231390
   22      C      -7.3304735250     0.8934842820     2.2237561437
   23      C      -3.6313499841    -1.6123506103     2.6930082312
   24      C      -4.9169614616    -1.1003983805     2.6589635055
   25      N      -8.2350217517     1.6185598290     1.6953519834
   26      S      -7.9081224821    -0.3456550910     3.2389784329
   27      C      -9.4946027549     1.2316013727     2.0415597960
   28      C      -9.5229733514     0.1070853019     2.7844371182
   29      C       4.9913087033     6.5699021846    -1.1208398729
   30      H       4.4493348477     4.9414411578     1.1018114771
   31      H       2.2506651113     4.0412075865     1.7379882666
   32      H       0.6612287195     5.9954993822    -1.8200456756
   33      H       0.8540539015     2.2583761040     0.7358021393
   34      H      -3.3521001639    -2.5952716683     3.0485581316
   35      H      -5.7225854887    -1.7158420503     3.0425687927
   36      H     -10.2705342081     1.7776186783     1.5214545356
   37      H     -10.3769140619    -0.5474970092     2.8917695967
   38      H       5.7885987286     5.8606344689    -0.8652759419
   39      C       5.2802211261     8.0323519303    -0.8022800618
   40      H       4.9565827117     6.4848396858    -2.2144542825
   41      H       5.2526820331     8.0284345345     0.2951602566
   42      H       4.5579475620     8.7904361421    -1.1282604700
   43      C       6.6758626537     8.4560514080    -1.2318583192
   44      H       7.3815232517     7.7223004059    -0.8220393502
   45      C       7.0563273902     9.8119801379    -0.6740654689
   46      H       6.8357860844     8.3215862245    -2.3087402119
   47      H       6.9720271940     9.8396426653     0.4196485072
   48      H       6.2218917562    10.4819570025    -0.9155073328
   49      C       8.3931184414    10.3450815482    -1.2149264229
   50      H       9.1561217634     9.5574677461    -1.2212848330
   51      C       8.9052934974    11.5674438445    -0.4435302028
   52      H       8.1887341581    10.6311549248    -2.2542156454
   53      H       8.1521721227    12.3428589413    -0.2563361251
   54      H       9.7464240537    12.0654021241    -0.9421462264
   55      H       9.2336148691    11.3372312004     0.5773151407
   56      C      -4.1258596170    -2.7391796373    -1.4102814938
   57      C      -3.7799173078    -3.2526989357    -0.1929931759
   58      N      -3.2411452841    -2.6686945814    -2.4245331421
   59      C      -2.4348665451    -3.6336832379     0.0960248294
   60      C      -1.9610227663    -3.0146792000    -2.1975904553
   61      C      -1.4439994857    -3.4187093132    -0.9422177637
   62      C       0.0380387238    -3.6362830867    -0.6446301317
   63      C       0.8008997190    -4.0842622991    -1.7851535762
   64      C       0.7612481028    -3.3503706467     0.5527721694
   65      N       2.1599153433    -4.3091850404    -1.7661721828
   66      N       0.2005306621    -2.9298280798     1.7085013336
   67      C       2.0913218336    -3.4609523300     0.5348958734
   68      C       2.8022170835    -3.9546818622    -0.6091587987
   69      S       1.5532826689    -2.7236833503     2.6889101047
   70      N       2.7313635448    -3.0633078368     1.6046067993
   71      C       4.2434474184    -4.4090028804    -0.5475022148
   72      S       5.0556355747    -4.9815480688     0.9347479011
   73      C       5.1866227831    -4.2667003137    -1.5344673666
   74      C       6.6555950988    -4.9594943249     0.1610637578
   75      S       5.0049642326    -3.4588391147    -3.0401437775
   76      C       6.4711041525    -4.5831668398    -1.1653568824
   77      C       7.8568904278    -5.3541584429     0.8831363070
   78      C       6.7127939040    -3.6869628690    -3.3298183643
   79      C       7.3608508654    -4.3433002528    -2.2350483367
   80      N       8.8589060307    -5.7699872636     0.1955040480
   81      S       7.8606570791    -5.4474806505     2.6170330103
   82      C       9.7951337938    -6.0711921893     1.1242032288
   83      C       9.5675794721    -5.6679562740     2.3877461949
   84      C      -5.5390278691    -2.2027625620    -1.7387540384
   85      H      -4.5518458683    -3.3679617653     0.5623119132
   86      H      -2.2513990963    -4.0478495341     1.0832785832
   87      H      -1.2504563197    -2.9715446957    -3.0218172077
   88      H       0.3086030737    -4.3034441583    -2.7315093896
   89      H       7.0848371164    -3.1822723635    -4.2125863643
   90      H       8.4296685735    -4.5016043997    -2.1482352966
   91      H      10.5897435118    -6.7017999183     0.7475690718
   92      H      10.1744537311    -5.7680494982     3.2774152235
   93      H      -6.0773577394    -2.1210694584    -0.7863296648
   94      C      -6.3445414260    -2.7903409684    -2.8655541653
   95      H      -5.2039374698    -1.1791025838    -1.9437800697
   96      H      -6.5151943445    -3.8552151178    -2.6638002875
   97      H      -5.7579451841    -2.7754033403    -3.7922324893
   98      C      -7.6462957035    -2.0989507256    -3.0872032872
   99      H      -8.1060939267    -1.9482179285    -2.1026494706
  100      C      -8.6509096797    -2.8916379471    -4.0774516034
  101      H      -7.4596058303    -1.1065737383    -3.5151119297
  102      H      -8.6020907372    -3.9500778873    -3.7931162313
  103      H      -8.2427833925    -2.8616573542    -5.0958533403
  104      C     -10.1067567986    -2.2664794384    -3.9956163705
  105      H     -10.4279239232    -2.1965051765    -2.9488574294
  106      C     -11.0482416913    -3.0257972230    -4.9615706649
  107      H     -10.0257732512    -1.2589289323    -4.4221332431
  108      H     -11.0456142489    -4.0560847555    -4.5873532186
  109      H     -10.6471051088    -3.0041320608    -5.9826177073
  110      H     -12.0867847093    -2.6764321307    -5.0144992210
 ----------------------------------------------------------------

   10   -5663.4948608479      5.58E-06 Convergence criterion met
 Total energy in the final basis set = -5663.4948608479

                    Orbital Energies (a.u.)
 --------------------------------------------------------------

 Alpha MOs
 -- Occupied --
-88.990 -88.984 -88.926 -88.924 -88.923 -88.922 -88.914 -88.907
-14.393 -14.391 -14.378 -14.372 -14.356 -14.348 -14.342 -14.333
-14.326 -14.324 -10.268 -10.268 -10.261 -10.261 -10.258 -10.254
-10.246 -10.245 -10.244 -10.243 -10.243 -10.239 -10.237 -10.234
-10.233 -10.232 -10.229 -10.229 -10.228 -10.228 -10.226 -10.226
-10.225 -10.225 -10.223 -10.223 -10.221 -10.221 -10.221 -10.216
-10.214 -10.210 -10.209 -10.206 -10.205 -10.201 -10.198 -10.192
-10.182 -10.182 -10.181 -10.180 -10.179 -10.178 -10.175 -10.173
-10.173 -10.172 -10.171 -10.171  -8.046  -8.041  -7.988  -7.987
 -7.981  -7.981  -7.972  -7.968  -6.010  -6.006  -6.005  -6.003
 -6.000  -5.998  -5.952  -5.950  -5.949  -5.947  -5.945  -5.945
 -5.945  -5.943  -5.942  -5.941  -5.938  -5.937  -5.937  -5.933
 -5.932  -5.929  -5.929  -5.924  -1.052  -1.050  -0.995  -0.988
 -0.951  -0.948  -0.942  -0.935  -0.917  -0.914  -0.912  -0.908
 -0.844  -0.841  -0.828  -0.824  -0.820  -0.811  -0.811  -0.808
 -0.808  -0.800  -0.794  -0.790  -0.784  -0.779  -0.768  -0.764
 -0.752  -0.752  -0.743  -0.741  -0.722  -0.722  -0.712  -0.704
 -0.695  -0.688  -0.676  -0.674  -0.655  -0.653  -0.644  -0.641
 -0.636  -0.632  -0.623  -0.621  -0.611  -0.611  -0.605  -0.596
 -0.593  -0.593  -0.587  -0.581  -0.579  -0.577  -0.576  -0.572
 -0.557  -0.543  -0.540  -0.534  -0.530  -0.524  -0.521  -0.520
 -0.504  -0.503  -0.502  -0.495  -0.486  -0.486  -0.480  -0.478
 -0.475  -0.471  -0.467  -0.466  -0.466  -0.456  -0.449  -0.445
 -0.442  -0.442  -0.441  -0.437  -0.436  -0.432  -0.431  -0.431
 -0.430  -0.423  -0.423  -0.419  -0.417  -0.415  -0.414  -0.411
 -0.410  -0.408  -0.403  -0.402  -0.401  -0.400  -0.398  -0.396
 -0.396  -0.392  -0.392  -0.390  -0.386  -0.385  -0.382  -0.380
 -0.378  -0.377  -0.375  -0.372  -0.367  -0.359  -0.357  -0.356
 -0.355  -0.354  -0.351  -0.351  -0.349  -0.345  -0.342  -0.339
 -0.337  -0.336  -0.334  -0.332  -0.329  -0.325  -0.321  -0.318
 -0.317  -0.315  -0.310  -0.308  -0.307  -0.305  -0.302  -0.300
 -0.300  -0.298  -0.295  -0.290  -0.288  -0.285  -0.284  -0.277
 -0.274  -0.271  -0.266  -0.265  -0.258  -0.254  -0.250  -0.248
 -0.242  -0.242  -0.231  -0.229  -0.194  -0.190

          Ground-State Mulliken Net Atomic Charges

     Atom                 Charge (a.u.)
  ----------------------------------------
      1 C                     0.264018
      2 C                    -0.120320
      3 N                    -0.468610
      4 C                    -0.075460
      5 C                     0.088999
      6 C                     0.028396
      7 C                     0.022318
      8 C                     0.068934
      9 C                     0.230538
     10 N                    -0.529280
     11 N                    -0.557812
     12 C                     0.208694
     13 C                     0.295927
     14 S                     0.596772
     15 N                    -0.539864
     16 C                    -0.241013
     17 S                     0.356933
     18 C                    -0.105330
     19 C                    -0.208295
     20 S                     0.309626
     21 C                     0.118909
     22 C                     0.080529
     23 C                    -0.315231
     24 C                    -0.082030
     25 N                    -0.425620
     26 S                     0.252232
     27 C                     0.121675
     28 C                    -0.316302
     29 C                    -0.231679
     30 H                     0.089440
     31 H                     0.104106
     32 H                     0.112615
     33 H                     0.105741
     34 H                     0.121544
     35 H                     0.123850
     36 H                     0.115525
     37 H                     0.134745
     38 H                     0.096533
     39 C                    -0.169915
     40 H                     0.116380
     41 H                     0.091394
     42 H                     0.112397
     43 C                    -0.174506
     44 H                     0.086586
     45 C                    -0.173660
     46 H                     0.092453
     47 H                     0.089403
     48 H                     0.088935
     49 C                    -0.169663
     50 H                     0.095073
     51 C                    -0.325887
     52 H                     0.099525
     53 H                     0.101773
     54 H                     0.098248
     55 H                     0.101698
     56 C                     0.259546
     57 C                    -0.103637
     58 N                    -0.492064
     59 C                    -0.074881
     60 C                     0.088661
     61 C                     0.025983
     62 C                     0.017308
     63 C                     0.049011
     64 C                     0.287288
     65 N                    -0.480097
     66 N                    -0.578967
     67 C                     0.203184
     68 C                     0.238453
     69 S                     0.586011
     70 N                    -0.531821
     71 C                    -0.197586
     72 S                     0.297604
     73 C                    -0.111335
     74 C                    -0.252483
     75 S                     0.280601
     76 C                     0.189606
     77 C                     0.084878
     78 C                    -0.309599
     79 C                    -0.081500
     80 N                    -0.414034
     81 S                     0.265022
     82 C                     0.117234
     83 C                    -0.299320
     84 C                    -0.217930
     85 H                     0.081742
     86 H                     0.106071
     87 H                     0.096909
     88 H                     0.121853
     89 H                     0.136639
     90 H                     0.118639
     91 H                     0.108713
     92 H                     0.128070
     93 H                     0.088333
     94 C                    -0.165886
     95 H                     0.127135
     96 H                     0.087289
     97 H                     0.114760
     98 C                    -0.176869
     99 H                     0.086472
    100 C                    -0.184654
    101 H                     0.097816
    102 H                     0.089697
    103 H                     0.095363
    104 C                    -0.177133
    105 H                     0.095773
    106 C                    -0.316381
    107 H                     0.098784
    108 H                     0.101859
    109 H                     0.104615
    110 H                     0.097271
  ----------------------------------------
  Sum of atomic charges =     0.000000

                    Cartesian Multipole Moments
 -----------------------------------------------------------------
    Charge (ESU x 10^10)
                 0.0000
    Dipole Moment (Debye)
         X       0.3099      Y      -2.1085      Z       4.2449
       Tot       4.7498
    Quadrupole Moments (Debye-Ang)
        XX    -387.8042     XY       6.1739     YY    -453.4142
        XZ       5.6800     YZ     -19.5393     ZZ    -437.2164

 Total job time:  92.43s(wall), 1018.12s(cpu)
        *  Thank you very much for using Q-Chem.  Have a nice day.  *
