 Q-Chem 4.4, Q-Chem, Inc., Pleasanton, CA (2016)
 Q-Chem 4.4.2 for Intel X86 Linux

User input:
--------------------------------------------------------------
$comment
SP
$end

$rem
MEM_STATIC 5000
MEM_TOTAL 20000
JOBTYPE SP
EXCHANGE B3LYP
BASIS 6-31g(d,p)
$end

$molecule
0 1
C           3.608000    -17.980000     -5.512000
C           2.907000    -18.600000     -4.379000
N           3.025000    -17.019000     -6.266000
C           1.611000    -18.138000     -4.090000
C           1.749000    -16.649000     -5.984000
C           0.996000    -17.187000     -4.923000
C          -0.341000    -16.688000     -4.646000
C          -0.680000    -15.269000     -4.724000
C          -1.385000    -17.590000     -4.264000
N          -1.884000    -14.777000     -4.383000
N          -1.270000    -18.937000     -4.235000
C          -2.616000    -17.067000     -3.815000
C          -2.797000    -15.649000     -3.906000
S          -2.710000    -19.399000     -3.634000
N          -3.530000    -17.971000     -3.424000
C          -3.974000    -14.927000     -3.344000
S          -4.971000    -15.524000     -2.036000
C          -4.405000    -13.623000     -3.497000
C          -5.912000    -14.050000     -1.728000
S          -3.809000    -12.490000     -4.652000
C          -5.483000    -13.171000     -2.725000
C          -6.800000    -13.772000     -0.682000
C          -5.155000    -11.344000     -4.171000
C          -5.985000    -11.900000     -3.178000
N          -7.190000    -12.517000     -0.560000
S          -7.041000    -14.841000      0.727000
C          -7.655000    -12.310000      0.682000
C          -7.715000    -13.401000      1.528000
C           5.038000    -18.339000     -5.879000
H           3.434000    -19.246000     -3.684000
H           1.079000    -18.617000     -3.274000
H           1.317000    -15.819000     -6.540000
H           0.091000    -14.573000     -5.052000
H          -5.295000    -10.437000     -4.743000
H          -6.911000    -11.422000     -2.881000
H          -7.819000    -11.266000      0.915000
H          -7.952000    -13.441000      2.583000
H           5.229000    -19.379000     -5.590000
C           6.058000    -17.358000     -5.217000
H           5.057000    -18.393000     -6.974000
H           7.019000    -17.885000     -5.263000
H           5.775000    -17.276000     -4.160000
C           6.163000    -15.956000     -5.858000
H           6.770000    -15.990000     -6.771000
C           6.837000    -14.934000     -4.893000
H           5.160000    -15.557000     -6.053000
H           7.893000    -15.227000     -4.842000
H           6.426000    -15.127000     -3.895000
C           6.628000    -13.461000     -5.312000
H           5.580000    -13.325000     -5.605000
C           7.513000    -13.067000     -6.523000
H           6.870000    -12.791000     -4.478000
H           7.201000    -12.167000     -7.068000
H           7.727000    -13.886000     -7.221000
H           8.542000    -12.865000     -6.200000
C           2.552000    -19.423000      0.911000
C           1.615000    -19.367000      1.903000
N           2.292000    -20.010000     -0.274000
C           0.356000    -20.027000      1.772000
C           1.119000    -20.647000     -0.442000
C           0.127000    -20.790000      0.559000
C          -1.119000    -21.663000      0.426000
C          -1.605000    -21.781000     -0.928000
C          -1.774000    -22.445000      1.425000
N          -2.690000    -22.546000     -1.296000
N          -1.449000    -22.446000      2.737000
C          -2.752000    -23.271000      1.047000
C          -3.232000    -23.320000     -0.304000
S          -2.524000    -23.585000      3.354000
N          -3.238000    -24.069000      1.963000
C          -4.539000    -23.977000     -0.688000
S          -5.912000    -24.214000      0.427000
C          -4.799000    -24.658000     -1.851000
C          -6.764000    -25.270000     -0.721000
S          -3.693000    -25.021000     -3.115000
C          -5.997000    -25.329000     -1.880000
C          -8.061000    -25.851000     -0.404000
C          -4.928000    -26.001000     -3.868000
C          -6.131000    -26.039000     -3.093000
N          -8.822000    -26.186000     -1.383000
S          -8.635000    -25.902000      1.234000
C          -9.936000    -26.668000     -0.786000
C          -9.882000    -26.891000      0.540000
C           3.973000    -18.827000      1.046000
H           1.844000    -18.807000      2.805000
H          -0.336000    -19.917000      2.602000
H           0.904000    -21.108000     -1.405000
H          -1.137000    -21.222000     -1.737000
H          -4.586000    -26.563000     -4.728000
H          -6.993000    -26.659000     -3.311000
H         -10.790000    -26.726000     -1.448000
H         -10.625000    -27.292000      1.216000
H           4.116000    -18.583000      2.106000
C           4.462000    -17.774000      0.089000
H           4.488000    -19.787000      0.922000
H           3.808000    -16.896000      0.161000
H           4.343000    -18.123000     -0.944000
C           5.879000    -17.374000      0.321000
H           6.005000    -17.236000      1.402000
C           6.327000    -16.045000     -0.486000
H           6.540000    -18.195000      0.018000
H           5.503000    -15.327000     -0.391000
H           6.367000    -16.277000     -1.558000
C           7.716000    -15.512000      0.065000
H           7.675000    -15.414000      1.157000
C           8.136000    -14.252000     -0.730000
H           8.459000    -16.272000     -0.207000
H           7.336000    -13.529000     -0.533000
H           8.176000    -14.473000     -1.804000
H           9.095000    -13.794000     -0.458000
$end

--------------------------------------------------------------

             Standard Nuclear Orientation (Angstroms)
    I     Atom           X                Y                Z
 ----------------------------------------------------------------
    1      C       5.4670631018     2.3715096605     2.7888041315
    2      C       4.2842177451     2.5052788300     1.9271355925
    3      N       5.8153989397     1.1830000868     3.3347282446
    4      C       3.5380290007     1.3420409704     1.6689475993
    5      C       5.0284793432     0.1003042732     3.1042345920
    6      C       3.8755433098     0.1302442179     2.2967594514
    7      C       3.1248300165    -1.0889431075     2.0451430434
    8      C       3.7755661148    -2.3738918423     1.8001628824
    9      C       1.6938237411    -1.0636292208     2.0128282347
   10      N       3.1038354312    -3.4923120621     1.4747783392
   11      N       0.9332779275     0.0141028185     2.3103827959
   12      C       0.9950733473    -2.2097757503     1.5785621642
   13      C       1.7658357344    -3.3912190320     1.3297989940
   14      S      -0.5713628376    -0.5216596844     1.9985179079
   15      N      -0.3426979266    -2.0960416063     1.5244736880
   16      C       1.2037249296    -4.6355031703     0.7312629248
   17      S      -0.2274379738    -4.6930578178    -0.2735963721
   18      C       1.7326492886    -5.9050602014     0.5969127581
   19      C      -0.0839176402    -6.3695685112    -0.8408130931
   20      S       3.1622981782    -6.4910227486     1.3622113572
   21      C       1.0249345933    -6.8584376731    -0.1464467152
   22      C      -0.8253289273    -7.0353423006    -1.8241739448
   23      C       2.7583056546    -8.1709495848     0.7530899686
   24      C       1.5534292049    -8.1867525685     0.0236326316
   25      N      -0.3632818250    -8.2082087675    -2.2152055626
   26      S      -2.0128745529    -6.2316214181    -2.8871373167
   27      C      -0.8820147862    -8.5182923741    -3.4137055717
   28      C      -1.8118232983    -7.6469159351    -3.9482672915
   29      C       6.3960100774     3.5374573249     3.0822211737
   30      H       4.1047865292     3.4162128552     1.3649313231
   31      H       2.6457308314     1.4445291702     1.0593402289
   32      H       5.3593749473    -0.8674270382     3.4766110253
   33      H       4.8621310180    -2.4202787931     1.8607100685
   34      H       3.3581837075    -9.0048557820     1.0909949493
   35      H       1.0903949562    -9.1165423191    -0.2850084289
   36      H      -0.4103205517    -9.3720990188    -3.8823629760
   37      H      -2.2694106247    -7.6460250015    -4.9287809554
   38      H       5.8200022571     4.4693406655     3.0446654752
   39      C       7.6046122016     3.5641689757     2.0924876777
   40      H       6.6426646136     3.4574263367     4.1476124542
   41      H       8.0021412480     4.5837808074     2.1681736734
   42      H       7.1883236171     3.4445093993     1.0842975170
   43      C       8.7117673439     2.5168477228     2.3471161997
   44      H       9.3638791824     2.8323315795     3.1707630210
   45      C       9.6149705911     2.3213770585     1.0917277683
   46      H       8.2618589051     1.5351789569     2.5398435476
   47      H      10.2053166456     3.2420500572     1.0054794912
   48      H       8.9465516268     2.3138512465     0.2226285506
   49      C      10.4788970076     1.0409633712     1.1477896668
   50      H       9.8555314322     0.2126231214     1.5054442348
   51      C      11.6767552312     1.1867483435     2.1218863857
   52      H      10.8734543210     0.8052206257     0.1519132265
   53      H      12.1378105885     0.2477157166     2.4535709997
   54      H      11.4954151552     1.8505145815     2.9764571306
   55      H      12.4892316359     1.7556785640     1.6526588331
   56      C       2.2217750385     3.5213702534    -2.9206827108
   57      C       1.3187749679     2.9812260526    -3.7913170284
   58      N       1.9508488542     3.6412100027    -1.6059084195
   59      C       0.0033242836     2.6230898867    -3.3680322733
   60      C       0.7226676954     3.3183396582    -1.1617825569
   61      C      -0.3473700648     2.8904461794    -1.9854574700
   62      C      -1.7853399102     2.6985094713    -1.5082394655
   63      C      -1.8911137237     2.3010590776    -0.1246639941
   64      C      -3.0023137700     2.9664892003    -2.2051695118
   65      N      -3.0849717547     2.1069448446     0.5348029622
   66      N      -3.0801730895     3.3407262756    -3.5016472547
   67      C      -4.1521709019     2.8870315109    -1.5319986183
   68      C      -4.2112340088     2.4427699048    -0.1692274802
   69      S      -4.7389735346     3.5496693043    -3.6975015218
   70      N      -5.2332670735     3.2684208593    -2.1627356733
   71      C      -5.4990123878     2.0200757967     0.5018243340
   72      S      -6.9386229366     1.4240503409    -0.3681171146
   73      C      -5.8338362499     2.2122441323     1.8189782021
   74      C      -7.9508834644     1.5050126048     1.0905527369
   75      S      -4.9302746278     3.0585747150     3.0106165449
   76      C      -7.1355718751     1.9148944086     2.1404645996
   77      C      -9.3542792265     1.1174846862     1.0668578637
   78      C      -6.2760091618     2.8781226937     4.1101935690
   79      C      -7.3826116326     2.2057069855     3.4998116500
   80      N      -9.8908585897     0.7446639331     2.1726943223
   81      S     -10.2110219491     0.9745808137    -0.4367017096
   82      C     -11.1645700105     0.4385201275     1.8355531254
   83      C     -11.5856266924     0.8000189048     0.6096041442
   84      C       3.6168531842     4.0344020028    -3.3487450795
   85      H       1.6186205796     2.8266551945    -4.8237149453
   86      H      -0.6444806041     2.1850992090    -4.1219400884
   87      H       0.5097242880     3.4013988891    -0.0969486406
   88      H      -0.9982777162     2.0978658650     0.4648632589
   89      H      -6.1627121944     3.4163333783     5.0428784333
   90      H      -8.3567899527     2.0695583095     3.9552324869
   91      H     -11.6748214563    -0.1626162451     2.5766351206
   92      H     -12.5522111575     0.6884089908     0.1372867731
   93      H       3.6175157932     4.0763634895    -4.4450223230
   94      C       4.8689788616     3.4610453813    -2.7427562410
   95      H       3.4319903796     5.0709446140    -3.0427938439
   96      H       4.9120448272     2.3871855260    -2.9635600765
   97      H       4.8141980832     3.5160190779    -1.6486685118
   98      C       6.1154215573     4.1284397043    -3.2146443886
   99      H       6.0323138224     4.2402757243    -4.3027927282
  100      C       7.4725122610     3.3416251301    -2.8178804187
  101      H       6.1692137137     5.1367060341    -2.7865364440
  102      H       7.2839153105     2.2768653253    -3.0029283814
  103      H       7.6183203040     3.4101650030    -1.7322237969
  104      C       8.7034370830     3.9305902236    -3.6271734441
  105      H       8.4685589432     3.9631208526    -4.6983984520
  106      C       9.9938117716     3.1778751190    -3.2217377100
  107      H       8.8486648246     4.9515530420    -3.2527714857
  108      H       9.8013825553     2.1376102520    -3.5087185514
  109      H      10.1469575666     3.2380205731    -2.1369124292
  110      H      10.9260882412     3.5046789547    -3.6986956086
 ----------------------------------------------------------------

   10   -5663.4919412400      9.07E-06 Convergence criterion met
 Total energy in the final basis set = -5663.4919412400

                    Orbital Energies (a.u.)
 --------------------------------------------------------------

 Alpha MOs
 -- Occupied --
-88.992 -88.986 -88.928 -88.925 -88.924 -88.914 -88.909 -88.899
-14.395 -14.393 -14.392 -14.389 -14.360 -14.353 -14.344 -14.339
-14.335 -14.329 -10.272 -10.270 -10.267 -10.266 -10.261 -10.258
-10.257 -10.257 -10.248 -10.245 -10.243 -10.242 -10.239 -10.238
-10.237 -10.236 -10.233 -10.231 -10.231 -10.230 -10.228 -10.228
-10.227 -10.226 -10.226 -10.224 -10.224 -10.223 -10.222 -10.221
-10.208 -10.207 -10.206 -10.206 -10.203 -10.201 -10.200 -10.197
-10.188 -10.185 -10.184 -10.184 -10.184 -10.179 -10.178 -10.177
-10.172 -10.172 -10.170 -10.167  -8.048  -8.041  -7.990  -7.985
 -7.984  -7.974  -7.971  -7.959  -6.013  -6.008  -6.006  -6.006
 -6.001  -5.999  -5.954  -5.951  -5.949  -5.948  -5.947  -5.946
 -5.944  -5.942  -5.941  -5.938  -5.935  -5.934  -5.932  -5.931
 -5.927  -5.923  -5.920  -5.915  -1.052  -1.040  -0.997  -0.974
 -0.957  -0.952  -0.943  -0.929  -0.919  -0.915  -0.914  -0.906
 -0.846  -0.833  -0.833  -0.832  -0.822  -0.813  -0.805  -0.804
 -0.800  -0.798  -0.795  -0.792  -0.784  -0.776  -0.767  -0.763
 -0.755  -0.745  -0.742  -0.731  -0.725  -0.709  -0.708  -0.705
 -0.692  -0.686  -0.677  -0.672  -0.658  -0.653  -0.649  -0.646
 -0.640  -0.633  -0.627  -0.622  -0.614  -0.609  -0.600  -0.596
 -0.595  -0.590  -0.588  -0.581  -0.577  -0.576  -0.573  -0.560
 -0.559  -0.548  -0.538  -0.534  -0.533  -0.525  -0.523  -0.508
 -0.507  -0.501  -0.501  -0.500  -0.492  -0.486  -0.483  -0.474
 -0.473  -0.470  -0.469  -0.467  -0.462  -0.454  -0.453  -0.446
 -0.445  -0.444  -0.438  -0.435  -0.434  -0.433  -0.431  -0.426
 -0.426  -0.424  -0.422  -0.421  -0.420  -0.417  -0.414  -0.412
 -0.409  -0.407  -0.405  -0.403  -0.401  -0.397  -0.396  -0.395
 -0.394  -0.393  -0.390  -0.388  -0.387  -0.385  -0.383  -0.381
 -0.380  -0.377  -0.373  -0.372  -0.362  -0.362  -0.360  -0.358
 -0.355  -0.349  -0.347  -0.347  -0.345  -0.345  -0.341  -0.340
 -0.339  -0.334  -0.333  -0.330  -0.327  -0.326  -0.323  -0.321
 -0.319  -0.316  -0.315  -0.312  -0.310  -0.306  -0.304  -0.304
 -0.301  -0.300  -0.297  -0.292  -0.291  -0.289  -0.285  -0.284
 -0.280  -0.275  -0.271  -0.262  -0.258  -0.256  -0.246  -0.245
 -0.245  -0.234  -0.234  -0.227  -0.193  -0.188

          Ground-State Mulliken Net Atomic Charges

     Atom                 Charge (a.u.)
  ----------------------------------------
      1 C                     0.253170
      2 C                    -0.130699
      3 N                    -0.472219
      4 C                    -0.059957
      5 C                     0.065413
      6 C                     0.048163
      7 C                    -0.006092
      8 C                     0.075530
      9 C                     0.219738
     10 N                    -0.506753
     11 N                    -0.543874
     12 C                     0.222384
     13 C                     0.295583
     14 S                     0.614492
     15 N                    -0.546425
     16 C                    -0.209899
     17 S                     0.294837
     18 C                    -0.121492
     19 C                    -0.238335
     20 S                     0.260310
     21 C                     0.160675
     22 C                     0.062216
     23 C                    -0.312408
     24 C                    -0.043799
     25 N                    -0.423750
     26 S                     0.259427
     27 C                     0.136161
     28 C                    -0.320009
     29 C                    -0.226246
     30 H                     0.110924
     31 H                     0.111714
     32 H                     0.100186
     33 H                     0.117775
     34 H                     0.126052
     35 H                     0.125165
     36 H                     0.111811
     37 H                     0.135038
     38 H                     0.094867
     39 C                    -0.184319
     40 H                     0.118589
     41 H                     0.094091
     42 H                     0.096997
     43 C                    -0.171184
     44 H                     0.094909
     45 C                    -0.189607
     46 H                     0.120986
     47 H                     0.085954
     48 H                     0.091468
     49 C                    -0.173255
     50 H                     0.099175
     51 C                    -0.325392
     52 H                     0.095719
     53 H                     0.100808
     54 H                     0.103565
     55 H                     0.098359
     56 C                     0.263340
     57 C                    -0.120629
     58 N                    -0.498888
     59 C                    -0.070485
     60 C                     0.083771
     61 C                     0.016770
     62 C                     0.019435
     63 C                     0.049599
     64 C                     0.276927
     65 N                    -0.487861
     66 N                    -0.571588
     67 C                     0.203363
     68 C                     0.241387
     69 S                     0.587292
     70 N                    -0.531566
     71 C                    -0.198157
     72 S                     0.300190
     73 C                    -0.111150
     74 C                    -0.253226
     75 S                     0.278945
     76 C                     0.189421
     77 C                     0.084133
     78 C                    -0.307851
     79 C                    -0.081286
     80 N                    -0.413484
     81 S                     0.267340
     82 C                     0.116822
     83 C                    -0.297356
     84 C                    -0.215093
     85 H                     0.089190
     86 H                     0.118392
     87 H                     0.101437
     88 H                     0.116865
     89 H                     0.137544
     90 H                     0.119820
     91 H                     0.109920
     92 H                     0.129069
     93 H                     0.088181
     94 C                    -0.167940
     95 H                     0.121837
     96 H                     0.092337
     97 H                     0.112338
     98 C                    -0.178403
     99 H                     0.087342
    100 C                    -0.192742
    101 H                     0.095249
    102 H                     0.092316
    103 H                     0.102889
    104 C                    -0.177453
    105 H                     0.097474
    106 C                    -0.322684
    107 H                     0.097584
    108 H                     0.102931
    109 H                     0.111735
    110 H                     0.098122
  ----------------------------------------
  Sum of atomic charges =     0.000000

                    Cartesian Multipole Moments
 -----------------------------------------------------------------
    Charge (ESU x 10^10)
                 0.0000
    Dipole Moment (Debye)
         X      -3.7874      Y       1.3041      Z      -4.4225
       Tot       5.9668
    Quadrupole Moments (Debye-Ang)
        XX    -409.8182     XY       5.4491     YY    -435.8693
        XZ       3.1500     YZ       9.7825     ZZ    -427.8515

 Total job time:  94.08s(wall), 1058.15s(cpu)
        *  Thank you very much for using Q-Chem.  Have a nice day.  *
