 Q-Chem 4.4, Q-Chem, Inc., Pleasanton, CA (2016)
 Q-Chem 4.4.2 for Intel X86 Linux

User input:
--------------------------------------------------------------
$comment
SP
$end

$rem
MEM_STATIC 5000
MEM_TOTAL 20000
JOBTYPE SP
EXCHANGE B3LYP
BASIS 6-31g(d,p)
$end

$molecule
0 1
C          -7.338000     26.442000    -12.963000
C          -6.325000     25.486000    -12.619000
N          -7.139000     27.732000    -12.799000
C          -5.146000     25.936000    -12.046000
C          -6.017000     28.196000    -12.263000
C          -4.939000     27.303000    -11.863000
C          -3.675000     27.778000    -11.211000
C          -2.472000     26.986000    -11.344000
C          -3.559000     29.019000    -10.492000
N          -1.309000     27.413000    -10.765000
N          -4.611000     29.761000    -10.169000
C          -2.381000     29.371000     -9.893000
C          -1.192000     28.556000    -10.053000
S          -3.983000     30.972000     -9.208000
N          -2.428000     30.458000     -9.170000
C           0.013000     28.853000     -9.321000
S           0.335000     29.845000     -7.875000
C           1.268000     28.302000     -9.653000
C           1.985000     29.234000     -7.653000
S           1.648000     27.284000    -10.999000
C           2.346000     28.525000     -8.778000
C           2.889000     29.538000     -6.596000
C           3.306000     27.099000    -10.394000
C           3.543000     27.844000     -9.222000
N           2.361000     30.022000     -5.490000
S           4.670000     29.359000     -6.589000
C           3.348000     30.261000     -4.557000
C           4.652000     29.980000     -4.960000
C          -8.578000     26.099000    -13.711000
H          -6.517000     24.447000    -12.872000
H          -4.323000     25.273000    -11.794000
H          -5.992000     29.248000    -11.984000
H          -2.417000     26.083000    -11.950000
H           3.896000     26.306000    -10.834000
H           4.507000     27.874000     -8.728000
H           2.979000     30.740000     -3.660000
H           5.574000     29.953000     -4.394000
H          -8.621000     25.009000    -13.592000
C          -8.588000     26.453000    -15.203000
H          -9.410000     26.595000    -13.196000
H          -7.739000     25.879000    -15.592000
H          -8.351000     27.518000    -15.318000
C          -9.949000     26.007000    -15.783000
H         -10.779000     26.304000    -15.129000
C          -9.985000     24.501000    -16.123000
H         -10.148000     26.473000    -16.756000
H          -9.914000     24.021000    -15.139000
H          -9.102000     24.256000    -16.726000
C         -11.239000     24.053000    -16.937000
H         -12.042000     24.317000    -16.238000
C         -11.230000     22.541000    -17.345000
H         -11.373000     24.644000    -17.852000
H         -10.500000     22.378000    -18.148000
H         -12.150000     22.410000    -17.929000
H         -10.994000     21.869000    -16.511000
C          19.197000     20.020000    -10.109000
C          18.072000     19.329000     -9.558000
N          19.108000     21.012000    -10.907000
C          16.744000     19.731000     -9.853000
C          17.876000     21.460000    -11.163000
C          16.666000     20.927000    -10.512000
C          15.315000     21.573000    -10.831000
C          15.116000     22.226000    -12.151000
C          14.141000     21.538000    -10.058000
N          13.937000     22.760000    -12.495000
N          14.027000     20.983000     -8.779000
C          12.963000     22.186000    -10.439000
C          12.855000     22.887000    -11.700000
S          12.479000     21.408000     -8.300000
N          11.920000     22.160000     -9.532000
C          11.673000     23.735000    -12.116000
S          10.261000     24.236000    -11.166000
C          11.672000     24.458000    -13.292000
C           9.562000     25.269000    -12.492000
S          12.740000     24.445000    -14.669000
C          10.491000     25.183000    -13.488000
C           8.229000     25.816000    -12.618000
C          11.643000     25.655000    -15.472000
C          10.568000     25.917000    -14.665000
N           7.684000     25.889000    -13.845000
S           7.279000     26.626000    -11.295000
C           6.527000     26.616000    -13.802000
C           6.132000     27.044000    -12.555000
C          20.639000     19.592000     -9.875000
H          18.267000     18.399000     -9.034000
H          15.890000     19.256000     -9.379000
H          17.839000     22.381000    -11.743000
H          15.907000     22.326000    -12.892000
H          11.900000     25.996000    -16.466000
H           9.859000     26.686000    -14.951000
H           6.039000     26.880000    -14.731000
H           5.279000     27.661000    -12.308000
H          21.337000     20.272000    -10.379000
C          20.930000     18.087000    -10.177000
H          20.946000     19.731000     -8.831000
H          20.505000     17.415000     -9.421000
H          22.013000     17.920000    -10.135000
C          20.543000     17.620000    -11.622000
H          20.735000     16.540000    -11.639000
C          21.363000     18.310000    -12.803000
H          19.476000     17.754000    -11.837000
H          22.448000     18.332000    -12.645000
H          21.045000     19.359000    -12.833000
C          21.085000     17.561000    -14.158000
H          21.882000     17.840000    -14.858000
C          19.901000     18.128000    -14.823000
H          21.151000     16.477000    -14.005000
H          19.007000     18.048000    -14.193000
H          19.679000     17.648000    -15.784000
H          19.859000     19.216000    -14.962000
$end

--------------------------------------------------------------

             Standard Nuclear Orientation (Angstroms)
    I     Atom           X                Y                Z
 ----------------------------------------------------------------
    1      C     -12.8812584897     2.8086456877    -1.0366997997
    2      C     -11.6272101969     2.9675022303    -1.7153517562
    3      N     -13.0609828491     1.8473614356    -0.1567971112
    4      C     -10.6166131210     2.0488825975    -1.4793400608
    5      C     -12.1098150971     0.9580316023     0.0998122324
    6      C     -10.8105686448     1.0238381246    -0.5537634386
    7      C      -9.7241070186     0.0148041244    -0.3304329179
    8      C      -8.3465286397     0.4040092925    -0.5376988028
    9      C      -9.9565501376    -1.3261798509     0.1367182078
   10      N      -7.3444405516    -0.5021730126    -0.3260573763
   11      N     -11.1708797406    -1.8552703392     0.2207650423
   12      C      -8.9179252084    -2.2035779340     0.2844336787
   13      C      -7.5476853022    -1.7770474545     0.0745281061
   14      S     -10.8992846299    -3.4498073455     0.6307819094
   15      N      -9.2616136159    -3.4241161062     0.5985544340
   16      C      -6.4642926888    -2.7265281006     0.1028997101
   17      S      -6.4111010165    -4.5035801945    -0.0309677679
   18      C      -5.1112794905    -2.3438765524     0.2114495975
   19      C      -4.6502785870    -4.5744295929    -0.2299394610
   20      S      -4.4829928766    -0.7466624619     0.4273270623
   21      C      -4.1247392471    -3.3350455629     0.0639357311
   22      C      -3.8496003510    -5.7254645687    -0.4767467678
   23      C      -2.8293404314    -1.3765304757     0.2934843344
   24      C      -2.7920717429    -2.7760688876     0.1363815704
   25      N      -4.4701553133    -6.7819960793    -0.9614412137
   26      S      -2.0934635712    -5.9228374920    -0.1920038319
   27      C      -3.5740167204    -7.8119561941    -1.1561121773
   28      C      -2.2539605484    -7.5512335108    -0.7938120459
   29      C     -13.9851700972     3.8049179721    -1.0964802156
   30      H     -11.5155289419     3.8395840060    -2.3536265197
   31      H      -9.6313412965     2.1282676381    -1.9302718152
   32      H     -12.3844680368     0.0864309546     0.6914608390
   33      H      -8.0458717701     1.4193422054    -0.7914201516
   34      H      -2.0449200536    -0.6476058010     0.1388800343
   35      H      -1.8672605301    -3.3365564004     0.0670276321
   36      H      -4.0456939390    -8.7326761601    -1.4723499766
   37      H      -1.3511967506    -8.1241746115    -0.9609198570
   38      H     -13.7077654178     4.3989372605    -1.9764221051
   39      C     -14.1309219414     4.7271710096     0.1199431214
   40      H     -14.9133865341     3.2445189167    -1.2633099041
   41      H     -13.1609986027     5.2368415493     0.1528468899
   42      H     -14.2153676037     4.1125979538     1.0248121114
   43      C     -15.3169781418     5.6796503552    -0.1515173464
   44      H     -16.1824830260     5.1363666075    -0.5522280461
   45      C     -14.9226604297     6.8820187501    -1.0368171741
   46      H     -15.6643387921     6.1676813155     0.7675323586
   47      H     -14.6934687749     6.4160810318    -2.0032902612
   48      H     -14.0203642322     7.3449575142    -0.6186398523
   49      C     -16.0110261857     7.9964127876    -1.1337806231
   50      H     -16.8401204099     7.4346449282    -1.5811346658
   51      C     -15.5734438892     9.2468340559    -1.9690394965
   52      H     -16.3311104644     8.3513182359    -0.1458281053
   53      H     -14.8458085135     9.8377488115    -1.3983867899
   54      H     -16.4289129535     9.9314269684    -1.9048349463
   55      H     -15.1341146284     8.9868415848    -2.9397246749
   56      C      14.4334060652     0.1004467795    -1.2982030034
   57      C      13.5696280855     0.3004029729    -2.4209728473
   58      N      14.0428089192     0.1089330718    -0.0832335172
   59      C      12.1758253246     0.5021626088    -2.2512085606
   60      C      12.7284094849     0.2359290520     0.1174905421
   61      C      11.7397667931     0.2756793246    -0.9747528116
   62      C      10.2527084139     0.3480049083    -0.6173953059
   63      C       9.8433432983     0.9850571257     0.6612737969
   64      C       9.1569446271    -0.0212603652    -1.4173796066
   65      N       8.5527522183     1.1168356007     0.9937525146
   66      N       9.2375007232    -0.6345915914    -2.6720498909
   67      C       7.8334413811     0.0677586092    -0.9778755907
   68      C       7.4985662728     0.6143651949     0.3191463453
   69      S       7.6439610608    -1.0013899804    -3.0360008302
   70      N       6.8634313044    -0.4318551165    -1.8267811074
   71      C       6.1124900420     0.6064794693     0.9257883302
   72      S       4.6376614609    -0.1908113655     0.3457426586
   73      C       5.8755341353     1.0562031678     2.2092627137
   74      C       3.6396289499     0.2997264845     1.7870163053
   75      S       6.8701825041     1.9351225779     3.3384647740
   76      C       4.5310128428     0.9564278029     2.5849079859
   77      C       2.2028286298     0.2829876377     1.9522393407
   78      C       5.4518184325     1.9835619340     4.4778571512
   79      C       4.3654791851     1.3867935126     3.8954032984
   80      N       1.6325727639     1.2684619499     2.6674537333
   81      S       1.0889090341    -1.0702531930     1.4655655399
   82      C       0.3158178347     0.9806397456     2.8962371136
   83      C      -0.1580759412    -0.1715207023     2.3112849860
   84      C      15.9424477929    -0.0579280274    -1.4207366100
   85      H      14.0375116762     0.4447918612    -3.3893414726
   86      H      11.5070191101     0.5805425337    -3.1033657261
   87      H      12.4130514153     0.1130399692     1.1526028844
   88      H      10.5545271402     1.3546725507     1.3977274482
   89      H       5.5765209918     2.4877041785     5.4268860597
   90      H       3.4578023952     1.2480850154     4.4722228525
   91      H      -0.2485376120     1.6098369638     3.5718810956
   92      H      -1.1474851886    -0.5986845032     2.4002087078
   93      H      16.4019071234    -0.2142577658    -0.4368269920
   94      C      16.6502135661     1.0590786140    -2.2527665214
   95      H      16.2194230735    -0.9947704549    -1.9198527887
   96      H      16.4553243087     0.9712873381    -3.3288965643
   97      H      17.7357964951     0.9463586659    -2.1462493045
   98      C      16.3827122700     2.5200341719    -1.7528316110
   99      H      16.8790105684     3.1717875519    -2.4825291720
  100      C      16.9407609341     2.8542786689    -0.2967672908
  101      H      15.3181057065     2.7828049229    -1.7681416537
  102      H      17.9760999121     2.5350311918    -0.1269813992
  103      H      16.3318275606     2.2791882797     0.4109729094
  104      C      16.8613004956     4.4031903478    -0.0343389205
  105      H      17.5272766183     4.6291519107     0.8073660017
  106      C      15.5491336008     4.7607090210     0.5277717790
  107      H      17.2420261446     4.9489232617    -0.9061442697
  108      H      14.7311012836     4.4810602069    -0.1468804786
  109      H      15.4541751818     5.8316276836     0.7453059530
  110      H      15.1905278970     4.1976989382     1.3991216489
 ----------------------------------------------------------------

    9   -5663.4996207357      7.87E-06 Convergence criterion met
 Total energy in the final basis set = -5663.4996207357

                    Orbital Energies (a.u.)
 --------------------------------------------------------------

 Alpha MOs
 -- Occupied --
-88.993 -88.986 -88.934 -88.933 -88.929 -88.926 -88.913 -88.905
-14.391 -14.388 -14.384 -14.384 -14.352 -14.351 -14.350 -14.346
-14.330 -14.321 -10.282 -10.273 -10.272 -10.267 -10.261 -10.260
-10.254 -10.252 -10.251 -10.250 -10.249 -10.246 -10.246 -10.245
-10.238 -10.238 -10.236 -10.235 -10.234 -10.234 -10.233 -10.233
-10.232 -10.229 -10.227 -10.225 -10.225 -10.225 -10.222 -10.216
-10.215 -10.215 -10.213 -10.209 -10.205 -10.204 -10.201 -10.192
-10.185 -10.182 -10.182 -10.181 -10.179 -10.178 -10.178 -10.177
-10.176 -10.175 -10.174 -10.164  -8.049  -8.042  -7.994  -7.994
 -7.987  -7.984  -7.973  -7.965  -6.014  -6.008  -6.008  -6.007
 -6.002  -6.000  -5.958  -5.957  -5.954  -5.954  -5.952  -5.951
 -5.951  -5.949  -5.948  -5.945  -5.944  -5.941  -5.937  -5.933
 -5.929  -5.929  -5.925  -5.921  -1.046  -1.043  -0.971  -0.967
 -0.962  -0.954  -0.950  -0.944  -0.916  -0.914  -0.911  -0.901
 -0.845  -0.838  -0.831  -0.830  -0.811  -0.810  -0.809  -0.808
 -0.806  -0.801  -0.800  -0.798  -0.781  -0.781  -0.768  -0.767
 -0.748  -0.746  -0.741  -0.738  -0.724  -0.719  -0.713  -0.705
 -0.694  -0.690  -0.677  -0.677  -0.656  -0.654  -0.648  -0.645
 -0.637  -0.636  -0.628  -0.627  -0.614  -0.613  -0.604  -0.598
 -0.596  -0.591  -0.587  -0.583  -0.579  -0.579  -0.567  -0.558
 -0.558  -0.545  -0.544  -0.535  -0.528  -0.523  -0.521  -0.514
 -0.507  -0.503  -0.502  -0.500  -0.490  -0.489  -0.478  -0.477
 -0.475  -0.473  -0.471  -0.465  -0.460  -0.455  -0.454  -0.452
 -0.446  -0.444  -0.442  -0.442  -0.439  -0.436  -0.435  -0.433
 -0.432  -0.429  -0.428  -0.423  -0.422  -0.420  -0.420  -0.413
 -0.412  -0.411  -0.410  -0.407  -0.403  -0.403  -0.400  -0.399
 -0.398  -0.395  -0.393  -0.391  -0.389  -0.388  -0.386  -0.384
 -0.383  -0.380  -0.377  -0.372  -0.364  -0.364  -0.361  -0.356
 -0.354  -0.351  -0.351  -0.349  -0.347  -0.345  -0.343  -0.340
 -0.339  -0.338  -0.337  -0.334  -0.330  -0.330  -0.326  -0.318
 -0.315  -0.315  -0.311  -0.306  -0.304  -0.303  -0.300  -0.299
 -0.297  -0.296  -0.295  -0.294  -0.292  -0.291  -0.291  -0.289
 -0.273  -0.266  -0.265  -0.261  -0.258  -0.254  -0.253  -0.247
 -0.244  -0.241  -0.230  -0.230  -0.197  -0.196

          Ground-State Mulliken Net Atomic Charges

     Atom                 Charge (a.u.)
  ----------------------------------------
      1 C                     0.254807
      2 C                    -0.126329
      3 N                    -0.470286
      4 C                    -0.073017
      5 C                     0.083356
      6 C                     0.026657
      7 C                     0.015014
      8 C                     0.060797
      9 C                     0.250700
     10 N                    -0.533888
     11 N                    -0.557742
     12 C                     0.210236
     13 C                     0.300266
     14 S                     0.586158
     15 N                    -0.564573
     16 C                    -0.180400
     17 S                     0.360365
     18 C                    -0.146828
     19 C                    -0.227577
     20 S                     0.289154
     21 C                     0.153973
     22 C                     0.057985
     23 C                    -0.328840
     24 C                    -0.091202
     25 N                    -0.421821
     26 S                     0.275298
     27 C                     0.120219
     28 C                    -0.317629
     29 C                    -0.210986
     30 H                     0.088608
     31 H                     0.093829
     32 H                     0.127044
     33 H                     0.124294
     34 H                     0.148122
     35 H                     0.119258
     36 H                     0.116787
     37 H                     0.142879
     38 H                     0.086884
     39 C                    -0.168274
     40 H                     0.115601
     41 H                     0.090422
     42 H                     0.114156
     43 C                    -0.178193
     44 H                     0.093122
     45 C                    -0.174380
     46 H                     0.086183
     47 H                     0.090906
     48 H                     0.089098
     49 C                    -0.177575
     50 H                     0.094287
     51 C                    -0.320737
     52 H                     0.092488
     53 H                     0.102995
     54 H                     0.104524
     55 H                     0.108792
     56 C                     0.297032
     57 C                    -0.123510
     58 N                    -0.459012
     59 C                    -0.064710
     60 C                     0.061164
     61 C                     0.027362
     62 C                    -0.005786
     63 C                     0.077553
     64 C                     0.250488
     65 N                    -0.530321
     66 N                    -0.575517
     67 C                     0.118772
     68 C                     0.332718
     69 S                     0.618412
     70 N                    -0.507473
     71 C                    -0.210883
     72 S                     0.302705
     73 C                    -0.109142
     74 C                    -0.233897
     75 S                     0.266526
     76 C                     0.172229
     77 C                     0.037432
     78 C                    -0.320463
     79 C                    -0.030238
     80 N                    -0.412919
     81 S                     0.258693
     82 C                     0.123985
     83 C                    -0.316760
     84 C                    -0.236558
     85 H                     0.091451
     86 H                     0.129879
     87 H                     0.103637
     88 H                     0.126028
     89 H                     0.131872
     90 H                     0.109089
     91 H                     0.119263
     92 H                     0.145287
     93 H                     0.121091
     94 C                    -0.192995
     95 H                     0.103092
     96 H                     0.089670
     97 H                     0.097025
     98 C                    -0.175904
     99 H                     0.085167
    100 C                    -0.188949
    101 H                     0.098350
    102 H                     0.083062
    103 H                     0.109911
    104 C                    -0.167598
    105 H                     0.090971
    106 C                    -0.314244
    107 H                     0.095264
    108 H                     0.095780
    109 H                     0.094238
    110 H                     0.106696
  ----------------------------------------
  Sum of atomic charges =     0.000000

                    Cartesian Multipole Moments
 -----------------------------------------------------------------
    Charge (ESU x 10^10)
                 0.0000
    Dipole Moment (Debye)
         X       0.6366      Y      -0.6711      Z      -1.2589
       Tot       1.5622
    Quadrupole Moments (Debye-Ang)
        XX    -467.6623     XY     -18.8475     YY    -425.7172
        XZ     -17.5137     YZ       0.6736     ZZ    -434.3457

 Total job time:  81.32s(wall), 885.06s(cpu)
        *  Thank you very much for using Q-Chem.  Have a nice day.  *
