 Q-Chem 4.4, Q-Chem, Inc., Pleasanton, CA (2016)
 Q-Chem 4.4.2 for Intel X86 Linux

User input:
--------------------------------------------------------------
$comment
SP
$end

$rem
MEM_STATIC 5000
MEM_TOTAL 20000
JOBTYPE SP
EXCHANGE B3LYP
BASIS 6-31g(d,p)
$end

$molecule
0 1
C          13.549000      8.901000     -3.064000
C          14.836000      9.407000     -3.316000
N          12.506000      9.739000     -2.844000
C          15.003000     10.798000     -3.318000
C          12.691000     11.095000     -2.928000
C          13.924000     11.698000     -3.135000
C          14.135000     13.192000     -3.074000
C          15.317000     13.738000     -3.678000
C          13.183000     14.076000     -2.563000
N          15.487000     15.083000     -3.825000
N          12.018000     13.848000     -1.941000
C          13.431000     15.457000     -2.757000
C          14.605000     15.965000     -3.387000
S          11.287000     15.299000     -1.635000
N          12.399000     16.235000     -2.433000
C          14.882000     17.410000     -3.753000
S          13.851000     18.781000     -3.332000
C          15.913000     17.837000     -4.545000
C          14.785000     19.894000     -4.291000
S          17.257000     17.014000     -5.283000
C          15.839000     19.176000     -4.796000
C          14.580000     21.264000     -4.513000
C          17.752000     18.539000     -5.953000
C          16.833000     19.585000     -5.715000
N          15.564000     22.122000     -4.661000
S          12.968000     21.962000     -4.321000
C          14.991000     23.406000     -4.961000
C          13.614000     23.504000     -4.833000
C          13.253000      7.413000     -3.110000
H          15.667000      8.718000     -3.432000
H          15.987000     11.125000     -3.638000
H          11.810000     11.723000     -2.802000
H          15.972000     13.032000     -4.186000
H          18.606000     18.593000     -6.615000
H          17.000000     20.600000     -6.057000
H          15.679000     24.231000     -5.092000
H          13.051000     24.423000     -4.926000
H          14.097000      6.733000     -3.283000
C          12.230000      7.078000     -4.250000
H          12.838000      7.068000     -2.155000
H          12.351000      7.730000     -5.124000
H          11.208000      7.143000     -3.857000
C          12.392000      5.638000     -4.763000
H          12.583000      4.855000     -4.018000
C          13.464000      5.573000     -5.895000
H          11.410000      5.417000     -5.200000
H          14.384000      6.134000     -5.693000
H          12.991000      6.128000     -6.715000
C          13.662000      4.100000     -6.288000
H          14.337000      3.690000     -5.526000
C          14.271000      4.161000     -7.727000
H          12.715000      3.546000     -6.301000
H          13.645000      4.660000     -8.477000
H          14.632000      3.174000     -8.042000
H          15.148000      4.810000     -7.605000
C          19.197000     20.020000    -10.109000
C          18.072000     19.329000     -9.558000
N          19.108000     21.012000    -10.907000
C          16.744000     19.731000     -9.853000
C          17.876000     21.460000    -11.163000
C          16.666000     20.927000    -10.512000
C          15.315000     21.573000    -10.831000
C          15.116000     22.226000    -12.151000
C          14.141000     21.538000    -10.058000
N          13.937000     22.760000    -12.495000
N          14.027000     20.983000     -8.779000
C          12.963000     22.186000    -10.439000
C          12.855000     22.887000    -11.700000
S          12.479000     21.408000     -8.300000
N          11.920000     22.160000     -9.532000
C          11.673000     23.735000    -12.116000
S          10.261000     24.236000    -11.166000
C          11.672000     24.458000    -13.292000
C           9.562000     25.269000    -12.492000
S          12.740000     24.445000    -14.669000
C          10.491000     25.183000    -13.488000
C           8.229000     25.816000    -12.618000
C          11.643000     25.655000    -15.472000
C          10.568000     25.917000    -14.665000
N           7.684000     25.889000    -13.845000
S           7.279000     26.626000    -11.295000
C           6.527000     26.616000    -13.802000
C           6.132000     27.044000    -12.555000
C          20.639000     19.592000     -9.875000
H          18.267000     18.399000     -9.034000
H          15.890000     19.256000     -9.379000
H          17.839000     22.381000    -11.743000
H          15.907000     22.326000    -12.892000
H          11.900000     25.996000    -16.466000
H           9.859000     26.686000    -14.951000
H           6.039000     26.880000    -14.731000
H           5.279000     27.661000    -12.308000
H          21.337000     20.272000    -10.379000
C          20.930000     18.087000    -10.177000
H          20.946000     19.731000     -8.831000
H          20.505000     17.415000     -9.421000
H          22.013000     17.920000    -10.135000
C          20.543000     17.620000    -11.622000
H          20.735000     16.540000    -11.639000
C          21.363000     18.310000    -12.803000
H          19.476000     17.754000    -11.837000
H          22.448000     18.332000    -12.645000
H          21.045000     19.359000    -12.833000
C          21.085000     17.561000    -14.158000
H          21.882000     17.840000    -14.858000
C          19.901000     18.128000    -14.823000
H          21.151000     16.477000    -14.005000
H          19.007000     18.048000    -14.193000
H          19.679000     17.648000    -15.784000
H          19.859000     19.216000    -14.962000
$end

--------------------------------------------------------------

             Standard Nuclear Orientation (Angstroms)
    I     Atom           X                Y                Z
 ----------------------------------------------------------------
    1      C      10.5991935120    -1.4463900982    -1.4949453455
    2      C      10.2268990926    -0.2811210215    -0.8025192887
    3      N       9.8375970819    -2.5661053601    -1.4263770585
    4      C       9.0563173819    -0.3229385894    -0.0339077160
    5      C       8.6592650791    -2.5477278143    -0.7255111961
    6      C       8.2180839362    -1.4640131294     0.0212609785
    7      C       6.9965010186    -1.5124077448     0.9076418992
    8      C       6.4013196909    -0.2715629439     1.3152193365
    9      C       6.3519174010    -2.7016042937     1.2529019867
   10      N       5.1992282643    -0.2339470576     1.9579441976
   11      N       6.6855183377    -3.9792770274     1.0240880870
   12      C       5.1070583098    -2.5786204809     1.9173580234
   13      C       4.5305251716    -1.3269019069     2.2834866238
   14      S       5.4853199654    -4.9540633657     1.6095054269
   15      N       4.4497690901    -3.7314675306     2.0365157413
   16      C       3.1502156658    -1.1036718114     2.8696811246
   17      S       2.0319424290    -2.3825984436     3.3530594827
   18      C       2.5427275636     0.1144966941     3.0096014512
   19      C       0.7394560686    -1.2589009721     3.6654518656
   20      S       3.0798269571     1.7443474947     2.7207769209
   21      C       1.2592826055    -0.0069238292     3.4561707023
   22      C      -0.5752485194    -1.5116478052     4.0848322235
   23      C       1.5126443918     2.2930752606     3.2330138249
   24      C       0.5993382956     1.2436316095     3.4776788976
   25      N      -1.2422073705    -0.7057862245     4.8798649296
   26      S      -1.3127551508    -3.0898487278     3.7882216770
   27      C      -2.5747317229    -1.2264811168     5.0221346714
   28      C      -2.7948722234    -2.4901205645     4.4959498121
   29      C      11.8107264063    -1.4794508239    -2.4087128402
   30      H      10.8812001576     0.5849759103    -0.8249741584
   31      H       8.7603379335     0.6380864361     0.3740286349
   32      H       8.0550101563    -3.4536434200    -0.7502882738
   33      H       6.8516834423     0.6360017686     0.9164414735
   34      H       1.2637023298     3.3452840560     3.1961288585
   35      H      -0.4160322154     1.4180269026     3.8148539371
   36      H      -3.2477921932    -0.6798633558     5.6696905583
   37      H      -3.7107532878    -3.0540294930     4.6114816101
   38      H      12.4311077800    -0.5755678771    -2.4615102807
   39      C      11.3888057093    -1.7615285050    -3.8922117809
   40      H      12.5171895078    -2.2565805660    -2.0920833243
   41      H      10.4162691846    -1.3187862469    -4.1407535297
   42      H      11.3788373452    -2.8435820392    -4.0717076887
   43      C      12.3953403535    -1.1782802242    -4.8970612488
   44      H      13.4618688757    -1.2713576005    -4.6552999754
   45      C      12.0485411245     0.3070611550    -5.2261877928
   46      H      12.2277784270    -1.7829014060    -5.7973335561
   47      H      11.7996049289     0.9270345164    -4.3569416818
   48      H      11.0999671266     0.2240081435    -5.7715900000
   49      C      13.1477071792     0.8673229890    -6.1434242191
   50      H      13.9724805497     1.1334492433    -5.4701525770
   51      C      12.4746225096     2.0858685098    -6.8557632123
   52      H      13.4798249083     0.1310052150    -6.8860061673
   53      H      11.5864652814     1.8442147263    -7.4525522764
   54      H      13.2186940234     2.6834614847    -7.3970165899
   55      H      12.1045445575     2.6959055754    -6.0214304921
   56      C      -1.5964672656     5.3662676568     1.6701206112
   57      C      -0.8947128178     4.2199132763     1.1801008880
   58      N      -2.8537156212     5.5451018381     1.5431012899
   59      C      -1.5770083320     3.1638555138     0.5232692250
   60      C      -3.5423987366     4.5466875384     0.9836833310
   61      C      -2.9392720877     3.2570322548     0.6028717047
   62      C      -3.8461123506     2.1600444603     0.0384813112
   63      C      -5.0854507632     2.5439077368    -0.6861560354
   64      C      -3.6050676706     0.7750877640     0.0098035919
   65      N      -5.8836201347     1.6225546105    -1.2407433333
   66      N      -2.5152795660     0.1279788486     0.6018119860
   67      C      -4.5191504903    -0.1426868137    -0.5144972980
   68      C      -5.7574647195     0.2844902808    -1.1287314552
   69      S      -2.8678848512    -1.4981920201     0.4078846318
   70      N      -4.2008876428    -1.4811283036    -0.3786402484
   71      C      -6.8610030492    -0.6465486689    -1.5811180477
   72      S      -7.0271756577    -2.3951266979    -1.3319062092
   73      C      -8.0608605443    -0.1714305766    -2.0713330921
   74      C      -8.6678705908    -2.4907989953    -2.1148065528
   75      S      -8.5735393650     1.4228725887    -2.5532872848
   76      C      -8.9503354023    -1.1922972433    -2.4255473294
   77      C      -9.3920850134    -3.6530128230    -2.5803669557
   78      C     -10.1660709541     0.7051398496    -3.0641892844
   79      C     -10.1488484021    -0.6508702782    -2.8732497203
   80      N     -10.1378904486    -3.5350822522    -3.6929089249
   81      S      -9.5729205930    -5.2262651105    -1.6853224132
   82      C     -10.9078916787    -4.6519853313    -3.8621797662
   83      C     -10.7180918670    -5.6580164392    -2.9423453021
   84      C      -0.9054225934     6.5539071676     2.3253103955
   85      H       0.1896936669     4.2577397419     1.1916219332
   86      H      -1.0593685282     2.2598290786     0.2160197529
   87      H      -4.6238210585     4.6736858946     1.0038620161
   88      H      -5.4218896528     3.5740793728    -0.7877300179
   89      H     -10.9111542747     1.3654890098    -3.4874573223
   90      H     -11.0521722458    -1.2265398437    -3.0419168027
   91      H     -11.6625895431    -4.6557639529    -4.6376137450
   92      H     -11.2492596184    -6.5972640548    -2.8717638851
   93      H      -1.6363220345     7.3104132319     2.6369264760
   94      C       0.2794736306     7.1543615015     1.5028837842
   95      H      -0.4661001434     6.2913287631     3.2956476392
   96      H       1.1671008188     6.5095178012     1.5091748124
   97      H       0.6000570607     8.0907557527     1.9750427305
   98      C      -0.0874427111     7.5874068990     0.0421555131
   99      H       0.8587873562     7.9064506484    -0.4121711817
  100      C      -1.1427437056     8.7777644844    -0.0703150601
  101      H      -0.4626042742     6.7535617380    -0.5633410179
  102      H      -0.9269327588     9.6339601554     0.5800906658
  103      H      -2.1037367903     8.3770763821     0.2737290297
  104      C      -1.2075618640     9.2988824299    -1.5530640926
  105      H      -1.6765544905    10.2902010440    -1.5334854874
  106      C      -2.1928838235     8.5252190860    -2.3251752674
  107      H      -0.1923819649     9.4269007080    -1.9478324969
  108      H      -1.9431736744     7.4575859128    -2.3436211117
  109      H      -2.2863926809     8.8665006401    -3.3634372741
  110      H      -3.2011308541     8.4105480927    -1.9067048522
 ----------------------------------------------------------------

   10   -5663.4969532703      5.49E-06 Convergence criterion met
 Total energy in the final basis set = -5663.4969532703

                    Orbital Energies (a.u.)
 --------------------------------------------------------------

 Alpha MOs
 -- Occupied --
-88.991 -88.990 -88.932 -88.927 -88.926 -88.924 -88.911 -88.904
-14.388 -14.387 -14.382 -14.381 -14.354 -14.350 -14.348 -14.348
-14.329 -14.328 -10.279 -10.271 -10.270 -10.270 -10.259 -10.259
-10.257 -10.257 -10.250 -10.250 -10.248 -10.247 -10.244 -10.236
-10.235 -10.235 -10.235 -10.234 -10.233 -10.232 -10.232 -10.232
-10.227 -10.226 -10.225 -10.224 -10.222 -10.221 -10.220 -10.216
-10.213 -10.211 -10.204 -10.203 -10.202 -10.200 -10.193 -10.190
-10.187 -10.185 -10.183 -10.181 -10.178 -10.177 -10.176 -10.175
-10.175 -10.174 -10.173 -10.163  -8.046  -8.045  -7.991  -7.987
 -7.986  -7.982  -7.971  -7.963  -6.012  -6.010  -6.006  -6.005
 -6.004  -6.004  -5.955  -5.952  -5.951  -5.951  -5.948  -5.947
 -5.947  -5.947  -5.944  -5.943  -5.943  -5.939  -5.936  -5.932
 -5.928  -5.928  -5.924  -5.919  -1.040  -1.035  -0.965  -0.964
 -0.961  -0.961  -0.952  -0.929  -0.921  -0.912  -0.903  -0.898
 -0.849  -0.836  -0.835  -0.829  -0.808  -0.807  -0.807  -0.804
 -0.804  -0.799  -0.797  -0.796  -0.782  -0.780  -0.768  -0.767
 -0.750  -0.744  -0.743  -0.737  -0.727  -0.718  -0.707  -0.704
 -0.693  -0.689  -0.679  -0.675  -0.654  -0.653  -0.649  -0.644
 -0.637  -0.635  -0.626  -0.623  -0.613  -0.611  -0.597  -0.592
 -0.592  -0.590  -0.584  -0.583  -0.581  -0.578  -0.569  -0.558
 -0.556  -0.554  -0.541  -0.533  -0.527  -0.521  -0.513  -0.511
 -0.508  -0.502  -0.501  -0.498  -0.488  -0.483  -0.477  -0.475
 -0.472  -0.470  -0.468  -0.464  -0.463  -0.455  -0.453  -0.450
 -0.447  -0.444  -0.442  -0.441  -0.435  -0.433  -0.432  -0.432
 -0.427  -0.425  -0.424  -0.423  -0.422  -0.421  -0.418  -0.415
 -0.411  -0.410  -0.407  -0.406  -0.402  -0.401  -0.400  -0.397
 -0.397  -0.393  -0.392  -0.390  -0.388  -0.386  -0.384  -0.384
 -0.381  -0.376  -0.373  -0.371  -0.368  -0.364  -0.358  -0.356
 -0.355  -0.350  -0.349  -0.348  -0.347  -0.343  -0.342  -0.340
 -0.338  -0.336  -0.335  -0.334  -0.330  -0.328  -0.328  -0.317
 -0.315  -0.313  -0.306  -0.306  -0.303  -0.302  -0.299  -0.298
 -0.293  -0.293  -0.292  -0.291  -0.287  -0.287  -0.282  -0.280
 -0.273  -0.269  -0.264  -0.259  -0.257  -0.256  -0.252  -0.249
 -0.245  -0.242  -0.232  -0.229  -0.196  -0.195

          Ground-State Mulliken Net Atomic Charges

     Atom                 Charge (a.u.)
  ----------------------------------------
      1 C                     0.281723
      2 C                    -0.121673
      3 N                    -0.499660
      4 C                    -0.094320
      5 C                     0.063659
      6 C                     0.057917
      7 C                     0.030840
      8 C                     0.074000
      9 C                     0.298323
     10 N                    -0.544260
     11 N                    -0.590836
     12 C                     0.171181
     13 C                     0.341543
     14 S                     0.600952
     15 N                    -0.564806
     16 C                    -0.239339
     17 S                     0.325797
     18 C                    -0.084274
     19 C                    -0.207966
     20 S                     0.285657
     21 C                     0.153746
     22 C                     0.053008
     23 C                    -0.316355
     24 C                    -0.066941
     25 N                    -0.424261
     26 S                     0.252603
     27 C                     0.098701
     28 C                    -0.299093
     29 C                    -0.228022
     30 H                     0.091958
     31 H                     0.091312
     32 H                     0.128049
     33 H                     0.119444
     34 H                     0.123557
     35 H                     0.129103
     36 H                     0.116958
     37 H                     0.139281
     38 H                     0.097030
     39 C                    -0.164243
     40 H                     0.119798
     41 H                     0.097202
     42 H                     0.106997
     43 C                    -0.197473
     44 H                     0.087172
     45 C                    -0.173254
     46 H                     0.093555
     47 H                     0.091141
     48 H                     0.093277
     49 C                    -0.175163
     50 H                     0.097692
     51 C                    -0.319720
     52 H                     0.098983
     53 H                     0.108366
     54 H                     0.094467
     55 H                     0.099914
     56 C                     0.295672
     57 C                    -0.125411
     58 N                    -0.459702
     59 C                    -0.065079
     60 C                     0.061597
     61 C                     0.025975
     62 C                    -0.005132
     63 C                     0.076624
     64 C                     0.248661
     65 N                    -0.530444
     66 N                    -0.573170
     67 C                     0.117412
     68 C                     0.331361
     69 S                     0.627860
     70 N                    -0.511531
     71 C                    -0.210533
     72 S                     0.301866
     73 C                    -0.109708
     74 C                    -0.234619
     75 S                     0.265633
     76 C                     0.171748
     77 C                     0.036438
     78 C                    -0.320299
     79 C                    -0.030407
     80 N                    -0.412917
     81 S                     0.264982
     82 C                     0.124821
     83 C                    -0.303419
     84 C                    -0.237502
     85 H                     0.090749
     86 H                     0.136335
     87 H                     0.103318
     88 H                     0.125098
     89 H                     0.131040
     90 H                     0.108381
     91 H                     0.116876
     92 H                     0.134978
     93 H                     0.121867
     94 C                    -0.192726
     95 H                     0.100877
     96 H                     0.087349
     97 H                     0.097394
     98 C                    -0.175835
     99 H                     0.085302
    100 C                    -0.188650
    101 H                     0.099304
    102 H                     0.082828
    103 H                     0.110097
    104 C                    -0.167441
    105 H                     0.090736
    106 C                    -0.314162
    107 H                     0.095199
    108 H                     0.096171
    109 H                     0.094133
    110 H                     0.106754
  ----------------------------------------
  Sum of atomic charges =     0.000000

                    Cartesian Multipole Moments
 -----------------------------------------------------------------
    Charge (ESU x 10^10)
                 0.0000
    Dipole Moment (Debye)
         X      -1.1394      Y      -1.6212      Z       0.1709
       Tot       1.9889
    Quadrupole Moments (Debye-Ang)
        XX    -395.2218     XY      43.6601     YY    -426.8881
        XZ      -4.7933     YZ      -4.9023     ZZ    -455.4809

 Total job time:  92.25s(wall), 1020.34s(cpu)
        *  Thank you very much for using Q-Chem.  Have a nice day.  *
