 Q-Chem 4.4, Q-Chem, Inc., Pleasanton, CA (2016)
 Q-Chem 4.4.2 for Intel X86 Linux

User input:
--------------------------------------------------------------
$comment
SP
$end

$rem
MEM_STATIC 5000
MEM_TOTAL 20000
JOBTYPE SP
EXCHANGE B3LYP
BASIS 6-31g(d,p)
$end

$molecule
0 1
C           8.567000     17.963000     -6.612000
C           7.163000     17.959000     -6.543000
N           9.304000     16.937000     -6.366000
C           6.449000     16.774000     -6.338000
C           8.688000     15.728000     -6.265000
C           7.278000     15.581000     -6.136000
C           6.688000     14.209000     -6.057000
C           5.381000     14.114000     -5.448000
C           7.224000     13.056000     -6.640000
N           4.864000     12.894000     -5.130000
N           8.358000     12.992000     -7.405000
C           6.488000     11.907000     -6.489000
C           5.381000     11.747000     -5.664000
S           8.411000     11.439000     -7.968000
N           7.102000     10.887000     -7.137000
C           4.640000     10.424000     -5.377000
S           5.230000      8.794000     -5.866000
C           3.492000     10.340000     -4.626000
C           3.995000      8.075000     -4.908000
S           2.471000     11.555000     -3.851000
C           3.237000      9.020000     -4.282000
C           3.915000      6.672000     -4.717000
C           1.535000     10.236000     -3.168000
C           2.075000      9.017000     -3.495000
N           4.636000      5.953000     -5.527000
S           2.882000      5.826000     -3.533000
C           4.335000      4.641000     -5.321000
C           3.382000      4.437000     -4.341000
C           9.265000     19.315000     -6.654000
H           6.566000     18.857000     -6.671000
H           5.369000     16.682000     -6.407000
H           9.456000     14.979000     -6.078000
H           4.936000     14.992000     -4.982000
H           0.560000     10.368000     -2.717000
H           1.488000      8.161000     -3.183000
H           4.747000      3.807000     -5.873000
H           3.049000      3.487000     -3.944000
H          10.339000     19.096000     -6.688000
C           8.979000     20.054000     -5.376000
H           8.975000     19.924000     -7.519000
H           9.281000     19.463000     -4.502000
H           7.900000     20.234000     -5.301000
C           9.635000     21.410000     -5.207000
H           9.679000     21.636000     -4.134000
C           9.029000     22.541000     -6.088000
H          10.680000     21.254000     -5.501000
H           7.958000     22.603000     -5.859000
H           9.076000     22.238000     -7.142000
C           9.856000     23.851000     -5.887000
H          10.893000     23.601000     -6.142000
C           9.670000     24.333000     -4.425000
H           9.540000     24.660000     -6.558000
H           8.645000     24.195000     -4.061000
H           9.811000     25.420000     -4.376000
H          10.400000     23.913000     -3.722000
C           4.271000      6.032000     -9.452000
C           4.213000      4.672000     -9.056000
N           3.445000      6.452000    -10.418000
C           3.201000      3.773000     -9.577000
C           2.524000      5.594000    -10.975000
C           2.317000      4.242000    -10.612000
C           1.505000      3.307000    -11.479000
C           0.347000      3.729000    -12.099000
C           1.901000      1.982000    -11.810000
N          -0.414000      2.970000    -13.016000
N           2.930000      1.296000    -11.283000
C           1.156000      1.226000    -12.764000
C           0.002000      1.752000    -13.450000
S           2.869000     -0.261000    -11.907000
N           1.591000     -0.029000    -12.941000
C          -0.774000      1.050000    -14.460000
S          -0.117000      0.102000    -15.766000
C          -2.137000      1.053000    -14.477000
C          -1.732000     -0.533000    -16.165000
S          -3.156000      1.960000    -13.436000
C          -2.623000      0.136000    -15.393000
C          -2.091000     -1.517000    -17.185000
C          -4.450000      1.014000    -14.131000
C          -4.024000      0.134000    -15.211000
N          -1.085000     -1.992000    -17.865000
S          -3.619000     -2.381000    -17.435000
C          -1.422000     -3.159000    -18.561000
C          -2.744000     -3.499000    -18.441000
C           5.171000      7.105000     -8.879000
H           4.914000      4.361000     -8.287000
H           3.198000      2.747000     -9.219000
H           1.886000      6.023000    -11.747000
H           0.136000      4.771000    -11.866000
H          -5.446000      1.030000    -13.709000
H          -4.704000     -0.500000    -15.769000
H          -0.785000     -3.763000    -19.194000
H          -3.447000     -4.191000    -18.887000
H           4.680000      8.085000     -8.818000
C           6.521000      7.329000     -9.731000
H           5.474000      7.009000     -7.829000
H           7.153000      8.112000     -9.295000
H           6.347000      7.802000    -10.706000
C           7.325000      6.047000     -9.913000
H           7.501000      5.661000     -8.901000
C           8.748000      6.283000    -10.639000
H           6.660000      5.366000    -10.458000
H           8.549000      6.943000    -11.492000
H           9.039000      5.306000    -11.045000
C          10.035000      6.637000     -9.809000
H          10.254000      5.730000     -9.232000
C          10.058000      7.896000     -8.972000
H          10.919000      6.560000    -10.455000
H          10.891000      7.799000     -8.264000
H           9.168000      8.035000     -8.346000
H          10.239000      8.729000     -9.663000
$end

--------------------------------------------------------------

             Standard Nuclear Orientation (Angstroms)
    I     Atom           X                Y                Z
 ----------------------------------------------------------------
    1      C     -11.4466714344     2.5666534157    -0.3946584062
    2      C     -10.8854997827     2.2793012129    -1.6510453246
    3      N     -11.0413033555     2.0488410381     0.7116453777
    4      C      -9.7279638868     1.5033294366    -1.7694702046
    5      C      -9.8607546921     1.3725323113     0.6958542597
    6      C      -9.2086628713     0.9725239195    -0.5046121263
    7      C      -7.8992383045     0.2544974542    -0.4235547450
    8      C      -7.5388503012    -0.5407572318    -1.5750083791
    9      C      -6.9506751374     0.4006412036     0.5940227324
   10      N      -6.4845469263    -1.4013071702    -1.5063702187
   11      N      -7.0442845396     1.2448718965     1.6681683543
   12      C      -5.7894106466    -0.3156587379     0.4421109935
   13      C      -5.5539594052    -1.2999322549    -0.5104866953
   14      S      -5.5824728953     1.1348935968     2.4314497508
   15      N      -4.9517592757    -0.0449180013     1.4728096082
   16      C      -4.3101972442    -2.2097166552    -0.5949084451
   17      S      -3.0435593323    -2.3319123004     0.6797748977
   18      C      -4.0864059509    -3.1031995160    -1.6149902234
   19      C      -2.3651313009    -3.6816973602    -0.1434903684
   20      S      -4.9643030155    -3.4746240707    -3.1018094942
   21      C      -3.0730726903    -3.9857623786    -1.2685807886
   22      C      -1.2927311850    -4.4319509696     0.4027399065
   23      C      -3.8129056114    -4.7707418614    -3.3787728321
   24      C      -2.9236838178    -4.8812784076    -2.3387938546
   25      N      -0.6705617715    -3.8768740770     1.4015876748
   26      S      -0.6948392422    -6.0044334871    -0.1926464865
   27      C       0.4151545309    -4.6391646391     1.7090193086
   28      C       0.5544516506    -5.7563424647     0.9073117444
   29      C     -12.8012805810     3.2604704407    -0.3717674505
   30      H     -11.2980694155     2.6614764344    -2.5799831040
   31      H      -9.1725725360     1.3564775418    -2.6912076773
   32      H      -9.6642975064     1.0244543960     1.7087907528
   33      H      -8.2552618599    -0.6777833594    -2.3837378264
   34      H      -3.7047716126    -5.2792597358    -4.3280707883
   35      H      -2.1284017624    -5.6008831872    -2.4948208188
   36      H       1.1473076128    -4.4121542610     2.4721851837
   37      H       1.2818701084    -6.5499900414     1.0167827958
   38      H     -13.0611814676     3.3738702990     0.6875648870
   39      C     -13.8233835026     2.3609301973    -1.0099946579
   40      H     -12.7935197750     4.2392913139    -0.8667982254
   41      H     -13.8544352206     1.3831623437    -0.5126348131
   42      H     -13.5479039880     2.1940667498    -2.0581042070
   43      C     -15.2546135599     2.8595072569    -1.0351827200
   44      H     -15.9164469033     1.9905415627    -1.1410895088
   45      C     -15.5248568556     4.0127864326    -2.0448726249
   46      H     -15.4405848474     3.2280028330    -0.0191006905
   47      H     -15.2248409196     3.6608526076    -3.0395881727
   48      H     -14.8477731751     4.8480887231    -1.8240519446
   49      C     -17.0047082386     4.4912141868    -1.8979822974
   50      H     -17.1290259262     4.7854072863    -0.8487494668
   51      C     -17.9426364211     3.3382010563    -2.3398142174
   52      H     -17.2295789777     5.3716474330    -2.5134889582
   53      H     -17.5602614144     2.7913271792    -3.2098046293
   54      H     -18.8915356969     3.7545261664    -2.7005281860
   55      H     -18.2157664345     2.6516053446    -1.5289533635
   56      C       1.1119771482    -0.3657388904     1.2026512510
   57      C       2.0523836943    -1.2799183709     1.7408811326
   58      N       1.5387280553     0.5426006032     0.3168549834
   59      C       3.4192221771    -1.3337786864     1.2585559016
   60      C       2.8502320898     0.5521970348    -0.1008998202
   61      C       3.8608517000    -0.3527420183     0.3019094568
   62      C       5.3219711876    -0.0774307087     0.0287949648
   63      C       5.7368713469     0.4670180718    -1.1690703796
   64      C       6.3579149160    -0.2500063642     0.9874608267
   65      N       7.0575460211     0.8664364571    -1.4730018826
   66      N       6.2481189151    -0.8375646547     2.1915729865
   67      C       7.6854525060     0.1865149307     0.6980301679
   68      C       8.0440267345     0.8329928768    -0.5399031049
   69      S       7.7871592320    -0.9123302415     2.8572388260
   70      N       8.5827042476    -0.0904354804     1.6539678133
   71      C       9.3655372989     1.3368090539    -0.8788117769
   72      S      10.4114455274     2.2364352551     0.1854897197
   73      C       9.9410437312     1.1363137193    -2.0980988503
   74      C      11.7670978915     2.0829944008    -0.9587626879
   75      S       9.1937381032     0.4013575459    -3.4567984938
   76      C      11.2724431292     1.5149478023    -2.0857346166
   77      C      13.1437362316     2.5485811040    -0.7986599014
   78      C      10.7912362805     0.4404734946    -4.1630891676
   79      C      11.7820227662     1.1270376533    -3.3450135014
   80      N      13.3955234015     3.1302009329     0.3408060242
   81      S      14.5817232286     2.1824246168    -1.7691766830
   82      C      14.7694638817     3.2335399535     0.5887628828
   83      C      15.5428467763     2.7778802728    -0.4465810956
   84      C      -0.3694669027    -0.3064591500     1.5050870893
   85      H       1.6758133934    -1.9866898886     2.4744694574
   86      H       4.0860586875    -2.0703589153     1.6985873038
   87      H       3.1074168874     1.3192548142    -0.8306582343
   88      H       4.8919282768     0.6433310112    -1.8320628046
   89      H      11.0133773881    -0.0919970871    -5.0782309096
   90      H      12.8140490780     1.2661756588    -3.6471431215
   91      H      15.2585464231     3.6620623758     1.4538876144
   92      H      16.5825489224     2.7890431020    -0.7480505612
   93      H      -0.9734619829    -0.0446986486     0.6265238400
   94      C      -0.7461456086     0.7666307108     2.6475280301
   95      H      -0.8724559772    -1.2432148639     1.7753013069
   96      H      -1.8245410842     0.7898462094     2.8453492597
   97      H      -0.6308078103     1.8082548448     2.3214201404
   98      C       0.0203724991     0.5420607319     3.9456352349
   99      H      -0.1812921187    -0.4975323413     4.2332002260
  100      C      -0.4508003415     1.5180519718     5.1427727599
  101      H       1.0780754305     0.6529309445     3.6773381890
  102      H      -0.5270688389     2.5210992187     4.7058639172
  103      H       0.3833211512     1.5365873765     5.8554745028
  104      C      -1.6304628146     1.1175901388     6.1012151264
  105      H      -1.2461210275     0.2669379981     6.6775928898
  106      C      -3.0072999007     0.8742512217     5.5256416647
  107      H      -1.6603544185     1.8095264432     6.9527030258
  108      H      -3.5838483768     0.3297110103     6.2843443817
  109      H      -3.0158214358     0.2243691675     4.6419688185
  110      H      -3.4507770172     1.8615164787     5.3446268602
 ----------------------------------------------------------------

    9   -5663.4719987602      9.46E-06 Convergence criterion met
 Total energy in the final basis set = -5663.4719987602

                    Orbital Energies (a.u.)
 --------------------------------------------------------------

 Alpha MOs
 -- Occupied --
-88.991 -88.983 -88.932 -88.925 -88.924 -88.922 -88.916 -88.912
-14.385 -14.381 -14.380 -14.380 -14.357 -14.352 -14.347 -14.341
-14.324 -14.323 -10.269 -10.268 -10.267 -10.266 -10.258 -10.257
-10.252 -10.249 -10.246 -10.244 -10.242 -10.238 -10.235 -10.233
-10.233 -10.232 -10.231 -10.228 -10.228 -10.228 -10.227 -10.227
-10.226 -10.225 -10.224 -10.223 -10.223 -10.222 -10.220 -10.219
-10.219 -10.215 -10.207 -10.204 -10.203 -10.200 -10.199 -10.199
-10.183 -10.179 -10.179 -10.178 -10.177 -10.177 -10.174 -10.173
-10.173 -10.173 -10.172 -10.172  -8.046  -8.038  -7.993  -7.984
 -7.983  -7.983  -7.976  -7.971  -6.011  -6.005  -6.004  -6.004
 -5.998  -5.995  -5.957  -5.954  -5.950  -5.948  -5.948  -5.947
 -5.944  -5.944  -5.943  -5.941  -5.940  -5.940  -5.939  -5.937
 -5.936  -5.932  -5.932  -5.927  -1.029  -1.023  -0.984  -0.966
 -0.950  -0.947  -0.945  -0.926  -0.918  -0.918  -0.898  -0.891
 -0.850  -0.847  -0.831  -0.829  -0.822  -0.810  -0.806  -0.805
 -0.801  -0.794  -0.792  -0.786  -0.782  -0.771  -0.765  -0.765
 -0.750  -0.748  -0.741  -0.740  -0.730  -0.722  -0.706  -0.704
 -0.692  -0.690  -0.675  -0.670  -0.656  -0.653  -0.647  -0.643
 -0.636  -0.634  -0.623  -0.619  -0.615  -0.609  -0.604  -0.598
 -0.595  -0.594  -0.585  -0.581  -0.577  -0.573  -0.561  -0.555
 -0.549  -0.544  -0.539  -0.535  -0.527  -0.527  -0.518  -0.514
 -0.504  -0.502  -0.501  -0.498  -0.483  -0.480  -0.475  -0.474
 -0.469  -0.466  -0.466  -0.460  -0.454  -0.452  -0.451  -0.448
 -0.445  -0.444  -0.444  -0.441  -0.439  -0.437  -0.435  -0.432
 -0.429  -0.422  -0.421  -0.419  -0.417  -0.416  -0.413  -0.412
 -0.409  -0.409  -0.408  -0.402  -0.399  -0.397  -0.396  -0.396
 -0.394  -0.392  -0.391  -0.390  -0.386  -0.384  -0.383  -0.382
 -0.376  -0.374  -0.370  -0.368  -0.364  -0.361  -0.361  -0.356
 -0.354  -0.351  -0.346  -0.346  -0.345  -0.344  -0.343  -0.343
 -0.339  -0.336  -0.335  -0.334  -0.331  -0.321  -0.316  -0.313
 -0.310  -0.309  -0.306  -0.304  -0.302  -0.301  -0.301  -0.299
 -0.295  -0.293  -0.293  -0.291  -0.289  -0.288  -0.278  -0.275
 -0.270  -0.268  -0.265  -0.262  -0.255  -0.255  -0.248  -0.247
 -0.246  -0.241  -0.229  -0.228  -0.195  -0.192

          Ground-State Mulliken Net Atomic Charges

     Atom                 Charge (a.u.)
  ----------------------------------------
      1 C                     0.277108
      2 C                    -0.107981
      3 N                    -0.464234
      4 C                    -0.075373
      5 C                     0.074807
      6 C                     0.010046
      7 C                     0.003122
      8 C                     0.064381
      9 C                     0.266347
     10 N                    -0.530537
     11 N                    -0.569499
     12 C                     0.203636
     13 C                     0.309250
     14 S                     0.621161
     15 N                    -0.573225
     16 C                    -0.228928
     17 S                     0.368246
     18 C                    -0.124629
     19 C                    -0.227603
     20 S                     0.288601
     21 C                     0.152620
     22 C                     0.094903
     23 C                    -0.300829
     24 C                    -0.097699
     25 N                    -0.451928
     26 S                     0.287213
     27 C                     0.126657
     28 C                    -0.306948
     29 C                    -0.223429
     30 H                     0.090389
     31 H                     0.108815
     32 H                     0.115655
     33 H                     0.120223
     34 H                     0.130801
     35 H                     0.104818
     36 H                     0.112163
     37 H                     0.128960
     38 H                     0.113999
     39 C                    -0.178810
     40 H                     0.100262
     41 H                     0.099543
     42 H                     0.085299
     43 C                    -0.176544
     44 H                     0.095853
     45 C                    -0.179457
     46 H                     0.087496
     47 H                     0.088094
     48 H                     0.087287
     49 C                    -0.173756
     50 H                     0.099740
     51 C                    -0.318657
     52 H                     0.091246
     53 H                     0.105540
     54 H                     0.094758
     55 H                     0.109033
     56 C                     0.291226
     57 C                    -0.126257
     58 N                    -0.482604
     59 C                    -0.078120
     60 C                     0.065985
     61 C                     0.027675
     62 C                     0.071636
     63 C                     0.046281
     64 C                     0.266958
     65 N                    -0.545677
     66 N                    -0.581793
     67 C                     0.182199
     68 C                     0.285498
     69 S                     0.583051
     70 N                    -0.550367
     71 C                    -0.198078
     72 S                     0.344539
     73 C                    -0.104012
     74 C                    -0.218057
     75 S                     0.308822
     76 C                     0.191903
     77 C                     0.068083
     78 C                    -0.297473
     79 C                    -0.128479
     80 N                    -0.442825
     81 S                     0.258644
     82 C                     0.117506
     83 C                    -0.310766
     84 C                    -0.245939
     85 H                     0.089058
     86 H                     0.117532
     87 H                     0.099099
     88 H                     0.118446
     89 H                     0.126454
     90 H                     0.104463
     91 H                     0.121733
     92 H                     0.142485
     93 H                     0.125638
     94 C                    -0.190516
     95 H                     0.134804
     96 H                     0.093125
     97 H                     0.099487
     98 C                    -0.179056
     99 H                     0.086980
    100 C                    -0.183277
    101 H                     0.103920
    102 H                     0.088616
    103 H                     0.088464
    104 C                    -0.186225
    105 H                     0.091836
    106 C                    -0.317475
    107 H                     0.094199
    108 H                     0.101250
    109 H                     0.117442
    110 H                     0.103958
  ----------------------------------------
  Sum of atomic charges =     0.000000

                    Cartesian Multipole Moments
 -----------------------------------------------------------------
    Charge (ESU x 10^10)
                 0.0000
    Dipole Moment (Debye)
         X       2.1329      Y      -3.5867      Z      -1.6456
       Tot       4.4857
    Quadrupole Moments (Debye-Ang)
        XX    -386.9643     XY     -17.9423     YY    -429.7232
        XZ      12.8095     YZ       0.8933     ZZ    -424.4768

 Total job time:  84.61s(wall), 931.02s(cpu)
        *  Thank you very much for using Q-Chem.  Have a nice day.  *
