 Q-Chem 4.4, Q-Chem, Inc., Pleasanton, CA (2016)
 Q-Chem 4.4.2 for Intel X86 Linux

User input:
--------------------------------------------------------------
$comment
SP
$end

$rem
MEM_STATIC 5000
MEM_TOTAL 20000
JOBTYPE SP
EXCHANGE B3LYP
BASIS 6-31g(d,p)
$end

$molecule
0 1
C          26.688000     30.173000      1.424000
C          25.289000     30.391000      1.655000
N          27.128000     29.284000      0.541000
C          24.362000     29.544000      0.980000
C          26.217000     28.483000     -0.089000
C          24.830000     28.518000      0.097000
C          23.915000     27.621000     -0.649000
C          24.490000     26.509000     -1.308000
C          22.536000     27.808000     -0.864000
N          23.631000     25.540000     -1.841000
N          21.848000     28.854000     -0.451000
C          21.731000     26.914000     -1.528000
C          22.316000     25.717000     -2.009000
S          20.258000     28.588000     -0.751000
N          20.432000     27.188000     -1.646000
C          21.558000     24.794000     -2.908000
S          19.865000     24.898000     -3.425000
C          22.125000     23.643000     -3.545000
C          20.000000     23.503000     -4.558000
S          23.727000     22.994000     -3.411000
C          21.241000     22.960000     -4.440000
C          19.020000     23.264000     -5.569000
C          23.296000     21.750000     -4.681000
C          21.903000     21.862000     -5.047000
N          18.184000     24.235000     -5.809000
S          19.145000     22.112000     -6.877000
C          17.489000     24.036000     -6.905000
C          17.785000     22.881000     -7.595000
C          27.671000     31.047000      2.144000
H          24.912000     31.224000      2.240000
H          23.307000     29.711000      1.179000
H          26.714000     27.728000     -0.697000
H          25.564000     26.337000     -1.268000
H          24.054000     21.024000     -4.942000
H          21.429000     21.154000     -5.718000
H          16.744000     24.775000     -7.169000
H          17.352000     22.367000     -8.443000
H          27.844000     31.863000      1.431000
C          28.999000     30.248000      2.576000
H          27.302000     31.574000      3.033000
H          29.504000     29.864000      1.680000
H          28.703000     29.370000      3.163000
C          29.880000     31.152000      3.378000
H          30.163000     31.938000      2.666000
C          31.093000     30.368000      3.908000
H          29.269000     31.636000      4.149000
H          31.707000     29.794000      3.202000
H          30.677000     29.541000      4.497000
C          32.076000     31.217000      4.709000
H          32.174000     32.055000      4.009000
C          33.413000     30.486000      4.908000
H          31.562000     31.434000      5.653000
H          33.915000     30.266000      3.957000
H          33.288000     29.551000      5.468000
H          34.108000     31.112000      5.481000
C          19.197000     20.020000    -10.109000
C          18.072000     19.329000     -9.558000
N          19.108000     21.012000    -10.907000
C          16.744000     19.731000     -9.853000
C          17.876000     21.460000    -11.163000
C          16.666000     20.927000    -10.512000
C          15.315000     21.573000    -10.831000
C          15.116000     22.226000    -12.151000
C          14.141000     21.538000    -10.058000
N          13.937000     22.760000    -12.495000
N          14.027000     20.983000     -8.779000
C          12.963000     22.186000    -10.439000
C          12.855000     22.887000    -11.700000
S          12.479000     21.408000     -8.300000
N          11.920000     22.160000     -9.532000
C          11.673000     23.735000    -12.116000
S          10.261000     24.236000    -11.166000
C          11.672000     24.458000    -13.292000
C           9.562000     25.269000    -12.492000
S          12.740000     24.445000    -14.669000
C          10.491000     25.183000    -13.488000
C           8.229000     25.816000    -12.618000
C          11.643000     25.655000    -15.472000
C          10.568000     25.917000    -14.665000
N           7.684000     25.889000    -13.845000
S           7.279000     26.626000    -11.295000
C           6.527000     26.616000    -13.802000
C           6.132000     27.044000    -12.555000
C          20.639000     19.592000     -9.875000
H          18.267000     18.399000     -9.034000
H          15.890000     19.256000     -9.379000
H          17.839000     22.381000    -11.743000
H          15.907000     22.326000    -12.892000
H          11.900000     25.996000    -16.466000
H           9.859000     26.686000    -14.951000
H           6.039000     26.880000    -14.731000
H           5.279000     27.661000    -12.308000
H          21.337000     20.272000    -10.379000
C          20.930000     18.087000    -10.177000
H          20.946000     19.731000     -8.831000
H          20.505000     17.415000     -9.421000
H          22.013000     17.920000    -10.135000
C          20.543000     17.620000    -11.622000
H          20.735000     16.540000    -11.639000
C          21.363000     18.310000    -12.803000
H          19.476000     17.754000    -11.837000
H          22.448000     18.332000    -12.645000
H          21.045000     19.359000    -12.833000
C          21.085000     17.561000    -14.158000
H          21.882000     17.840000    -14.858000
C          19.901000     18.128000    -14.823000
H          21.151000     16.477000    -14.005000
H          19.007000     18.048000    -14.193000
H          19.679000     17.648000    -15.784000
H          19.859000     19.216000    -14.962000
$end

--------------------------------------------------------------

             Standard Nuclear Orientation (Angstroms)
    I     Atom           X                Y                Z
 ----------------------------------------------------------------
    1      C      12.4409497832     2.4079875285    -1.0576741686
    2      C      11.6466353134     3.4243180453    -0.4298025228
    3      N      11.9541647966     1.2052178077    -1.3405087061
    4      C      10.3286067675     3.0770359015    -0.0120000995
    5      C      10.6885927880     0.8984321452    -0.9250185759
    6      C       9.8269425538     1.7528525537    -0.2270825907
    7      C       8.4585293869     1.3384411987     0.1654204457
    8      C       8.1573052463    -0.0427460904     0.1103233530
    9      C       7.3802300065     2.1825899086     0.4933204330
   10      N       6.9492727093    -0.4784050537     0.6687046361
   11      N       7.4236806633     3.4998925015     0.4640814322
   12      C       6.1446178660     1.7346252865     0.8942535143
   13      C       5.9447857340     0.3369275585     1.0078456804
   14      S       6.0237844475     4.0850233271     1.0859885812
   15      N       5.2088343096     2.6314013815     1.2049024659
   16      C       4.5823831608    -0.2317951100     1.2425960899
   17      S       3.0618087711     0.6297289426     1.5425691425
   18      C       4.2798286696    -1.6319131323     1.2288373271
   19      C       2.0652880781    -0.8715451278     1.5099858045
   20      S       5.3471418093    -2.9818011741     1.0185852493
   21      C       2.8910797839    -1.9439815280     1.3803624034
   22      C       0.6454765589    -0.8228724653     1.3636703165
   23      C       3.8952106739    -4.0942164852     1.0435883182
   24      C       2.6894815300    -3.3466736169     1.3162527485
   25      N       0.1388420197     0.3178953599     0.9877618003
   26      S      -0.4102349503    -2.1846207443     1.0726242136
   27      C      -1.1223554323     0.2130866027     0.6381361269
   28      C      -1.6541948290    -1.0559330003     0.7050472873
   29      C      13.8351938974     2.7588724172    -1.4837353671
   30      H      11.9701727636     4.4572119455    -0.3479690983
   31      H       9.7464170358     3.8530980483     0.4771805016
   32      H      10.4557463220    -0.1478942473    -1.1191360755
   33      H       8.9074171416    -0.7597428336    -0.2181698961
   34      H       4.0822891690    -5.1563806761     0.9625335937
   35      H       1.7333486655    -3.8368621414     1.4635828401
   36      H      -1.6386517565     1.1166683625     0.3417915488
   37      H      -2.6468389573    -1.4733947880     0.5993482317
   38      H      13.7025174883     3.0741541324    -2.5263994600
   39      C      14.8624198811     1.5368421675    -1.2835908014
   40      H      14.2844350449     3.6443290147    -1.0164453014
   41      H      14.5422844855     0.6842156898    -1.8966474204
   42      H      14.8093232056     1.2032131817    -0.2400672306
   43      C      16.2447682889     1.9927596106    -1.6268591579
   44      H      16.1837481318     2.2240844749    -2.6981174589
   45      C      17.2574003908     0.8763087371    -1.3185757281
   46      H      16.4332031022     2.9430902823    -1.1136516604
   47      H      17.0905055449    -0.1252504585    -1.7356288280
   48      H      17.1328004071     0.6493394096    -0.2523366515
   49      C      18.6980147294     1.2327782551    -1.6738936285
   50      H      18.5257836054     1.6107039364    -2.6884657646
   51      C      19.5972926069    -0.0133382291    -1.6787932909
   52      H      19.0004273248     1.9761120969    -0.9266169584
   53      H      19.2809784659    -0.7544789168    -2.4240857471
   54      H      19.6343571899    -0.4942693455    -0.6935108552
   55      H      20.6267394708     0.2606363866    -1.9403407331
   56      C      -3.0102928724    -4.8237354276     0.0239276462
   57      C      -3.6319073744    -4.5635932255     1.2859214835
   58      N      -3.3408023555    -4.2530978900    -1.0687412343
   59      C      -4.6710628110    -3.6062208589     1.4116478939
   60      C      -4.2742098753    -3.3014970498    -0.9834755158
   61      C      -4.8512399370    -2.8413174230     0.2921658990
   62      C      -5.8603110190    -1.6900033533     0.2691558060
   63      C      -6.6956931184    -1.4807297268    -0.9419392758
   64      C      -6.2053112702    -0.8274809700     1.3246461968
   65      N      -7.6265961302    -0.5191589195    -0.9902524748
   66      N      -5.5954470447    -0.7998250335     2.5832814798
   67      C      -7.1305501305     0.2102514630     1.1839570045
   68      C      -7.8502278492     0.4242244270    -0.0527586264
   69      S      -6.2820916563     0.5354479026     3.3262050045
   70      N      -7.2923496379     1.0481831022     2.2715532014
   71      C      -8.7501681509     1.6079655275    -0.3323090875
   72      S      -9.0135515214     3.0712542587     0.6355030273
   73      C      -9.3323965470     1.8056555093    -1.5682843161
   74      C     -10.1135285290     3.8499704483    -0.5882688791
   75      S      -9.4686711894     0.7792049709    -2.9699799016
   76      C     -10.1197135635     2.9614323944    -1.6240849207
   77      C     -11.0092876782     4.9741250710    -0.4274399927
   78      C     -10.4675982521     2.0764966893    -3.7646477068
   79      C     -10.6440229918     3.1240023293    -2.9002842154
   80      N     -12.1792446824     4.9559325556    -1.0898240510
   81      S     -10.6207824214     6.5343233545     0.4233090783
   82      C     -12.7932815287     6.1734075704    -0.9911308906
   83      C     -12.1547569054     7.1068661795    -0.2068099547
   84      C      -1.9359701426    -5.8832565150    -0.1774420079
   85      H      -3.3882167261    -5.2294220244     2.1073762167
   86      H      -5.0940310208    -3.3533240794     2.3795105455
   87      H      -4.4436884250    -2.7475759823    -1.9056785694
   88      H      -6.5871353303    -2.0705089982    -1.8503101349
   89      H     -10.8441725382     1.8916897365    -4.7618458804
   90      H     -11.1412622891     4.0240119914    -3.2446295209
   91      H     -13.6798050479     6.3627758603    -1.5819749484
   92      H     -12.4466392265     8.1332501033    -0.0317449617
   93      H      -1.5918503249    -5.9003393653    -1.2190320075
   94      C      -2.3079169417    -7.3006697329     0.3643193313
   95      H      -1.0013235726    -5.6253462449     0.3358065496
   96      H      -2.2907353856    -7.3515231242     1.4601586109
   97      H      -1.5487944232    -8.0181855053     0.0304838654
   98      C      -3.6444025300    -7.8909015233    -0.2025278312
   99      H      -3.7933083734    -8.8373039435     0.3319836362
  100      C      -3.6512987449    -8.1761436401    -1.7715563131
  101      H      -4.5131308270    -7.2609590533     0.0236438524
  102      H      -2.7670747899    -8.7130582615    -2.1356218109
  103      H      -3.6309777885    -7.1981794055    -2.2671347778
  104      C      -4.9230886161    -9.0171449055    -2.1583086823
  105      H      -4.7379488351    -9.4593300652    -3.1448407629
  106      C      -6.0581612689    -8.1259874384    -2.4464378925
  107      H      -5.0524142724    -9.8444056847    -1.4499757960
  108      H      -6.3075380988    -7.4976848481    -1.5829663807
  109      H      -6.9648584411    -8.6690840030    -2.7399534106
  110      H      -5.9015419886    -7.3046584488    -3.1575764809
 ----------------------------------------------------------------

   10   -5663.4883129686      3.68E-06 Convergence criterion met
 Total energy in the final basis set = -5663.4883129686

                    Orbital Energies (a.u.)
 --------------------------------------------------------------

 Alpha MOs
 -- Occupied --
-88.996 -88.983 -88.934 -88.928 -88.921 -88.915 -88.909 -88.907
-14.395 -14.387 -14.384 -14.376 -14.353 -14.353 -14.346 -14.337
-14.332 -14.327 -10.282 -10.276 -10.265 -10.263 -10.260 -10.258
-10.257 -10.252 -10.249 -10.248 -10.245 -10.244 -10.242 -10.241
-10.239 -10.236 -10.235 -10.234 -10.234 -10.234 -10.232 -10.231
-10.230 -10.228 -10.226 -10.224 -10.223 -10.221 -10.220 -10.220
-10.215 -10.212 -10.210 -10.207 -10.206 -10.206 -10.197 -10.193
-10.189 -10.187 -10.185 -10.181 -10.178 -10.176 -10.174 -10.174
-10.173 -10.171 -10.169 -10.166  -8.052  -8.038  -7.994  -7.986
 -7.983  -7.973  -7.967  -7.966  -6.017  -6.011  -6.010  -6.003
 -5.998  -5.995  -5.958  -5.955  -5.951  -5.951  -5.947  -5.947
 -5.943  -5.942  -5.940  -5.938  -5.934  -5.932  -5.931  -5.930
 -5.928  -5.927  -5.924  -5.923  -1.046  -1.038  -0.984  -0.970
 -0.968  -0.958  -0.944  -0.934  -0.916  -0.907  -0.904  -0.897
 -0.840  -0.837  -0.829  -0.828  -0.812  -0.808  -0.808  -0.806
 -0.804  -0.801  -0.801  -0.790  -0.785  -0.779  -0.772  -0.765
 -0.749  -0.747  -0.742  -0.740  -0.721  -0.709  -0.708  -0.705
 -0.694  -0.686  -0.680  -0.669  -0.658  -0.653  -0.650  -0.649
 -0.639  -0.633  -0.632  -0.619  -0.618  -0.604  -0.602  -0.598
 -0.593  -0.591  -0.587  -0.581  -0.579  -0.575  -0.570  -0.562
 -0.560  -0.542  -0.539  -0.534  -0.527  -0.525  -0.518  -0.516
 -0.509  -0.502  -0.499  -0.495  -0.492  -0.481  -0.480  -0.474
 -0.474  -0.472  -0.471  -0.467  -0.462  -0.459  -0.455  -0.448
 -0.447  -0.446  -0.444  -0.440  -0.438  -0.436  -0.434  -0.433
 -0.431  -0.427  -0.426  -0.425  -0.425  -0.418  -0.414  -0.414
 -0.411  -0.409  -0.407  -0.405  -0.404  -0.401  -0.400  -0.398
 -0.393  -0.392  -0.390  -0.389  -0.389  -0.385  -0.384  -0.383
 -0.377  -0.375  -0.371  -0.370  -0.368  -0.364  -0.364  -0.356
 -0.355  -0.352  -0.350  -0.346  -0.345  -0.345  -0.344  -0.341
 -0.339  -0.334  -0.332  -0.329  -0.328  -0.325  -0.322  -0.319
 -0.318  -0.310  -0.308  -0.305  -0.305  -0.304  -0.300  -0.299
 -0.296  -0.295  -0.294  -0.292  -0.291  -0.290  -0.282  -0.277
 -0.270  -0.265  -0.265  -0.264  -0.258  -0.255  -0.249  -0.248
 -0.246  -0.235  -0.235  -0.226  -0.200  -0.188

          Ground-State Mulliken Net Atomic Charges

     Atom                 Charge (a.u.)
  ----------------------------------------
      1 C                     0.286449
      2 C                    -0.129266
      3 N                    -0.498656
      4 C                    -0.083070
      5 C                     0.051919
      6 C                     0.065258
      7 C                     0.052762
      8 C                     0.061035
      9 C                     0.275093
     10 N                    -0.556582
     11 N                    -0.573478
     12 C                     0.200525
     13 C                     0.332272
     14 S                     0.580382
     15 N                    -0.575941
     16 C                    -0.216308
     17 S                     0.357074
     18 C                    -0.135114
     19 C                    -0.250581
     20 S                     0.285902
     21 C                     0.179123
     22 C                     0.046287
     23 C                    -0.314571
     24 C                    -0.096596
     25 N                    -0.408315
     26 S                     0.278636
     27 C                     0.130616
     28 C                    -0.325830
     29 C                    -0.244372
     30 H                     0.091374
     31 H                     0.122249
     32 H                     0.095727
     33 H                     0.124316
     34 H                     0.133386
     35 H                     0.111593
     36 H                     0.108778
     37 H                     0.145365
     38 H                     0.121147
     39 C                    -0.171431
     40 H                     0.097799
     41 H                     0.121376
     42 H                     0.093928
     43 C                    -0.172004
     44 H                     0.090789
     45 C                    -0.179308
     46 H                     0.088211
     47 H                     0.089786
     48 H                     0.084126
     49 C                    -0.166577
     50 H                     0.096388
     51 C                    -0.324322
     52 H                     0.094635
     53 H                     0.103697
     54 H                     0.103727
     55 H                     0.098779
     56 C                     0.293709
     57 C                    -0.127229
     58 N                    -0.452685
     59 C                    -0.056776
     60 C                     0.062485
     61 C                    -0.007843
     62 C                    -0.002782
     63 C                     0.079838
     64 C                     0.254182
     65 N                    -0.530929
     66 N                    -0.577392
     67 C                     0.117304
     68 C                     0.334370
     69 S                     0.623217
     70 N                    -0.506977
     71 C                    -0.211654
     72 S                     0.306085
     73 C                    -0.109176
     74 C                    -0.233167
     75 S                     0.267478
     76 C                     0.171162
     77 C                     0.035462
     78 C                    -0.320334
     79 C                    -0.029335
     80 N                    -0.412357
     81 S                     0.269528
     82 C                     0.125092
     83 C                    -0.303014
     84 C                    -0.239194
     85 H                     0.096384
     86 H                     0.134363
     87 H                     0.108246
     88 H                     0.126846
     89 H                     0.132397
     90 H                     0.109604
     91 H                     0.117930
     92 H                     0.136483
     93 H                     0.124865
     94 C                    -0.195134
     95 H                     0.105911
     96 H                     0.090682
     97 H                     0.098757
     98 C                    -0.175976
     99 H                     0.086704
    100 C                    -0.189211
    101 H                     0.097414
    102 H                     0.084135
    103 H                     0.109443
    104 C                    -0.167224
    105 H                     0.091924
    106 C                    -0.314147
    107 H                     0.095680
    108 H                     0.094778
    109 H                     0.095163
    110 H                     0.106730
  ----------------------------------------
  Sum of atomic charges =     0.000000

                    Cartesian Multipole Moments
 -----------------------------------------------------------------
    Charge (ESU x 10^10)
                 0.0000
    Dipole Moment (Debye)
         X      -3.2756      Y       1.9673      Z       1.0956
       Tot       3.9750
    Quadrupole Moments (Debye-Ang)
        XX    -425.5197     XY     -16.0764     YY    -393.8126
        XZ       6.8974     YZ      -6.0204     ZZ    -442.6557

 Total job time:  91.07s(wall), 992.78s(cpu)
        *  Thank you very much for using Q-Chem.  Have a nice day.  *
