 Q-Chem 4.4, Q-Chem, Inc., Pleasanton, CA (2016)
 Q-Chem 4.4.2 for Intel X86 Linux

User input:
--------------------------------------------------------------
$comment
SP
$end

$rem
MEM_STATIC 5000
MEM_TOTAL 20000
JOBTYPE SP
EXCHANGE B3LYP
BASIS 6-31g(d,p)
$end

$molecule
0 1
C          15.323000     16.472000    -13.865000
C          15.250000     17.796000    -13.325000
N          14.343000     15.636000    -13.843000
C          13.975000     18.256000    -13.025000
C          13.129000     16.097000    -13.502000
C          12.862000     17.416000    -13.106000
C          11.506000     17.725000    -12.538000
C          11.403000     18.675000    -11.479000
C          10.290000     17.132000    -12.997000
N          10.226000     19.091000    -10.958000
N          10.170000     16.203000    -13.976000
C           9.066000     17.515000    -12.400000
C           9.062000     18.527000    -11.336000
S           8.615000     15.847000    -13.980000
N           7.992000     16.801000    -12.779000
C           7.775000     18.858000    -10.633000
S           6.255000     17.854000    -10.596000
C           7.599000     20.071000     -9.983000
C           5.418000     19.196000     -9.619000
S           8.585000     21.546000    -10.027000
C           6.312000     20.200000     -9.480000
C           4.035000     19.295000     -9.227000
C           7.278000     22.344000     -9.083000
C           6.218000     21.532000     -8.927000
N           3.500000     18.164000     -8.885000
S           3.021000     20.695000     -9.301000
C           2.124000     18.338000     -8.687000
C           1.783000     19.545000     -9.117000
C          16.674000     15.845000    -14.130000
H          16.146000     18.369000    -13.109000
H          13.847000     19.294000    -12.733000
H          12.361000     15.325000    -13.479000
H          12.239000     19.308000    -11.184000
H           7.505000     23.354000     -8.769000
H           5.293000     21.787000     -8.422000
H           1.517000     17.556000     -8.250000
H           0.756000     19.883000     -9.090000
H          16.629000     15.048000    -14.883000
C          17.384000     15.287000    -12.851000
H          17.298000     16.655000    -14.530000
H          17.660000     16.179000    -12.274000
H          18.325000     14.808000    -13.149000
C          16.483000     14.517000    -11.858000
H          15.588000     15.111000    -11.633000
C          17.191000     14.129000    -10.547000
H          16.085000     13.661000    -12.416000
H          17.986000     13.452000    -10.882000
H          16.386000     13.571000    -10.054000
C          17.654000     15.270000     -9.653000
H          18.419000     15.781000    -10.251000
C          18.465000     14.827000     -8.446000
H          16.772000     15.812000     -9.290000
H          17.743000     14.331000     -7.786000
H          18.907000     15.696000     -7.943000
H          19.247000     14.061000     -8.521000
C          19.197000     20.020000    -10.109000
C          18.072000     19.329000     -9.558000
N          19.108000     21.012000    -10.907000
C          16.744000     19.731000     -9.853000
C          17.876000     21.460000    -11.163000
C          16.666000     20.927000    -10.512000
C          15.315000     21.573000    -10.831000
C          15.116000     22.226000    -12.151000
C          14.141000     21.538000    -10.058000
N          13.937000     22.760000    -12.495000
N          14.027000     20.983000     -8.779000
C          12.963000     22.186000    -10.439000
C          12.855000     22.887000    -11.700000
S          12.479000     21.408000     -8.300000
N          11.920000     22.160000     -9.532000
C          11.673000     23.735000    -12.116000
S          10.261000     24.236000    -11.166000
C          11.672000     24.458000    -13.292000
C           9.562000     25.269000    -12.492000
S          12.740000     24.445000    -14.669000
C          10.491000     25.183000    -13.488000
C           8.229000     25.816000    -12.618000
C          11.643000     25.655000    -15.472000
C          10.568000     25.917000    -14.665000
N           7.684000     25.889000    -13.845000
S           7.279000     26.626000    -11.295000
C           6.527000     26.616000    -13.802000
C           6.132000     27.044000    -12.555000
C          20.639000     19.592000     -9.875000
H          18.267000     18.399000     -9.034000
H          15.890000     19.256000     -9.379000
H          17.839000     22.381000    -11.743000
H          15.907000     22.326000    -12.892000
H          11.900000     25.996000    -16.466000
H           9.859000     26.686000    -14.951000
H           6.039000     26.880000    -14.731000
H           5.279000     27.661000    -12.308000
H          21.337000     20.272000    -10.379000
C          20.930000     18.087000    -10.177000
H          20.946000     19.731000     -8.831000
H          20.505000     17.415000     -9.421000
H          22.013000     17.920000    -10.135000
C          20.543000     17.620000    -11.622000
H          20.735000     16.540000    -11.639000
C          21.363000     18.310000    -12.803000
H          19.476000     17.754000    -11.837000
H          22.448000     18.332000    -12.645000
H          21.045000     19.359000    -12.833000
C          21.085000     17.561000    -14.158000
H          21.882000     17.840000    -14.858000
C          19.901000     18.128000    -14.823000
H          21.151000     16.477000    -14.005000
H          19.007000     18.048000    -14.193000
H          19.679000     17.648000    -15.784000
H          19.859000     19.216000    -14.962000
$end

--------------------------------------------------------------

             Standard Nuclear Orientation (Angstroms)
    I     Atom           X                Y                Z
 ----------------------------------------------------------------
    1      C       4.5773465007    -2.0594896037    -2.4186567451
    2      C       4.0485502087    -0.9291674470    -1.7167655115
    3      N       3.9159366965    -3.1453907252    -2.6263484036
    4      C       2.6757448273    -0.9350776075    -1.5103788477
    5      C       2.5976058806    -3.1386120866    -2.3722698527
    6      C       1.8970941651    -2.0480954845    -1.8356853981
    7      C       0.4771132947    -2.2647258694    -1.3957233498
    8      C       0.0028786878    -1.5804310619    -0.2375212284
    9      C      -0.4511965385    -3.1146768079    -2.0716007467
   10      N      -1.2787214974    -1.6344613165     0.1919059446
   11      N      -0.2000420012    -3.8603449242    -3.1746793744
   12      C      -1.7720196132    -3.2265574120    -1.5774518461
   13      C      -2.1727864168    -2.4548253356    -0.3942056455
   14      S      -1.5561565181    -4.6664877323    -3.4110354404
   15      N      -2.5331286825    -4.1601048385    -2.1742057209
   16      C      -3.5439980815    -2.6522197154     0.1897061882
   17      S      -4.6633436112    -4.0624115648    -0.0899534853
   18      C      -4.1424664059    -1.6755859831     0.9725645518
   19      C      -5.9506118911    -3.2199750750     0.9537433750
   20      S      -3.6775300796     0.0152380730     1.2458871161
   21      C      -5.4353035392    -2.0293171006     1.3323776187
   22      C      -7.3168684276    -3.6126364573     1.1889329058
   23      C      -5.2333582409     0.2098994028     2.1277571174
   24      C      -5.9874093113    -0.9000311649     2.0456528051
   25      N      -7.4859858753    -4.8930226622     1.3087680217
   26      S      -8.7164363165    -2.5953503016     1.1856768578
   27      C      -8.8559654147    -5.1810312654     1.3641133559
   28      C      -9.5329620542    -4.0811294854     1.0642440104
   29      C       6.0727754436    -2.1929367376    -2.6042345975
   30      H       4.6977471031    -0.1549926832    -1.3205359981
   31      H       2.2034660906    -0.0486588225    -1.0976967276
   32      H       2.1161198393    -4.1001758044    -2.5451958737
   33      H       0.5707105142    -0.7813130556     0.2374392215
   34      H      -5.3626850842     1.1743507963     2.6003384092
   35      H      -6.9783671809    -1.0258164633     2.4673820542
   36      H      -9.2110296554    -6.1716629326     1.6161456653
   37      H     -10.6133651030    -4.0808129167     1.0149372958
   38      H       6.3369440497    -2.8294408044    -3.4582372441
   39      C       6.8323279699    -2.7125707121    -1.3375990965
   40      H       6.4323964402    -1.1770035334    -2.8140642032
   41      H       6.7685394934    -1.8875229582    -0.6164914525
   42      H       7.8953348558    -2.8263779207    -1.5841559454
   43      C       6.1566519411    -3.8735313011    -0.5718429900
   44      H       5.1055751068    -3.6257504111    -0.3760673045
   45      C       6.8578880490    -4.2396008958     0.7490619925
   46      H       6.0923155611    -4.7050548687    -1.2838355369
   47      H       7.8485884678    -4.5774138668     0.4219930747
   48      H       6.2403464912    -5.0895887822     1.0630699817
   49      C       6.8693241897    -3.1766621341     1.8378762115
   50      H       7.4713798076    -2.3655188603     1.4094773060
   51      C       7.6927258247    -3.5457639978     3.0612292112
   52      H       5.8374602839    -2.9965909285     2.1638949852
   53      H       7.1221990812    -4.3400402567     3.5577415066
   54      H       7.7983558379    -2.6795463689     3.7260925955
   55      H       8.6813247839    -4.0141308460     2.9763198874
   56      C       6.8456612241     1.8241468855     2.2155456605
   57      C       5.9639764632     0.7424693605     2.5306848587
   58      N       6.5011355140     2.8599991697     1.5544094564
   59      C       4.6011696089     0.7646868513     2.1376494135
   60      C       5.2116830819     2.9480946067     1.2173402954
   61      C       4.1922954859     1.9722110402     1.6421816701
   62      C       2.7316502814     2.2203123369     1.2558666003
   63      C       2.4277083333     2.9912478809     0.0222995453
   64      C       1.5790209332     1.7023249220     1.8724415136
   65      N       1.1670955594     3.1907274925    -0.3834051733
   66      N       1.5587276240     0.9349458308     3.0418770663
   67      C       0.2856029815     2.0151876630     1.4459020575
   68      C       0.0482530448     2.8490408835     0.2876534597
   69      S      -0.0734935752     0.7835097913     3.3872624783
   70      N      -0.7554376646     1.5232594327     2.2110262235
   71      C      -1.3102490221     3.3541120133    -0.1466958097
   72      S      -2.8710786831     3.2372324692     0.6884059456
   73      C      -1.4594135082     4.2270464144    -1.2056771539
   74      C      -3.7683545485     4.2136052400    -0.5588142571
   75      S      -0.3494422636     4.7679187212    -2.4354507038
   76      C      -2.7931485902     4.5805572859    -1.4401612574
   77      C      -5.1939253755     4.3423069048    -0.7665585680
   78      C      -1.7159229563     5.7025978836    -3.1913762159
   79      C      -2.8720195949     5.4876946809    -2.4893967463
   80      N      -5.6465519219     4.4485095320    -2.0281976652
   81      S      -6.4426268571     4.5939409175     0.5320383415
   82      C      -6.9749520596     4.7715670722    -2.0244693991
   83      C      -7.5719587369     4.8462078871    -0.7866367061
   84      C       8.3287804921     1.8223174786     2.5585586194
   85      H       6.4080976737    -0.1575575218     2.9432487464
   86      H       3.9121827467    -0.0191875810     2.4384067543
   87      H       4.9236970082     3.8970077648     0.7671871661
   88      H       3.1953484798     3.4484450434    -0.5993606192
   89      H      -1.5121755298     6.2654505318    -4.0925143200
   90      H      -3.7673259398     6.0409290761    -2.7505408687
   91      H      -7.4554206484     5.0248707523    -2.9603476930
   92      H      -8.5922047152     5.1246887758    -0.5611294145
   93      H       8.8070611539     2.7560421104     2.2375821087
   94      C       9.1046928960     0.5490250391     2.0920864283
   95      H       8.5016582429     1.8729656554     3.6407111251
   96      H       8.8642938769    -0.3359645729     2.6943709942
   97      H      10.1786980552     0.7147126383     2.2390644449
   98      C       8.9887885249     0.2328392108     0.5615715807
   99      H       9.5157199968    -0.7191155407     0.4212919489
  100      C       9.6265463750     1.3252922943    -0.4095474567
  101      H       7.9525244683     0.0697435567     0.2418426133
  102      H      10.6340855619     1.6496570061    -0.1226235632
  103      H       8.9936810009     2.2176448440    -0.3346251956
  104      C       9.6972693754     0.7627820623    -1.8768206065
  105      H      10.4106569722     1.3829269440    -2.4331914023
  106      C       8.4438595076     1.0449222440    -2.5944072711
  107      H      10.0944854425    -0.2594256698    -1.8653424297
  108      H       7.5802455017     0.5935716584    -2.0914266577
  109      H       8.4542190031     0.6864641016    -3.6310390481
  110      H       8.0670754882     2.0758589843    -2.5887292291
 ----------------------------------------------------------------

   10   -5663.4581536123      3.77E-06 Convergence criterion met
 Total energy in the final basis set = -5663.4581536123

                    Orbital Energies (a.u.)
 --------------------------------------------------------------

 Alpha MOs
 -- Occupied --
-88.992 -88.983 -88.934 -88.930 -88.927 -88.922 -88.906 -88.901
-14.390 -14.388 -14.385 -14.383 -14.352 -14.352 -14.347 -14.337
-14.332 -14.319 -10.282 -10.274 -10.264 -10.262 -10.262 -10.260
-10.257 -10.254 -10.254 -10.251 -10.247 -10.239 -10.239 -10.239
-10.236 -10.236 -10.236 -10.234 -10.230 -10.229 -10.227 -10.227
-10.225 -10.224 -10.223 -10.221 -10.221 -10.221 -10.217 -10.214
-10.211 -10.207 -10.206 -10.205 -10.199 -10.199 -10.198 -10.192
-10.186 -10.184 -10.180 -10.180 -10.177 -10.176 -10.176 -10.175
-10.172 -10.172 -10.167 -10.167  -8.048  -8.040  -7.994  -7.993
 -7.986  -7.978  -7.965  -7.960  -6.012  -6.007  -6.006  -6.005
 -5.999  -5.997  -5.958  -5.957  -5.955  -5.953  -5.951  -5.950
 -5.949  -5.946  -5.943  -5.942  -5.940  -5.935  -5.930  -5.926
 -5.925  -5.921  -5.921  -5.916  -1.042  -1.041  -0.978  -0.967
 -0.964  -0.956  -0.951  -0.948  -0.914  -0.911  -0.901  -0.901
 -0.839  -0.833  -0.832  -0.830  -0.816  -0.810  -0.807  -0.803
 -0.801  -0.801  -0.800  -0.795  -0.783  -0.781  -0.770  -0.764
 -0.747  -0.747  -0.740  -0.736  -0.721  -0.718  -0.708  -0.706
 -0.692  -0.691  -0.678  -0.671  -0.655  -0.649  -0.647  -0.643
 -0.638  -0.630  -0.629  -0.624  -0.616  -0.611  -0.599  -0.598
 -0.593  -0.592  -0.585  -0.582  -0.580  -0.575  -0.560  -0.558
 -0.551  -0.543  -0.536  -0.535  -0.524  -0.524  -0.518  -0.515
 -0.505  -0.504  -0.501  -0.491  -0.490  -0.483  -0.478  -0.474
 -0.473  -0.471  -0.471  -0.467  -0.459  -0.457  -0.453  -0.450
 -0.446  -0.444  -0.443  -0.442  -0.437  -0.436  -0.432  -0.430
 -0.429  -0.424  -0.423  -0.423  -0.421  -0.419  -0.415  -0.413
 -0.412  -0.409  -0.407  -0.404  -0.404  -0.402  -0.400  -0.396
 -0.395  -0.392  -0.391  -0.389  -0.388  -0.387  -0.386  -0.384
 -0.382  -0.381  -0.375  -0.374  -0.365  -0.363  -0.360  -0.353
 -0.353  -0.350  -0.348  -0.346  -0.343  -0.342  -0.341  -0.338
 -0.336  -0.334  -0.332  -0.330  -0.327  -0.326  -0.320  -0.318
 -0.316  -0.314  -0.310  -0.305  -0.304  -0.301  -0.301  -0.297
 -0.295  -0.294  -0.294  -0.290  -0.289  -0.286  -0.284  -0.279
 -0.271  -0.266  -0.263  -0.262  -0.259  -0.254  -0.250  -0.245
 -0.244  -0.241  -0.232  -0.229  -0.198  -0.192

          Ground-State Mulliken Net Atomic Charges

     Atom                 Charge (a.u.)
  ----------------------------------------
      1 C                     0.252420
      2 C                    -0.120819
      3 N                    -0.445036
      4 C                    -0.102925
      5 C                     0.066857
      6 C                     0.060536
      7 C                     0.029617
      8 C                     0.047025
      9 C                     0.219986
     10 N                    -0.515907
     11 N                    -0.527891
     12 C                     0.195840
     13 C                     0.286105
     14 S                     0.601720
     15 N                    -0.553856
     16 C                    -0.222391
     17 S                     0.334629
     18 C                    -0.132186
     19 C                    -0.197287
     20 S                     0.310461
     21 C                     0.154687
     22 C                     0.030882
     23 C                    -0.323689
     24 C                    -0.058285
     25 N                    -0.417605
     26 S                     0.284337
     27 C                     0.116850
     28 C                    -0.293324
     29 C                    -0.233067
     30 H                     0.105440
     31 H                     0.102344
     32 H                     0.115233
     33 H                     0.101669
     34 H                     0.136838
     35 H                     0.089997
     36 H                     0.122632
     37 H                     0.116522
     38 H                     0.107525
     39 C                    -0.182857
     40 H                     0.095985
     41 H                     0.096309
     42 H                     0.091490
     43 C                    -0.176205
     44 H                     0.094101
     45 C                    -0.175186
     46 H                     0.098984
     47 H                     0.089494
     48 H                     0.088030
     49 C                    -0.176245
     50 H                     0.110523
     51 C                    -0.324230
     52 H                     0.097569
     53 H                     0.098281
     54 H                     0.096684
     55 H                     0.104960
     56 C                     0.295767
     57 C                    -0.126702
     58 N                    -0.458915
     59 C                    -0.069727
     60 C                     0.058520
     61 C                     0.027131
     62 C                    -0.004529
     63 C                     0.069108
     64 C                     0.240409
     65 N                    -0.531237
     66 N                    -0.577850
     67 C                     0.120402
     68 C                     0.332325
     69 S                     0.639432
     70 N                    -0.504568
     71 C                    -0.204869
     72 S                     0.307057
     73 C                    -0.112312
     74 C                    -0.231813
     75 S                     0.267526
     76 C                     0.171652
     77 C                     0.037582
     78 C                    -0.319682
     79 C                    -0.030259
     80 N                    -0.411580
     81 S                     0.260136
     82 C                     0.126145
     83 C                    -0.302669
     84 C                    -0.237037
     85 H                     0.099728
     86 H                     0.132328
     87 H                     0.104443
     88 H                     0.126099
     89 H                     0.132176
     90 H                     0.109064
     91 H                     0.118131
     92 H                     0.135530
     93 H                     0.121400
     94 C                    -0.200100
     95 H                     0.104167
     96 H                     0.095597
     97 H                     0.097764
     98 C                    -0.177037
     99 H                     0.087253
    100 C                    -0.193440
    101 H                     0.102884
    102 H                     0.084563
    103 H                     0.109812
    104 C                    -0.168772
    105 H                     0.092538
    106 C                    -0.318364
    107 H                     0.097030
    108 H                     0.100391
    109 H                     0.097667
    110 H                     0.106136
  ----------------------------------------
  Sum of atomic charges =     0.000000

                    Cartesian Multipole Moments
 -----------------------------------------------------------------
    Charge (ESU x 10^10)
                 0.0000
    Dipole Moment (Debye)
         X      -4.0564      Y       2.5520      Z       1.5925
       Tot       5.0500
    Quadrupole Moments (Debye-Ang)
        XX    -377.5535     XY     -13.9786     YY    -443.4952
        XZ       0.3032     YZ      -7.3831     ZZ    -444.6767

 Total job time:  102.43s(wall), 1150.52s(cpu)
        *  Thank you very much for using Q-Chem.  Have a nice day.  *
