 Q-Chem 4.4, Q-Chem, Inc., Pleasanton, CA (2016)
 Q-Chem 4.4.2 for Intel X86 Linux

User input:
--------------------------------------------------------------
$comment
SP
$end

$rem
MEM_STATIC 5000
MEM_TOTAL 20000
JOBTYPE SP
EXCHANGE B3LYP
BASIS 6-31g(d,p)
$end

$molecule
0 1
C         -10.686000      8.942000      0.256000
C          -9.909000      9.117000     -0.878000
N         -10.220000      8.472000      1.444000
C          -8.524000      8.785000     -0.808000
C          -8.920000      8.099000      1.486000
C          -8.001000      8.297000      0.439000
C          -6.565000      7.937000      0.667000
C          -5.575000      8.783000      0.173000
C          -6.104000      6.755000      1.385000
N          -4.281000      8.473000      0.167000
N          -6.867000      5.830000      2.027000
C          -4.780000      6.433000      1.374000
C          -3.825000      7.285000      0.687000
S          -5.891000      4.759000      2.610000
N          -4.494000      5.313000      2.083000
C          -2.356000      7.129000      0.481000
S          -1.142000      8.460000      0.292000
C          -1.706000      5.910000      0.409000
C           0.193000      7.279000      0.096000
S          -2.302000      4.322000      0.507000
C          -0.337000      6.039000      0.179000
C           1.547000      7.654000      0.043000
C          -0.652000      3.758000      0.132000
C           0.348000      4.748000      0.050000
N           2.472000      6.862000     -0.478000
S           2.025000      9.281000      0.448000
C           3.639000      7.575000     -0.661000
C           3.511000      8.854000     -0.254000
C         -12.134000      9.483000      0.213000
H         -10.136000      9.675000     -1.782000
H          -7.797000      9.001000     -1.585000
H          -8.516000      7.953000      2.486000
H          -5.696000      9.705000     -0.395000
H          -0.478000      2.719000     -0.116000
H           1.386000      4.537000     -0.176000
H           4.513000      7.086000     -1.072000
H           4.246000      9.648000     -0.257000
H         -12.209000     10.555000      0.433000
C         -13.153000      8.760000      1.156000
H         -12.576000      9.434000     -0.790000
H         -12.989000      9.032000      2.206000
H         -12.938000      7.687000      1.077000
C         -14.613000      8.987000      0.814000
H         -14.862000     10.052000      0.906000
C         -15.516000      8.362000      1.893000
H         -14.844000      8.631000     -0.198000
H         -15.108000      8.637000      2.873000
H         -15.379000      7.275000      1.846000
C         -17.024000      8.758000      1.731000
H         -17.216000      9.810000      1.974000
C         -17.944000      7.864000      2.628000
H         -17.279000      8.602000      0.675000
H         -18.916000      8.363000      2.732000
H         -17.515000      8.083000      3.613000
H         -17.936000      6.855000      2.199000
C           2.610000     -0.662000     -3.224000
C           2.432000      0.312000     -2.261000
N           1.956000     -0.821000     -4.389000
C           1.406000      1.233000     -2.431000
C           1.017000      0.117000     -4.602000
C           0.667000      1.169000     -3.681000
C          -0.447000      2.153000     -3.965000
C          -0.359000      3.416000     -3.439000
C          -1.637000      1.884000     -4.761000
N          -1.212000      4.396000     -3.726000
N          -1.953000      0.697000     -5.318000
C          -2.498000      2.908000     -5.061000
C          -2.198000      4.184000     -4.573000
S          -3.323000      0.902000     -6.174000
N          -3.545000      2.537000     -5.817000
C          -2.928000      5.414000     -5.055000
S          -4.283000      5.556000     -6.127000
C          -2.656000      6.732000     -4.700000
C          -4.606000      7.230000     -5.955000
S          -1.513000      7.357000     -3.471000
C          -3.583000      7.697000     -5.169000
C          -5.941000      7.787000     -6.037000
C          -2.439000      8.941000     -3.553000
C          -3.526000      8.915000     -4.442000
N          -6.152000      9.081000     -5.985000
S          -7.371000      6.739000     -6.006000
C          -7.464000      9.344000     -5.939000
C          -8.323000      8.233000     -6.004000
C           3.685000     -1.728000     -2.875000
H           2.838000      0.231000     -1.257000
H           1.267000      1.984000     -1.659000
H           0.400000      0.072000     -5.498000
H           0.531000      3.663000     -2.863000
H          -2.216000      9.722000     -2.838000
H          -4.210000      9.756000     -4.423000
H          -7.797000     10.372000     -5.869000
H          -9.387000      8.189000     -6.196000
H           4.034000     -1.556000     -1.849000
C           4.981000     -1.747000     -3.814000
H           3.242000     -2.731000     -2.916000
H           5.471000     -0.766000     -3.790000
H           4.527000     -1.854000     -4.807000
C           5.897000     -2.963000     -3.537000
H           6.534000     -2.927000     -4.429000
C           5.154000     -4.310000     -3.750000
H           6.544000     -2.835000     -2.660000
H           4.353000     -4.174000     -4.487000
H           4.700000     -4.641000     -2.808000
C           6.212000     -5.482000     -4.014000
H           7.048000     -5.497000     -3.303000
C           6.749000     -5.711000     -5.399000
H           5.708000     -6.430000     -3.790000
H           7.413000     -6.577000     -5.510000
H           7.279000     -4.869000     -5.861000
H           5.933000     -6.043000     -6.053000
$end

--------------------------------------------------------------

             Standard Nuclear Orientation (Angstroms)
    I     Atom           X                Y                Z
 ----------------------------------------------------------------
    1      C      -8.5134820314    -0.2614056283     0.7346880455
    2      C      -7.7118037077    -0.4540881611    -0.3790872042
    3      N      -8.1403379195     0.4359805781     1.8409501984
    4      C      -6.4031971766     0.1123892473    -0.3779503605
    5      C      -6.8757223601     0.9167894233     1.8624755606
    6      C      -5.9860155235     0.8651558476     0.7735633884
    7      C      -4.6544979851     1.5390769993     0.9022930524
    8      C      -4.1539465595     2.2485689443    -0.1867071543
    9      C      -3.8223862538     1.5230154551     2.0991644296
   10      N      -2.9161149993     2.7338767725    -0.2398234463
   11      N      -4.1252004966     0.9760853510     3.3071085490
   12      C      -2.5523653695     2.0137303840     2.0441479603
   13      C      -2.0426879368     2.5894898764     0.8118217367
   14      S      -2.8913274827     1.2098669141     4.2357686409
   15      N      -1.8957738144     1.9378472301     3.2282114201
   16      C      -0.6944969400     3.1333153447     0.4781034480
   17      S      -0.3194379141     4.4340407425    -0.7254422165
   18      C       0.4832988470     2.7060786266     1.0645425930
   19      C       1.4366416465     4.3086039125    -0.3850715675
   20      S       0.7737567688     1.5183522187     2.2441629454
   21      C       1.6081976629     3.3515916454     0.5530569171
   22      C       2.3858882776     5.2009441507    -0.9136637852
   23      C       2.5167331104     1.8107751028     2.0038645276
   24      C       2.8640351174     2.8648088049     1.1348315761
   25      N       3.6718060706     4.8918775266    -0.9859358521
   26      S       1.8694192125     6.6608107798    -1.7147175475
   27      C       4.3209693931     5.8066237373    -1.7894116456
   28      C       3.4760137690     6.7472238236    -2.2575948051
   29      C      -9.9867790721    -0.7204222819     0.6350208905
   30      H      -7.9913559378    -0.8000514830    -1.3701820183
   31      H      -5.7405730098     0.1382615792    -1.2377025550
   32      H      -6.6788994851     1.6574540101     2.6352683697
   33      H      -4.6024146696     2.3801511213    -1.1710401696
   34      H       3.2438008904     1.1340380985     2.4336324537
   35      H       3.8852020659     3.1398804824     0.9011766263
   36      H       5.3865669370     5.7180275355    -1.9584400081
   37      H       3.6852351184     7.5964944548    -2.8944902611
   38      H     -10.6421123016     0.0099715365     0.1448451787
   39      C     -10.6703319127    -1.0952130066     1.9924546556
   40      H     -10.1153798889    -1.5979326907    -0.0108980768
   41      H     -10.8970696789    -0.2013183050     2.5865272503
   42      H      -9.9279927849    -1.6664596723     2.5637731888
   43      C     -11.9297289557    -1.9305579862     1.8651328069
   44      H     -12.6991260360    -1.3736806723     1.3150366424
   45      C     -12.5956047711    -2.1032416232     3.2424725471
   46      H     -11.7242318381    -2.8854579309     1.3649548083
   47      H     -12.6054571872    -1.1240111285     3.7359293013
   48      H     -11.9180218832    -2.7035374393     3.8614017541
   49      C     -14.0196132883    -2.7525620502     3.1546845875
   50      H     -14.7672326316    -2.0805778814     2.7163700949
   51      C     -14.5237350912    -3.2053763321     4.5657357680
   52      H     -13.9264983282    -3.6288726962     2.5005391482
   53      H     -15.6103339052    -3.3512239247     4.5144279012
   54      H     -14.4886472892    -2.2452493872     5.0940842287
   55      H     -13.9115381095    -4.0623103829     4.8708011514
   56      C       8.2051284448    -1.1779437777     1.6172148513
   57      C       7.3545943848    -0.1004913503     1.7702412521
   58      N       7.9904993709    -2.3305699149     0.9572077692
   59      C       6.0668889979    -0.1940510246     1.2575245428
   60      C       6.7758832753    -2.3954196666     0.3849873133
   61      C       5.7512573373    -1.3871372419     0.4896450387
   62      C       4.3825513310    -1.5595241858    -0.1323152572
   63      C       3.7003090914    -0.4427362835    -0.5408728515
   64      C       3.6980012097    -2.8279154826    -0.3436246269
   65      N       2.5518662366    -0.4837489560    -1.2115254964
   66      N       4.1581276720    -4.0373596489     0.0366416579
   67      C       2.5232781804    -2.8551002526    -1.0501540266
   68      C       2.0192968437    -1.6439436221    -1.5353575186
   69      S       3.0951033280    -5.1561309889    -0.4829648596
   70      N       2.0012888773    -4.0848062778    -1.1941549262
   71      C       0.8879263277    -1.5936270836    -2.5331515863
   72      S      -0.0842384259    -2.8751306802    -3.1796941014
   73      C       0.3677245862    -0.4542640979    -3.1400907387
   74      C      -1.2424600166    -1.9473843898    -4.0364312650
   75      S       0.7390954103     1.2673173745    -2.8148893470
   76      C      -0.7957727054    -0.6548938062    -3.9252892949
   77      C      -2.6213408558    -2.3623068316    -4.1968214091
   78      C      -0.8215795292     1.6718727987    -3.6945964813
   79      C      -1.5240249490     0.5432254201    -4.1476875617
   80      N      -3.4670520467    -1.6750225877    -4.9276250420
   81      S      -3.2866632024    -3.7054773954    -3.2495073051
   82      C      -4.7045372834    -2.1727773431    -4.8114377261
   83      C      -4.8412021607    -3.3157883281    -4.0044212458
   84      C       9.5691322957    -1.0341728442     2.3470130519
   85      H       7.5191413716     0.6820984058     2.5050137086
   86      H       5.4033075660     0.6539971079     1.3981661021
   87      H       6.4764275128    -3.2954511004    -0.1496150290
   88      H       4.1931046696     0.5210445206    -0.4261380280
   89      H      -1.1864334104     2.6905380153    -3.6837419054
   90      H      -2.5263996066     0.6966793508    -4.5313474853
   91      H      -5.5204134862    -1.6949824438    -5.3392928729
   92      H      -5.6646716707    -4.0130221184    -3.9228185020
   93      H       9.5526654586    -0.1180847913     2.9508114641
   94      C      10.8604405390    -0.9515666797     1.4049954074
   95      H       9.7191516182    -1.8824289078     3.0266415191
   96      H      10.7644443381    -0.1023873869     0.7174517665
   97      H      10.7492158718    -1.8634208556     0.8051912434
   98      C      12.1836743963    -1.0234826091     2.2039455047
   99      H      12.8875358036    -1.2217172931     1.3866260265
  100      C      12.2955563761    -2.3370455210     3.0248364225
  101      H      12.4699630321    -0.0705340065     2.6666006440
  102      H      11.7165038317    -3.1275706239     2.5318514202
  103      H      11.8836992051    -2.1872462218     4.0303088690
  104      C      13.8307038333    -2.6430260026     3.3600113462
  105      H      14.3829149575    -1.7788461105     3.7510330699
  106      C      14.6917340809    -3.3540571937     2.3539812481
  107      H      13.8450872836    -3.3269383362     4.2173053660
  108      H      15.7098757421    -3.5894484771     2.6873751614
  109      H      14.8039825144    -2.8661532281     1.3779392360
  110      H      14.3206100620    -4.3777658164     2.2195059031
 ----------------------------------------------------------------

    9   -5663.4865263348      9.89E-06 Convergence criterion met
 Total energy in the final basis set = -5663.4865263348

                    Orbital Energies (a.u.)
 --------------------------------------------------------------

 Alpha MOs
 -- Occupied --
-88.995 -88.992 -88.926 -88.924 -88.923 -88.914 -88.912 -88.901
-14.387 -14.384 -14.382 -14.380 -14.350 -14.344 -14.342 -14.341
-14.338 -14.333 -10.270 -10.268 -10.267 -10.264 -10.260 -10.259
-10.258 -10.252 -10.245 -10.242 -10.235 -10.234 -10.234 -10.234
-10.231 -10.231 -10.230 -10.230 -10.230 -10.229 -10.229 -10.229
-10.228 -10.228 -10.226 -10.224 -10.224 -10.223 -10.219 -10.219
-10.218 -10.216 -10.208 -10.206 -10.205 -10.203 -10.198 -10.191
-10.186 -10.185 -10.182 -10.181 -10.180 -10.179 -10.178 -10.173
-10.172 -10.172 -10.172 -10.169  -8.052  -8.047  -7.989  -7.985
 -7.982  -7.975  -7.973  -7.959  -6.016  -6.012  -6.011  -6.010
 -6.006  -6.004  -5.952  -5.949  -5.948  -5.946  -5.945  -5.945
 -5.943  -5.942  -5.939  -5.938  -5.937  -5.935  -5.934  -5.932
 -5.929  -5.924  -5.920  -5.915  -1.060  -1.035  -0.974  -0.974
 -0.971  -0.953  -0.943  -0.934  -0.914  -0.913  -0.907  -0.899
 -0.843  -0.833  -0.832  -0.830  -0.815  -0.813  -0.812  -0.802
 -0.801  -0.800  -0.797  -0.797  -0.783  -0.783  -0.765  -0.764
 -0.751  -0.746  -0.742  -0.734  -0.720  -0.711  -0.709  -0.706
 -0.693  -0.691  -0.678  -0.677  -0.659  -0.651  -0.645  -0.644
 -0.636  -0.633  -0.626  -0.625  -0.612  -0.609  -0.598  -0.595
 -0.591  -0.587  -0.584  -0.583  -0.572  -0.570  -0.569  -0.559
 -0.555  -0.549  -0.543  -0.543  -0.526  -0.523  -0.517  -0.511
 -0.510  -0.508  -0.504  -0.499  -0.484  -0.484  -0.481  -0.477
 -0.476  -0.473  -0.472  -0.469  -0.468  -0.459  -0.450  -0.450
 -0.446  -0.442  -0.438  -0.436  -0.433  -0.433  -0.426  -0.425
 -0.423  -0.421  -0.419  -0.419  -0.417  -0.417  -0.414  -0.411
 -0.411  -0.410  -0.408  -0.406  -0.402  -0.402  -0.398  -0.398
 -0.395  -0.393  -0.392  -0.391  -0.388  -0.387  -0.386  -0.382
 -0.377  -0.375  -0.372  -0.368  -0.367  -0.362  -0.360  -0.356
 -0.350  -0.345  -0.345  -0.343  -0.342  -0.340  -0.338  -0.334
 -0.332  -0.329  -0.328  -0.327  -0.325  -0.322  -0.320  -0.320
 -0.311  -0.309  -0.308  -0.306  -0.304  -0.302  -0.302  -0.300
 -0.298  -0.297  -0.293  -0.291  -0.289  -0.286  -0.285  -0.283
 -0.278  -0.273  -0.269  -0.269  -0.262  -0.254  -0.253  -0.245
 -0.244  -0.238  -0.235  -0.226  -0.194  -0.193

          Ground-State Mulliken Net Atomic Charges

     Atom                 Charge (a.u.)
  ----------------------------------------
      1 C                     0.270605
      2 C                    -0.112106
      3 N                    -0.476952
      4 C                    -0.082930
      5 C                     0.089575
      6 C                     0.035708
      7 C                     0.015328
      8 C                     0.052759
      9 C                     0.230265
     10 N                    -0.497403
     11 N                    -0.529824
     12 C                     0.192129
     13 C                     0.265278
     14 S                     0.625094
     15 N                    -0.552823
     16 C                    -0.211311
     17 S                     0.284100
     18 C                    -0.075644
     19 C                    -0.210498
     20 S                     0.292078
     21 C                     0.138024
     22 C                     0.057380
     23 C                    -0.313994
     24 C                    -0.054416
     25 N                    -0.447057
     26 S                     0.275219
     27 C                     0.132219
     28 C                    -0.307109
     29 C                    -0.240726
     30 H                     0.098582
     31 H                     0.104893
     32 H                     0.106763
     33 H                     0.115293
     34 H                     0.118605
     35 H                     0.131186
     36 H                     0.117663
     37 H                     0.127026
     38 H                     0.115791
     39 C                    -0.169003
     40 H                     0.098046
     41 H                     0.107020
     42 H                     0.098232
     43 C                    -0.178649
     44 H                     0.087515
     45 C                    -0.171385
     46 H                     0.087337
     47 H                     0.090552
     48 H                     0.089055
     49 C                    -0.191173
     50 H                     0.091359
     51 C                    -0.313375
     52 H                     0.090527
     53 H                     0.098006
     54 H                     0.107123
     55 H                     0.111216
     56 C                     0.276333
     57 C                    -0.112191
     58 N                    -0.479990
     59 C                    -0.083485
     60 C                     0.090035
     61 C                     0.013991
     62 C                     0.047409
     63 C                     0.058791
     64 C                     0.231039
     65 N                    -0.527462
     66 N                    -0.557325
     67 C                     0.251691
     68 C                     0.328781
     69 S                     0.603264
     70 N                    -0.589406
     71 C                    -0.213602
     72 S                     0.293831
     73 C                    -0.127364
     74 C                    -0.210130
     75 S                     0.280315
     76 C                     0.117643
     77 C                     0.049468
     78 C                    -0.304663
     79 C                    -0.056273
     80 N                    -0.412313
     81 S                     0.273670
     82 C                     0.119226
     83 C                    -0.320087
     84 C                    -0.230667
     85 H                     0.099662
     86 H                     0.100687
     87 H                     0.118520
     88 H                     0.117677
     89 H                     0.133847
     90 H                     0.125000
     91 H                     0.108522
     92 H                     0.134129
     93 H                     0.084431
     94 C                    -0.194402
     95 H                     0.114070
     96 H                     0.087528
     97 H                     0.117027
     98 C                    -0.173659
     99 H                     0.102580
    100 C                    -0.179827
    101 H                     0.094659
    102 H                     0.108086
    103 H                     0.097869
    104 C                    -0.187017
    105 H                     0.095107
    106 C                    -0.316928
    107 H                     0.089444
    108 H                     0.099127
    109 H                     0.100976
    110 H                     0.101183
  ----------------------------------------
  Sum of atomic charges =     0.000000

                    Cartesian Multipole Moments
 -----------------------------------------------------------------
    Charge (ESU x 10^10)
                 0.0000
    Dipole Moment (Debye)
         X       0.1237      Y       1.1191      Z       0.5482
       Tot       1.2523
    Quadrupole Moments (Debye-Ang)
        XX    -425.8655     XY      22.5926     YY    -424.0180
        XZ      22.8236     YZ      -6.1474     ZZ    -449.0043

 Total job time:  86.41s(wall), 957.09s(cpu)
        *  Thank you very much for using Q-Chem.  Have a nice day.  *
