 Q-Chem 4.4, Q-Chem, Inc., Pleasanton, CA (2016)
 Q-Chem 4.4.2 for Intel X86 Linux

User input:
--------------------------------------------------------------
$comment
SP
$end

$rem
MEM_STATIC 5000
MEM_TOTAL 20000
JOBTYPE SP
EXCHANGE B3LYP
BASIS 6-31g(d,p)
$end

$molecule
0 1
C         -12.141000      7.171000     -2.720000
C         -12.167000      6.546000     -1.418000
N         -11.069000      7.207000     -3.554000
C         -11.053000      5.877000     -1.029000
C          -9.955000      6.623000     -3.102000
C          -9.892000      5.857000     -1.893000
C          -8.705000      5.008000     -1.470000
C          -8.929000      3.777000     -0.838000
C          -7.359000      5.310000     -1.795000
N          -7.983000      2.943000     -0.400000
N          -6.837000      6.453000     -2.355000
C          -6.384000      4.365000     -1.429000
C          -6.728000      3.181000     -0.746000
S          -5.222000      6.194000     -2.518000
N          -5.128000      4.686000     -1.848000
C          -5.683000      2.150000     -0.392000
S          -4.094000      1.811000     -1.210000
C          -5.923000      1.208000      0.555000
C          -3.860000      0.347000     -0.193000
S          -7.180000      1.124000      1.845000
C          -4.959000      0.211000      0.691000
C          -2.517000     -0.117000      0.045000
C          -6.196000     -0.024000      2.746000
C          -5.170000     -0.504000      1.949000
N          -2.361000     -1.111000      0.835000
S          -1.298000      0.054000     -1.160000
C          -1.074000     -1.589000      0.711000
C          -0.290000     -1.017000     -0.248000
C         -13.427000      7.852000     -3.227000
H         -13.036000      6.509000     -0.769000
H         -11.126000      5.388000     -0.062000
H          -9.172000      6.666000     -3.858000
H          -9.982000      3.601000     -0.621000
H          -6.320000     -0.259000      3.794000
H          -4.556000     -1.313000      2.329000
H          -0.765000     -2.332000      1.435000
H           0.751000     -1.149000     -0.510000
H         -13.428000      8.922000     -2.986000
C         -14.766000      7.207000     -2.924000
H         -13.425000      7.760000     -4.320000
H         -15.505000      7.737000     -3.537000
H         -15.084000      7.338000     -1.882000
C         -14.810000      5.751000     -3.369000
H         -14.361000      5.574000     -4.354000
C         -16.327000      5.229000     -3.187000
H         -14.164000      5.172000     -2.697000
H         -17.099000      5.787000     -3.730000
H         -16.558000      5.172000     -2.116000
C         -16.307000      3.855000     -3.852000
H         -16.133000      3.994000     -4.926000
C         -17.679000      3.146000     -3.610000
H         -15.447000      3.197000     -3.677000
H         -18.433000      3.923000     -3.787000
H         -17.802000      2.790000     -2.579000
H         -17.827000      2.310000     -4.305000
C           2.610000     -0.662000     -3.224000
C           2.432000      0.312000     -2.261000
N           1.956000     -0.821000     -4.389000
C           1.406000      1.233000     -2.431000
C           1.017000      0.117000     -4.602000
C           0.667000      1.169000     -3.681000
C          -0.447000      2.153000     -3.965000
C          -0.359000      3.416000     -3.439000
C          -1.637000      1.884000     -4.761000
N          -1.212000      4.396000     -3.726000
N          -1.953000      0.697000     -5.318000
C          -2.498000      2.908000     -5.061000
C          -2.198000      4.184000     -4.573000
S          -3.323000      0.902000     -6.174000
N          -3.545000      2.537000     -5.817000
C          -2.928000      5.414000     -5.055000
S          -4.283000      5.556000     -6.127000
C          -2.656000      6.732000     -4.700000
C          -4.606000      7.230000     -5.955000
S          -1.513000      7.357000     -3.471000
C          -3.583000      7.697000     -5.169000
C          -5.941000      7.787000     -6.037000
C          -2.439000      8.941000     -3.553000
C          -3.526000      8.915000     -4.442000
N          -6.152000      9.081000     -5.985000
S          -7.371000      6.739000     -6.006000
C          -7.464000      9.344000     -5.939000
C          -8.323000      8.233000     -6.004000
C           3.685000     -1.728000     -2.875000
H           2.838000      0.231000     -1.257000
H           1.267000      1.984000     -1.659000
H           0.400000      0.072000     -5.498000
H           0.531000      3.663000     -2.863000
H          -2.216000      9.722000     -2.838000
H          -4.210000      9.756000     -4.423000
H          -7.797000     10.372000     -5.869000
H          -9.387000      8.189000     -6.196000
H           4.034000     -1.556000     -1.849000
C           4.981000     -1.747000     -3.814000
H           3.242000     -2.731000     -2.916000
H           5.471000     -0.766000     -3.790000
H           4.527000     -1.854000     -4.807000
C           5.897000     -2.963000     -3.537000
H           6.534000     -2.927000     -4.429000
C           5.154000     -4.310000     -3.750000
H           6.544000     -2.835000     -2.660000
H           4.353000     -4.174000     -4.487000
H           4.700000     -4.641000     -2.808000
C           6.212000     -5.482000     -4.014000
H           7.048000     -5.497000     -3.303000
C           6.749000     -5.711000     -5.399000
H           5.708000     -6.430000     -3.790000
H           7.413000     -6.577000     -5.510000
H           7.279000     -4.869000     -5.861000
H           5.933000     -6.043000     -6.053000
$end

--------------------------------------------------------------

             Standard Nuclear Orientation (Angstroms)
    I     Atom           X                Y                Z
 ----------------------------------------------------------------
    1      C       8.5912766587     0.2257368164     0.0764646307
    2      C       8.3186122999     1.4707841253     0.7561824735
    3      N       7.6645263579    -0.7144804971    -0.2447226721
    4      C       7.0211410601     1.7569103184     1.0292725381
    5      C       6.4076881081    -0.4484355342     0.1239691933
    6      C       5.9894038262     0.8036871983     0.6804158864
    7      C       4.5420217541     1.2081555419     0.9044460104
    8      C       4.1533192029     2.5344337095     0.6702291260
    9      C       3.5021351946     0.2946447925     1.2088783576
   10      N       2.9249731894     3.0279905321     0.8430982499
   11      N       3.5870574505    -1.0378758439     1.5401033023
   12      C       2.1952528627     0.8098948300     1.2735465058
   13      C       1.9345373896     2.1799620275     1.0695261229
   14      S       2.0435848240    -1.5635614574     1.7480020442
   15      N       1.2433671228    -0.1410003534     1.4876723757
   16      C       0.5251037100     2.7211992301     1.0988688083
   17      S      -1.0348529211     1.8571028296     0.7399276990
   18      C       0.2888042837     4.0473005234     1.2643708956
   19      C      -1.9365292341     3.4105586941     0.8180026874
   20      S       1.3561442488     5.3710157942     1.8641777652
   21      C      -1.0336186571     4.4609863833     1.1165109109
   22      C      -3.3378706904     3.3758486264     1.1506080605
   23      C      -0.0544283432     6.3532023684     2.2430649464
   24      C      -1.1866344814     5.8105579248     1.6583160530
   25      N      -3.9473619891     4.4929677593     1.2811346850
   26      S      -4.3301787462     2.0584503738     0.6536034665
   27      C      -5.3068151197     4.2658798033     1.3045279686
   28      C      -5.7251254207     2.9850725996     1.0898878069
   29      C      10.0454524149    -0.0770068949    -0.3338098087
   30      H       9.0660918396     2.2216946139     0.9909989464
   31      H       6.8540035279     2.7189066918     1.5048427464
   32      H       5.7384724113    -1.2372301459    -0.2172454191
   33      H       4.9954966795     3.1843799454     0.4353227865
   34      H      -0.0555094083     7.2081998632     2.9047923187
   35      H      -2.1113158841     6.3753688081     1.7010941972
   36      H      -5.9312831374     5.1111184786     1.5639837002
   37      H      -6.7036511637     2.5253146230     1.1191960523
   38      H      10.5568122511    -0.6695726357     0.4345383941
   39      C      10.9156470978     1.0580017640    -0.8390538666
   40      H       9.9978273302    -0.6874620673    -1.2438610895
   41      H      11.8167934561     0.5897591287    -1.2531481498
   42      H      11.2595577797     1.7283320324    -0.0412871249
   43      C      10.2594755178     1.8091922973    -1.9901614377
   44      H       9.7785834775     1.1568057971    -2.7292755695
   45      C      11.3445540371     2.8510665910    -2.5766761971
   46      H       9.4168354880     2.3825644085    -1.5835372842
   47      H      12.2881857463     2.4189092341    -2.9302242365
   48      H      11.5224241916     3.6369595049    -1.8321054912
   49      C      10.6708030093     3.3859190856    -3.8378238337
   50      H      10.5821218477     2.5627006949    -4.5572125553
   51      C      11.5393881086     4.5400463180    -4.4354685918
   52      H       9.6014673791     3.6276740612    -3.8022592175
   53      H      12.5722612539     4.1749099153    -4.3769666855
   54      H      11.4797195864     5.4680390744    -3.8522918506
   55      H      11.2697157593     4.7465248104    -5.4787655084
   56      C      -8.1107225375    -0.1804662019    -0.2066041879
   57      C      -7.4881958695    -0.1953721458     1.0262653756
   58      N      -7.6137403798    -0.5432254274    -1.4031143128
   59      C      -6.1475594862    -0.5541293845     1.0879446369
   60      C      -6.3415598087    -0.9728333440    -1.3404434847
   61      C      -5.5307284174    -1.0032624064    -0.1491955982
   62      C      -4.0829127376    -1.4429648680    -0.1691831557
   63      C      -3.5572687938    -2.0269872064     0.9542959729
   64      C      -3.1664974793    -1.3014414081    -1.2926737808
   65      N      -2.3408053076    -2.5634953211     1.0067710127
   66      N      -3.4555412747    -0.7038099901    -2.4667114176
   67      C      -1.9220518182    -1.8734528351    -1.2289954963
   68      C      -1.5766462083    -2.5692784030    -0.0658782436
   69      S      -2.1550605087    -0.8603044482    -3.4341411369
   70      N      -1.1798917137    -1.6901495199    -2.3339770681
   71      C      -0.3495013146    -3.4452246303     0.0045321027
   72      S       0.9073651702    -3.6967703547    -1.1626801265
   73      C       0.0402937005    -4.2416172593     1.0773562387
   74      C       1.9895704475    -4.6298095423    -0.2169219057
   75      S      -0.6643126998    -4.3454300306     2.7206053766
   76      C       1.3143238469    -4.8521627945     0.9565409440
   77      C       3.4284969146    -4.5664173845    -0.3739889506
   78      C       0.9046099082    -5.1468211782     3.2397489778
   79      C       1.8461393751    -5.2695488802     2.2048450334
   80      N       4.2308895696    -5.3520195811     0.3047276441
   81      S       4.1860889089    -3.2856783349    -1.3383161031
   82      C       5.5096919984    -5.0146510263     0.0962191158
   83      C       5.7351220396    -3.9632136127    -0.8093677998
   84      C      -9.5632212875     0.3707095125    -0.1912838313
   85      H      -7.8818634302     0.3273503255     1.8929833629
   86      H      -5.6659661703    -0.5468008163     2.0612483768
   87      H      -5.8222677590    -1.2626954024    -2.2524992693
   88      H      -4.2208519033    -2.1764879227     1.8041147728
   89      H       1.0821712193    -5.3309485712     4.2911690099
   90      H       2.8483447967    -5.5844774344     2.4729910730
   91      H       6.2925714151    -5.5591618544     0.6092305941
   92      H       6.6491364614    -3.6526218015    -1.2982505707
   93      H      -9.7861432457     0.7530196233     0.8128106761
   94      C     -10.7132958561    -0.6799674760    -0.5588492709
   95      H      -9.6519641370     1.2063312200    -0.8968333111
   96      H     -10.6763878385    -1.5284180634     0.1352734840
   97      H     -10.3670261228    -1.0476686295    -1.5327625799
   98      C     -12.0976539344    -0.0096795805    -0.7282831758
   99      H     -12.6421110903    -0.8227522829    -1.2234681776
  100      C     -12.0869639411     1.0706631093    -1.8438872260
  101      H     -12.6037897891     0.1997293164     0.2225566690
  102      H     -11.3193509603     0.8222464494    -2.5870732558
  103      H     -11.8439040345     2.0504347302    -1.4149228305
  104      C     -13.5761744744     1.3239526506    -2.3737366346
  105      H     -14.3169260984     1.4593996028    -1.5752485916
  106      C     -14.1599492219     0.4281863070    -3.4300721409
  107      H     -13.5845884460     2.3075848189    -2.8588066940
  108      H     -15.1566592464     0.7112407564    -3.7901031197
  109      H     -14.2253567472    -0.6383754338    -3.1821287831
  110      H     -13.6020786829     0.5608173736    -4.3654787166
 ----------------------------------------------------------------

   10   -5663.4872205826      6.81E-06 Convergence criterion met
 Total energy in the final basis set = -5663.4872205826

                    Orbital Energies (a.u.)
 --------------------------------------------------------------

 Alpha MOs
 -- Occupied --
-88.995 -88.986 -88.926 -88.921 -88.921 -88.913 -88.911 -88.900
-14.390 -14.388 -14.381 -14.378 -14.355 -14.350 -14.343 -14.343
-14.337 -14.332 -10.272 -10.271 -10.261 -10.261 -10.255 -10.254
-10.253 -10.248 -10.247 -10.240 -10.240 -10.239 -10.238 -10.237
-10.237 -10.236 -10.236 -10.236 -10.231 -10.229 -10.229 -10.229
-10.229 -10.228 -10.225 -10.225 -10.224 -10.224 -10.223 -10.223
-10.219 -10.213 -10.213 -10.211 -10.203 -10.202 -10.200 -10.194
-10.187 -10.187 -10.185 -10.184 -10.184 -10.183 -10.182 -10.182
-10.181 -10.177 -10.172 -10.170  -8.050  -8.039  -7.985  -7.982
 -7.979  -7.976  -7.969  -7.960  -6.015  -6.009  -6.007  -6.005
 -5.999  -5.997  -5.949  -5.946  -5.946  -5.944  -5.943  -5.942
 -5.940  -5.940  -5.939  -5.936  -5.936  -5.934  -5.933  -5.930
 -5.925  -5.925  -5.921  -5.916  -1.038  -1.022  -0.979  -0.976
 -0.975  -0.965  -0.949  -0.941  -0.920  -0.902  -0.900  -0.888
 -0.838  -0.837  -0.831  -0.830  -0.816  -0.813  -0.808  -0.806
 -0.805  -0.802  -0.800  -0.794  -0.787  -0.782  -0.768  -0.767
 -0.749  -0.745  -0.739  -0.730  -0.721  -0.717  -0.712  -0.703
 -0.695  -0.688  -0.682  -0.669  -0.662  -0.653  -0.649  -0.643
 -0.640  -0.630  -0.629  -0.620  -0.616  -0.614  -0.601  -0.594
 -0.590  -0.589  -0.586  -0.585  -0.578  -0.574  -0.572  -0.562
 -0.555  -0.548  -0.541  -0.537  -0.528  -0.519  -0.516  -0.513
 -0.508  -0.505  -0.503  -0.491  -0.489  -0.485  -0.482  -0.476
 -0.474  -0.470  -0.469  -0.466  -0.462  -0.461  -0.453  -0.450
 -0.446  -0.445  -0.442  -0.440  -0.437  -0.434  -0.431  -0.430
 -0.428  -0.428  -0.425  -0.422  -0.421  -0.419  -0.417  -0.415
 -0.414  -0.411  -0.407  -0.405  -0.404  -0.400  -0.399  -0.396
 -0.395  -0.394  -0.391  -0.388  -0.385  -0.384  -0.383  -0.380
 -0.378  -0.374  -0.372  -0.372  -0.371  -0.366  -0.354  -0.353
 -0.352  -0.348  -0.347  -0.346  -0.343  -0.342  -0.338  -0.337
 -0.335  -0.333  -0.332  -0.330  -0.327  -0.325  -0.323  -0.322
 -0.318  -0.312  -0.307  -0.305  -0.304  -0.303  -0.302  -0.298
 -0.298  -0.293  -0.293  -0.289  -0.287  -0.287  -0.286  -0.283
 -0.276  -0.274  -0.272  -0.267  -0.265  -0.259  -0.249  -0.248
 -0.245  -0.243  -0.234  -0.227  -0.200  -0.191

          Ground-State Mulliken Net Atomic Charges

     Atom                 Charge (a.u.)
  ----------------------------------------
      1 C                     0.249815
      2 C                    -0.096911
      3 N                    -0.481610
      4 C                    -0.085714
      5 C                     0.098441
      6 C                     0.019558
      7 C                     0.029533
      8 C                     0.064819
      9 C                     0.240133
     10 N                    -0.516799
     11 N                    -0.566961
     12 C                     0.200566
     13 C                     0.299797
     14 S                     0.646405
     15 N                    -0.572377
     16 C                    -0.217764
     17 S                     0.300053
     18 C                    -0.104434
     19 C                    -0.247341
     20 S                     0.259665
     21 C                     0.144069
     22 C                     0.074316
     23 C                    -0.294619
     24 C                    -0.072289
     25 N                    -0.419797
     26 S                     0.276465
     27 C                     0.109157
     28 C                    -0.314939
     29 C                    -0.231722
     30 H                     0.099043
     31 H                     0.105733
     32 H                     0.111542
     33 H                     0.104377
     34 H                     0.136325
     35 H                     0.120032
     36 H                     0.106302
     37 H                     0.136963
     38 H                     0.111458
     39 C                    -0.185981
     40 H                     0.114021
     41 H                     0.097686
     42 H                     0.086816
     43 C                    -0.185959
     44 H                     0.098117
     45 C                    -0.168824
     46 H                     0.100084
     47 H                     0.099660
     48 H                     0.096989
     49 C                    -0.182394
     50 H                     0.093557
     51 C                    -0.320259
     52 H                     0.091669
     53 H                     0.097736
     54 H                     0.103512
     55 H                     0.097621
     56 C                     0.277295
     57 C                    -0.123587
     58 N                    -0.477654
     59 C                    -0.086324
     60 C                     0.092456
     61 C                     0.009656
     62 C                     0.056618
     63 C                     0.064049
     64 C                     0.239370
     65 N                    -0.531719
     66 N                    -0.558891
     67 C                     0.255810
     68 C                     0.342881
     69 S                     0.612976
     70 N                    -0.591036
     71 C                    -0.214467
     72 S                     0.291344
     73 C                    -0.131161
     74 C                    -0.207072
     75 S                     0.259635
     76 C                     0.116929
     77 C                     0.051300
     78 C                    -0.304302
     79 C                    -0.059405
     80 N                    -0.414844
     81 S                     0.275014
     82 C                     0.124282
     83 C                    -0.316584
     84 C                    -0.232742
     85 H                     0.099412
     86 H                     0.115116
     87 H                     0.121158
     88 H                     0.112196
     89 H                     0.127044
     90 H                     0.134959
     91 H                     0.113799
     92 H                     0.154912
     93 H                     0.083430
     94 C                    -0.193678
     95 H                     0.115551
     96 H                     0.088757
     97 H                     0.117964
     98 C                    -0.174276
     99 H                     0.103755
    100 C                    -0.180162
    101 H                     0.095342
    102 H                     0.108297
    103 H                     0.097448
    104 C                    -0.186880
    105 H                     0.095443
    106 C                    -0.317403
    107 H                     0.090065
    108 H                     0.099842
    109 H                     0.101098
    110 H                     0.101637
  ----------------------------------------
  Sum of atomic charges =     0.000000

                    Cartesian Multipole Moments
 -----------------------------------------------------------------
    Charge (ESU x 10^10)
                 0.0000
    Dipole Moment (Debye)
         X       0.3036      Y       1.1851      Z       1.5418
       Tot       1.9682
    Quadrupole Moments (Debye-Ang)
        XX    -387.1812     XY       0.2020     YY    -455.2551
        XZ      -9.2080     YZ       3.3052     ZZ    -436.6274

 Total job time:  104.58s(wall), 1152.28s(cpu)
        *  Thank you very much for using Q-Chem.  Have a nice day.  *
