 Q-Chem 4.4, Q-Chem, Inc., Pleasanton, CA (2016)
 Q-Chem 4.4.2 for Intel X86 Linux

User input:
--------------------------------------------------------------
$comment
SP
$end

$rem
MEM_STATIC 5000
MEM_TOTAL 20000
JOBTYPE SP
EXCHANGE B3LYP
BASIS 6-31g(d,p)
$end

$molecule
0 1
C           8.567000     17.963000     -6.612000
C           7.163000     17.959000     -6.543000
N           9.304000     16.937000     -6.366000
C           6.449000     16.774000     -6.338000
C           8.688000     15.728000     -6.265000
C           7.278000     15.581000     -6.136000
C           6.688000     14.209000     -6.057000
C           5.381000     14.114000     -5.448000
C           7.224000     13.056000     -6.640000
N           4.864000     12.894000     -5.130000
N           8.358000     12.992000     -7.405000
C           6.488000     11.907000     -6.489000
C           5.381000     11.747000     -5.664000
S           8.411000     11.439000     -7.968000
N           7.102000     10.887000     -7.137000
C           4.640000     10.424000     -5.377000
S           5.230000      8.794000     -5.866000
C           3.492000     10.340000     -4.626000
C           3.995000      8.075000     -4.908000
S           2.471000     11.555000     -3.851000
C           3.237000      9.020000     -4.282000
C           3.915000      6.672000     -4.717000
C           1.535000     10.236000     -3.168000
C           2.075000      9.017000     -3.495000
N           4.636000      5.953000     -5.527000
S           2.882000      5.826000     -3.533000
C           4.335000      4.641000     -5.321000
C           3.382000      4.437000     -4.341000
C           9.265000     19.315000     -6.654000
H           6.566000     18.857000     -6.671000
H           5.369000     16.682000     -6.407000
H           9.456000     14.979000     -6.078000
H           4.936000     14.992000     -4.982000
H           0.560000     10.368000     -2.717000
H           1.488000      8.161000     -3.183000
H           4.747000      3.807000     -5.873000
H           3.049000      3.487000     -3.944000
H          10.339000     19.096000     -6.688000
C           8.979000     20.054000     -5.376000
H           8.975000     19.924000     -7.519000
H           9.281000     19.463000     -4.502000
H           7.900000     20.234000     -5.301000
C           9.635000     21.410000     -5.207000
H           9.679000     21.636000     -4.134000
C           9.029000     22.541000     -6.088000
H          10.680000     21.254000     -5.501000
H           7.958000     22.603000     -5.859000
H           9.076000     22.238000     -7.142000
C           9.856000     23.851000     -5.887000
H          10.893000     23.601000     -6.142000
C           9.670000     24.333000     -4.425000
H           9.540000     24.660000     -6.558000
H           8.645000     24.195000     -4.061000
H           9.811000     25.420000     -4.376000
H          10.400000     23.913000     -3.722000
C           2.610000     -0.662000     -3.224000
C           2.432000      0.312000     -2.261000
N           1.956000     -0.821000     -4.389000
C           1.406000      1.233000     -2.431000
C           1.017000      0.117000     -4.602000
C           0.667000      1.169000     -3.681000
C          -0.447000      2.153000     -3.965000
C          -0.359000      3.416000     -3.439000
C          -1.637000      1.884000     -4.761000
N          -1.212000      4.396000     -3.726000
N          -1.953000      0.697000     -5.318000
C          -2.498000      2.908000     -5.061000
C          -2.198000      4.184000     -4.573000
S          -3.323000      0.902000     -6.174000
N          -3.545000      2.537000     -5.817000
C          -2.928000      5.414000     -5.055000
S          -4.283000      5.556000     -6.127000
C          -2.656000      6.732000     -4.700000
C          -4.606000      7.230000     -5.955000
S          -1.513000      7.357000     -3.471000
C          -3.583000      7.697000     -5.169000
C          -5.941000      7.787000     -6.037000
C          -2.439000      8.941000     -3.553000
C          -3.526000      8.915000     -4.442000
N          -6.152000      9.081000     -5.985000
S          -7.371000      6.739000     -6.006000
C          -7.464000      9.344000     -5.939000
C          -8.323000      8.233000     -6.004000
C           3.685000     -1.728000     -2.875000
H           2.838000      0.231000     -1.257000
H           1.267000      1.984000     -1.659000
H           0.400000      0.072000     -5.498000
H           0.531000      3.663000     -2.863000
H          -2.216000      9.722000     -2.838000
H          -4.210000      9.756000     -4.423000
H          -7.797000     10.372000     -5.869000
H          -9.387000      8.189000     -6.196000
H           4.034000     -1.556000     -1.849000
C           4.981000     -1.747000     -3.814000
H           3.242000     -2.731000     -2.916000
H           5.471000     -0.766000     -3.790000
H           4.527000     -1.854000     -4.807000
C           5.897000     -2.963000     -3.537000
H           6.534000     -2.927000     -4.429000
C           5.154000     -4.310000     -3.750000
H           6.544000     -2.835000     -2.660000
H           4.353000     -4.174000     -4.487000
H           4.700000     -4.641000     -2.808000
C           6.212000     -5.482000     -4.014000
H           7.048000     -5.497000     -3.303000
C           6.749000     -5.711000     -5.399000
H           5.708000     -6.430000     -3.790000
H           7.413000     -6.577000     -5.510000
H           7.279000     -4.869000     -5.861000
H           5.933000     -6.043000     -6.053000
$end

--------------------------------------------------------------

             Standard Nuclear Orientation (Angstroms)
    I     Atom           X                Y                Z
 ----------------------------------------------------------------
    1      C      11.6946787525    -1.0977086612    -0.7240981395
    2      C      11.0679398436     0.1574419458    -0.6358468286
    3      N      11.0828400089    -2.2208901541    -0.5809978743
    4      C       9.6780914027     0.2695244294    -0.5271968028
    5      C       9.7223347665    -2.2018877227    -0.5794509791
    6      C       8.9605611090    -1.0070100331    -0.4441062280
    7      C       7.4672651125    -1.0814997941    -0.4793672887
    8      C       6.7619277347     0.0187301194     0.1371944040
    9      C       6.7145016142    -2.0367353308    -1.1703565686
   10      N       5.4191395707    -0.0672246465     0.3524726537
   11      N       7.2129175824    -3.0430929978    -1.9540036632
   12      C       5.3511698299    -1.8863527084    -1.1119655350
   13      C       4.6597633809    -1.0053220396    -0.2889126310
   14      S       5.8881121965    -3.7406893107    -2.6538872777
   15      N       4.7565573762    -2.8500696134    -1.8569391970
   16      C       3.1284856216    -0.9336143966    -0.1105157764
   17      S       1.9657100684    -2.1508379665    -0.7511723099
   18      C       2.4925023244     0.0213075452     0.6461944263
   19      C       0.7079148724    -1.4062889522     0.1563231503
   20      S       3.0730657824     1.4291153620     1.5407972555
   21      C       1.1736464742    -0.3449527500     0.8747412326
   22      C      -0.5968795652    -1.9580195160     0.2226168946
   23      C       1.4302883922     1.6570805126     2.1166968442
   24      C       0.6013251639     0.6560964643     1.6747229751
   25      N      -0.8630782517    -2.8777385139    -0.6583809625
   26      S      -1.8960824401    -1.4621017091     1.3410078901
   27      C      -2.1848367715    -3.1920374610    -0.5659061695
   28      C      -2.8592668042    -2.4765563967     0.4054104512
   29      C      13.2148895090    -1.1308474926    -0.6553008028
   30      H      11.6181562069     1.0928241785    -0.6748215919
   31      H       9.1254245984     1.2024700057    -0.5888162412
   32      H       9.3763723709    -3.2286844781    -0.4708579588
   33      H       7.3173051721     0.7780639015     0.6858592465
   34      H       1.0858994273     2.5667345543     2.5914344195
   35      H      -0.4461095840     0.7925021870     1.9174634287
   36      H      -2.7090185814    -3.8980351998    -1.1958304688
   37      H      -3.8852778371    -2.6137127999     0.7208268132
   38      H      13.4942209198    -2.1890825420    -0.7238977636
   39      C      13.6559273915    -0.6172120436     0.6874073605
   40      H      13.6960533977    -0.5592223138    -1.4583773666
   41      H      13.1954889553    -1.1922050791     1.5008816721
   42      H      13.3364686905     0.4263257042     0.7934314491
   43      C      15.1456503116    -0.6218490474     0.9672950514
   44      H      15.2880366579    -0.6182111815     2.0554374567
   45      C      15.9559988434     0.4626147504     0.1992901502
   46      H      15.4877867847    -1.6129955568     0.6457857502
   47      H      15.5230996949     1.4393648753     0.4480541363
   48      H      15.7833660094     0.3426146787    -0.8780825278
   49      C      17.4774732516     0.2826768870     0.5045244709
   50      H      17.7290926535    -0.7444253664     0.2135903932
   51      C      17.7189715438     0.5845764074     2.0061566677
   52      H      18.1118386282     0.9550474655    -0.0871480519
   53      H      17.1173852199     1.4255449725     2.3708904984
   54      H      18.7501272466     0.9308719968     2.1498517662
   55      H      17.6125905413    -0.2909974002     2.6585082522
   56      C      -7.8444263671    -4.0716356364     1.0742754238
   57      C      -7.1222986722    -3.5358235524     2.1226866040
   58      N      -8.1885979858    -3.4935475938    -0.0908778330
   59      C      -6.7372531559    -2.2030538150     2.0500107655
   60      C      -7.7468664074    -2.2292168823    -0.2060952994
   61      C      -7.0275568966    -1.5026909994     0.8098766339
   62      C      -6.6164583100    -0.0574435620     0.6305283785
   63      C      -5.4863572667     0.3886480712     1.2657156634
   64      C      -7.3222632692     0.9345858040    -0.1693429216
   65      N      -4.9637198493     1.5979813218     1.0793256987
   66      N      -8.4824365017     0.7280377866    -0.8253993117
   67      C      -6.7628143715     2.1710206976    -0.3646444443
   68      C      -5.5249486422     2.4344417908     0.2308534683
   69      S      -8.8388915682     2.0920981071    -1.6402245860
   70      N      -7.4998962085     2.9879787069    -1.1357968136
   71      C      -4.7100549781     3.6528156111    -0.1291986811
   72      S      -5.1003351202     4.9870686193    -1.1649705291
   73      C      -3.4371122307     3.9666491823     0.3379824950
   74      C      -3.7572440107     6.0002871374    -0.8398805322
   75      S      -2.4653989849     3.1500409790     1.6014853285
   76      C      -2.9470366210     5.2453063170    -0.0299534081
   77      C      -3.8404483603     7.4466976357    -0.8529842252
   78      C      -1.4495427430     4.6784435998     1.6741319024
   79      C      -1.8856904082     5.6891120048     0.8018414752
   80      N      -2.7792365801     8.1993924266    -0.6828633583
   81      S      -5.4100515186     8.2705440495    -0.8952691170
   82      C      -3.1248522623     9.4899204778    -0.5950217432
   83      C      -4.4923792038     9.7785642073    -0.7466194401
   84      C      -8.3508701335    -5.5211089896     1.3116015916
   85      H      -7.0901785263    -3.9878736650     3.1096171953
   86      H      -6.1834071784    -1.7898736339     2.8877713347
   87      H      -7.9925972440    -1.6484515255    -1.0937089295
   88      H      -4.9160616688    -0.3322480457     1.8487737390
   89      H      -0.7052842381     4.7827081104     2.4526710406
   90      H      -1.4356324442     6.6700389420     0.9054183690
   91      H      -2.3567062310    10.2348681661    -0.4289566468
   92      H      -4.9859686186    10.7245250480    -0.9266849208
   93      H      -8.1190694100    -5.8124720148     2.3438016750
   94      C      -7.7280242615    -6.6441915687     0.3563809154
   95      H      -9.4403946742    -5.5599510337     1.1876396187
   96      H      -6.6362411097    -6.6562848218     0.4607854300
   97      H      -7.9503189039    -6.2318455875    -0.6356724520
   98      C      -8.4333744488    -8.0127862113     0.5108827516
   99      H      -8.0548850664    -8.5226165977    -0.3832915963
  100      C      -9.9500941118    -7.9238216901     0.1892093492
  101      H      -8.0987617137    -8.5831964274     1.3865473580
  102      H     -10.1265959283    -7.1069548190    -0.5213127291
  103      H     -10.5156961602    -7.7099063411     1.1042916113
  104      C     -10.5136180224    -9.3725696277    -0.1931703252
  105      H     -10.2115120844   -10.1665865966     0.5017476954
  106      C     -10.3798876782    -9.8829314926    -1.6005373569
  107      H     -11.6003439590    -9.3463494179    -0.0474471652
  108      H     -10.8543289075   -10.8520608808    -1.7976838730
  109      H      -9.3589987481    -9.9664995393    -1.9931060440
  110      H     -10.9879107656    -9.2615984162    -2.2699020806
 ----------------------------------------------------------------

   10   -5663.4903273365      4.04E-06 Convergence criterion met
 Total energy in the final basis set = -5663.4903273365

                    Orbital Energies (a.u.)
 --------------------------------------------------------------

 Alpha MOs
 -- Occupied --
-88.998 -88.988 -88.928 -88.926 -88.920 -88.919 -88.911 -88.907
-14.393 -14.391 -14.377 -14.377 -14.357 -14.348 -14.344 -14.344
-14.340 -14.321 -10.274 -10.273 -10.264 -10.262 -10.260 -10.258
-10.249 -10.248 -10.246 -10.243 -10.241 -10.240 -10.237 -10.237
-10.236 -10.236 -10.234 -10.233 -10.233 -10.231 -10.228 -10.227
-10.225 -10.225 -10.223 -10.223 -10.221 -10.220 -10.219 -10.219
-10.218 -10.217 -10.213 -10.204 -10.200 -10.199 -10.197 -10.193
-10.187 -10.186 -10.184 -10.182 -10.182 -10.182 -10.178 -10.176
-10.173 -10.172 -10.171 -10.170  -8.053  -8.043  -7.988  -7.987
 -7.981  -7.978  -7.969  -7.966  -6.018  -6.012  -6.010  -6.008
 -6.002  -6.001  -5.952  -5.951  -5.949  -5.948  -5.945  -5.945
 -5.944  -5.942  -5.941  -5.938  -5.938  -5.934  -5.933  -5.931
 -5.930  -5.927  -5.925  -5.922  -1.041  -1.026  -0.979  -0.978
 -0.977  -0.949  -0.947  -0.944  -0.919  -0.913  -0.905  -0.888
 -0.844  -0.839  -0.838  -0.828  -0.818  -0.816  -0.809  -0.808
 -0.803  -0.803  -0.801  -0.790  -0.788  -0.780  -0.769  -0.762
 -0.750  -0.744  -0.740  -0.737  -0.724  -0.717  -0.712  -0.703
 -0.696  -0.687  -0.684  -0.672  -0.663  -0.654  -0.651  -0.644
 -0.642  -0.631  -0.631  -0.620  -0.617  -0.612  -0.602  -0.598
 -0.592  -0.591  -0.586  -0.583  -0.578  -0.572  -0.562  -0.560
 -0.556  -0.550  -0.539  -0.534  -0.529  -0.522  -0.517  -0.515
 -0.513  -0.505  -0.501  -0.497  -0.490  -0.483  -0.481  -0.478
 -0.475  -0.470  -0.466  -0.463  -0.461  -0.455  -0.451  -0.449
 -0.445  -0.443  -0.442  -0.441  -0.439  -0.437  -0.435  -0.430
 -0.429  -0.427  -0.426  -0.423  -0.419  -0.419  -0.415  -0.415
 -0.412  -0.411  -0.408  -0.408  -0.406  -0.405  -0.397  -0.397
 -0.396  -0.394  -0.391  -0.391  -0.389  -0.389  -0.382  -0.379
 -0.378  -0.377  -0.375  -0.372  -0.368  -0.360  -0.356  -0.354
 -0.353  -0.350  -0.349  -0.344  -0.344  -0.343  -0.339  -0.337
 -0.334  -0.333  -0.333  -0.331  -0.329  -0.327  -0.325  -0.314
 -0.314  -0.312  -0.309  -0.306  -0.304  -0.302  -0.302  -0.300
 -0.298  -0.297  -0.296  -0.293  -0.289  -0.289  -0.288  -0.285
 -0.285  -0.275  -0.268  -0.266  -0.263  -0.250  -0.249  -0.245
 -0.245  -0.242  -0.234  -0.226  -0.201  -0.187

          Ground-State Mulliken Net Atomic Charges

     Atom                 Charge (a.u.)
  ----------------------------------------
      1 C                     0.276090
      2 C                    -0.107995
      3 N                    -0.464983
      4 C                    -0.075129
      5 C                     0.073991
      6 C                     0.010273
      7 C                     0.000675
      8 C                     0.064541
      9 C                     0.268434
     10 N                    -0.530228
     11 N                    -0.571834
     12 C                     0.203106
     13 C                     0.308331
     14 S                     0.611948
     15 N                    -0.565597
     16 C                    -0.226917
     17 S                     0.363487
     18 C                    -0.121027
     19 C                    -0.222366
     20 S                     0.284336
     21 C                     0.151054
     22 C                     0.085078
     23 C                    -0.302607
     24 C                    -0.095389
     25 N                    -0.441069
     26 S                     0.287374
     27 C                     0.119672
     28 C                    -0.313194
     29 C                    -0.222803
     30 H                     0.089453
     31 H                     0.108308
     32 H                     0.115383
     33 H                     0.119138
     34 H                     0.122325
     35 H                     0.115059
     36 H                     0.115512
     37 H                     0.127663
     38 H                     0.113466
     39 C                    -0.178244
     40 H                     0.099620
     41 H                     0.099445
     42 H                     0.085141
     43 C                    -0.177137
     44 H                     0.095662
     45 C                    -0.178726
     46 H                     0.087386
     47 H                     0.087969
     48 H                     0.087102
     49 C                    -0.173703
     50 H                     0.099624
     51 C                    -0.318647
     52 H                     0.090884
     53 H                     0.105550
     54 H                     0.094465
     55 H                     0.109043
     56 C                     0.276643
     57 C                    -0.113996
     58 N                    -0.477799
     59 C                    -0.085534
     60 C                     0.089710
     61 C                     0.008026
     62 C                     0.059002
     63 C                     0.059610
     64 C                     0.230281
     65 N                    -0.532092
     66 N                    -0.557413
     67 C                     0.252687
     68 C                     0.331060
     69 S                     0.610021
     70 N                    -0.587630
     71 C                    -0.212036
     72 S                     0.301317
     73 C                    -0.124789
     74 C                    -0.208128
     75 S                     0.264541
     76 C                     0.118725
     77 C                     0.050204
     78 C                    -0.310672
     79 C                    -0.049970
     80 N                    -0.412167
     81 S                     0.276314
     82 C                     0.123926
     83 C                    -0.317703
     84 C                    -0.231372
     85 H                     0.103977
     86 H                     0.104787
     87 H                     0.120575
     88 H                     0.102250
     89 H                     0.121005
     90 H                     0.132258
     91 H                     0.112338
     92 H                     0.136723
     93 H                     0.086026
     94 C                    -0.194484
     95 H                     0.115819
     96 H                     0.087199
     97 H                     0.116767
     98 C                    -0.173310
     99 H                     0.103461
    100 C                    -0.180301
    101 H                     0.095817
    102 H                     0.107688
    103 H                     0.098026
    104 C                    -0.186882
    105 H                     0.095707
    106 C                    -0.317232
    107 H                     0.089776
    108 H                     0.099833
    109 H                     0.101215
    110 H                     0.101204
  ----------------------------------------
  Sum of atomic charges =     0.000000

                    Cartesian Multipole Moments
 -----------------------------------------------------------------
    Charge (ESU x 10^10)
                 0.0000
    Dipole Moment (Debye)
         X      -3.2654      Y       2.8713      Z       2.0191
       Tot       4.7942
    Quadrupole Moments (Debye-Ang)
        XX    -418.5221     XY      15.9803     YY    -408.0389
        XZ      -6.1500     YZ      -2.7364     ZZ    -440.4209

 Total job time:  91.07s(wall), 1000.00s(cpu)
        *  Thank you very much for using Q-Chem.  Have a nice day.  *
