 Q-Chem 4.4, Q-Chem, Inc., Pleasanton, CA (2016)
 Q-Chem 4.4.2 for Intel X86 Linux

User input:
--------------------------------------------------------------
$comment
SP
$end

$rem
MEM_STATIC 5000
MEM_TOTAL 20000
JOBTYPE SP
EXCHANGE B3LYP
BASIS 6-31g(d,p)
$end

$molecule
0 1
C           3.672000     -4.668000     -8.719000
C           3.577000     -3.858000     -7.604000
N           3.065000     -4.437000     -9.861000
C           2.744000     -2.722000     -7.649000
C           2.394000     -3.270000     -9.967000
C           2.147000     -2.408000     -8.863000
C           1.328000     -1.167000     -9.001000
C           1.505000     -0.056000     -8.121000
C           0.330000     -1.085000     -9.925000
N           0.744000      1.049000     -8.195000
N           0.038000     -2.019000    -10.922000
C          -0.492000      0.049000     -9.943000
C          -0.277000      1.204000     -9.134000
S          -1.239000     -1.298000    -11.709000
N          -1.446000      0.077000    -10.916000
C          -1.091000      2.502000     -9.291000
S          -2.447000      2.911000    -10.287000
C          -0.673000      3.650000     -8.661000
C          -2.392000      4.651000     -9.950000
S           0.453000      3.918000     -7.416000
C          -1.388000      4.808000     -9.081000
C          -3.426000      5.533000    -10.324000
C          -0.134000      5.648000     -7.325000
C          -0.958000      5.942000     -8.336000
N          -3.510000      6.730000     -9.815000
S          -4.636000      5.132000    -11.493000
C          -4.489000      7.466000    -10.382000
C          -5.078000      6.840000    -11.437000
C           4.597000     -5.937000     -8.671000
H           4.261000     -4.120000     -6.802000
H           2.684000     -2.113000     -6.752000
H           2.001000     -3.128000    -10.973000
H           2.288000     -0.065000     -7.364000
H           0.341000      6.309000     -6.613000
H          -1.357000      6.940000     -8.472000
H          -4.629000      8.517000    -10.167000
H          -5.708000      7.275000    -12.203000
H           4.877000     -6.224000     -9.692000
C           3.985000     -7.246000     -8.034000
H           5.478000     -5.582000     -8.121000
H           3.204000     -6.881000     -7.356000
H           4.709000     -7.769000     -7.397000
C           3.334000     -8.244000     -8.957000
H           2.788000     -8.945000     -8.314000
C           4.357000     -9.127000     -9.660000
H           2.628000     -7.848000     -9.697000
H           4.987000     -9.731000     -8.996000
H           5.083000     -8.485000    -10.176000
C           3.793000    -10.134000    -10.684000
H           2.852000     -9.777000    -11.119000
C           3.617000    -11.570000    -10.093000
H           4.468000    -10.150000    -11.549000
H           2.726000    -11.693000     -9.465000
H           4.546000    -11.872000     -9.594000
H           3.544000    -12.181000    -11.001000
C           2.610000     -0.662000     -3.224000
C           2.432000      0.312000     -2.261000
N           1.956000     -0.821000     -4.389000
C           1.406000      1.233000     -2.431000
C           1.017000      0.117000     -4.602000
C           0.667000      1.169000     -3.681000
C          -0.447000      2.153000     -3.965000
C          -0.359000      3.416000     -3.439000
C          -1.637000      1.884000     -4.761000
N          -1.212000      4.396000     -3.726000
N          -1.953000      0.697000     -5.318000
C          -2.498000      2.908000     -5.061000
C          -2.198000      4.184000     -4.573000
S          -3.323000      0.902000     -6.174000
N          -3.545000      2.537000     -5.817000
C          -2.928000      5.414000     -5.055000
S          -4.283000      5.556000     -6.127000
C          -2.656000      6.732000     -4.700000
C          -4.606000      7.230000     -5.955000
S          -1.513000      7.357000     -3.471000
C          -3.583000      7.697000     -5.169000
C          -5.941000      7.787000     -6.037000
C          -2.439000      8.941000     -3.553000
C          -3.526000      8.915000     -4.442000
N          -6.152000      9.081000     -5.985000
S          -7.371000      6.739000     -6.006000
C          -7.464000      9.344000     -5.939000
C          -8.323000      8.233000     -6.004000
C           3.685000     -1.728000     -2.875000
H           2.838000      0.231000     -1.257000
H           1.267000      1.984000     -1.659000
H           0.400000      0.072000     -5.498000
H           0.531000      3.663000     -2.863000
H          -2.216000      9.722000     -2.838000
H          -4.210000      9.756000     -4.423000
H          -7.797000     10.372000     -5.869000
H          -9.387000      8.189000     -6.196000
H           4.034000     -1.556000     -1.849000
C           4.981000     -1.747000     -3.814000
H           3.242000     -2.731000     -2.916000
H           5.471000     -0.766000     -3.790000
H           4.527000     -1.854000     -4.807000
C           5.897000     -2.963000     -3.537000
H           6.534000     -2.927000     -4.429000
C           5.154000     -4.310000     -3.750000
H           6.544000     -2.835000     -2.660000
H           4.353000     -4.174000     -4.487000
H           4.700000     -4.641000     -2.808000
C           6.212000     -5.482000     -4.014000
H           7.048000     -5.497000     -3.303000
C           6.749000     -5.711000     -5.399000
H           5.708000     -6.430000     -3.790000
H           7.413000     -6.577000     -5.510000
H           7.279000     -4.869000     -5.861000
H           5.933000     -6.043000     -6.053000
$end

--------------------------------------------------------------

             Standard Nuclear Orientation (Angstroms)
    I     Atom           X                Y                Z
 ----------------------------------------------------------------
    1      C       7.4885723899    -0.9958394989    -0.5850463176
    2      C       6.6896490610     0.1289495844    -0.5148962453
    3      N       7.0363439440    -2.2252640773    -0.6849394552
    4      C       5.2885374891    -0.0231873328    -0.5026193860
    5      C       5.7023782318    -2.3714057061    -0.8350863935
    6      C       4.7773195835    -1.3020270324    -0.6815782522
    7      C       3.3024480915    -1.5179659382    -0.7710794870
    8      C       2.4174614740    -0.4650824957    -1.1561575874
    9      C       2.7453745355    -2.7086218812    -0.4125945102
   10      N       1.0836125472    -0.6235272514    -1.1930940163
   11      N       3.4272861366    -3.8813463259    -0.0789136071
   12      C       1.3502299910    -2.8323161020    -0.3972504688
   13      C       0.4540621772    -1.8243379657    -0.8615718296
   14      S       2.1757778771    -4.9410668468     0.2050907837
   15      N       0.8654814858    -4.0613121109    -0.0622628618
   16      C      -1.0643129562    -2.0468149676    -0.9923003186
   17      S      -2.0858531834    -3.3774211920    -0.5633765029
   18      C      -1.8315290497    -1.1332431159    -1.6751575054
   19      C      -3.5267430449    -2.7664272366    -1.3968732296
   20      S      -1.5163821147     0.4549501055    -2.1928926704
   21      C      -3.1618967528    -1.5857382536    -1.9074481100
   22      C      -4.8054926215    -3.3337460002    -1.2239427785
   23      C      -3.2858656077     0.6109383556    -2.6291790831
   24      C      -3.9182848041    -0.5642131389    -2.5479514715
   25      N      -5.8815834774    -2.7010243668    -1.5989598509
   26      S      -5.0609274164    -4.9030426659    -0.5431175142
   27      C      -6.9960295774    -3.4503590191    -1.4642992817
   28      C      -6.7301400120    -4.7316614750    -1.0909512465
   29      C       9.0508325095    -0.8299323557    -0.5954452855
   30      H       7.2319758314     1.0672329880    -0.5870760814
   31      H       4.6903540941     0.8806026758    -0.4360592910
   32      H       5.4331029059    -3.4143106400    -0.9978411101
   33      H       2.8063620276     0.5075489285    -1.4544250380
   34      H      -3.6214028663     1.5415515764    -3.0660586790
   35      H      -4.9600644966    -0.6692509640    -2.8260937506
   36      H      -7.9622935539    -3.1319231809    -1.8322103371
   37      H      -7.3892180746    -5.5897619650    -1.1374341094
   38      H       9.5097141136    -1.7183068827    -1.0464756317
   39      C       9.7637044854    -0.6704172225     0.8046127377
   40      H       9.2037626921     0.0453313359    -1.2398146123
   41      H       8.9866811569    -0.2624380528     1.4623799792
   42      H      10.5560731250     0.0877840717     0.7771038933
   43      C      10.2968563330    -1.9120477485     1.4723228127
   44      H      10.5391723988    -1.6255050542     2.5029256502
   45      C      11.6399586993    -2.3412728836     0.8958951792
   46      H       9.6268182910    -2.7793226078     1.5139802346
   47      H      12.4463950845    -1.6044633740     0.9927667597
   48      H      11.5375035335    -2.4567502051    -0.1911484847
   49      C      12.2349419691    -3.6467125113     1.4638241249
   50      H      11.4485441098    -4.3221954849     1.8208341517
   51      C      13.2961757730    -3.3961462656     2.5833563351
   52      H      12.6750887712    -4.2080841012     0.6300143561
   53      H      12.8684150343    -3.1518986161     3.5635388876
   54      H      14.0260324319    -2.6570393426     2.2308280187
   55      H      13.8236451098    -4.3573588706     2.6143470853
   56      C       3.2131859254     4.3400053645     0.2028211666
   57      C       2.2418624194     5.3218993080     0.1908240664
   58      N       3.0614679664     3.0098035554     0.3361133566
   59      C       0.9218472374     4.9516980657     0.4151630055
   60      C       1.7778809835     2.6334415807     0.4691175723
   61      C       0.6497765174     3.5284943964     0.5299926140
   62      C      -0.7637122582     3.0323392529     0.7439728815
   63      C      -1.8013534073     3.7521198878     0.2103009941
   64      C      -1.1421991200     1.8351572879     1.4826067814
   65      N      -3.0678833759     3.3447139107     0.2276275189
   66      N      -0.2911584581     1.0185757076     2.1368225825
   67      C      -2.4489359988     1.4200525852     1.4777266856
   68      C      -3.3784460108     2.1817720093     0.7621048185
   69      S      -1.1595116588    -0.2209049138     2.7379145120
   70      N      -2.6664587336     0.2937526302     2.1773825091
   71      C      -4.7730253548     1.6784730528     0.4793282044
   72      S      -5.5667071403     0.2350617338     1.0197039882
   73      C      -5.7443164447     2.3145239278    -0.2882432275
   74      C      -7.1496949972     0.5498696617     0.4441743074
   75      S      -5.7161598740     3.9516316673    -1.0139156444
   76      C      -7.0272632884     1.7108455882    -0.2766303643
   77      C      -8.3420090091     0.0928682640     1.1288165641
   78      C      -7.5391553969     3.8049123727    -1.1824883948
   79      C      -8.0574402937     2.5976419075    -0.6860563354
   80      N      -9.5391717569     0.2752679586     0.6236505450
   81      S      -8.2569307870    -0.5527554830     2.7780881225
   82      C     -10.4822239304    -0.1031367430     1.4954827994
   83      C     -10.0246740762    -0.6457813403     2.7089950457
   84      C       4.6693463196     4.8690463765     0.0866552775
   85      H       2.4676006360     6.3774031523     0.3106860381
   86      H       0.1700429973     5.7353338614     0.4185281559
   87      H       1.5341641073     1.5826100420     0.6170539153
   88      H      -1.5551970997     4.6370792611    -0.3737700459
   89      H      -8.1133286872     4.6686886462    -1.4909208542
   90      H      -9.1350796078     2.5094525783    -0.6059679406
   91      H     -11.5260277396     0.0098124644     1.2303619132
   92      H     -10.5603461981    -1.2055243126     3.4644016798
   93      H       4.6516005099     5.9655573861     0.1242011433
   94      C       5.4580438521     4.4582730957    -1.2441037218
   95      H       5.2640002861     4.5128517158     0.9372145193
   96      H       4.9086419948     4.8118443506    -2.1251156212
   97      H       5.3618128270     3.3655947820    -1.2239123244
   98      C       6.9564197694     4.8405945432    -1.1880597999
   99      H       7.3341136973     4.2493216121    -2.0309551776
  100      C       7.6838554634     4.1644073777     0.0058561219
  101      H       7.1487148928     5.8979146186    -1.4099130032
  102      H       7.1779853960     3.2243617228     0.2581964511
  103      H       7.6492228571     4.8187318316     0.8854589253
  104      C       9.2585615880     4.1054225330    -0.2760399743
  105      H       9.6845573780     5.0534085565    -0.6288743349
  106      C       9.8338778420     2.9817220844    -1.0917258880
  107      H       9.7567634164     3.9807792726     0.6930601216
  108      H      10.9272924775     2.9740301434    -1.1786641926
  109      H       9.4536307360     2.8791002936    -2.1155368601
  110      H       9.7042280259     2.0372844948    -0.5485642505
 ----------------------------------------------------------------

   11   -5663.4958327537      6.89E-06 Convergence criterion met
 Total energy in the final basis set = -5663.4958327537

                    Orbital Energies (a.u.)
 --------------------------------------------------------------

 Alpha MOs
 -- Occupied --
-88.989 -88.988 -88.923 -88.923 -88.920 -88.912 -88.905 -88.902
-14.389 -14.385 -14.384 -14.382 -14.352 -14.350 -14.344 -14.340
-14.338 -14.318 -10.273 -10.269 -10.266 -10.265 -10.255 -10.253
-10.252 -10.249 -10.246 -10.242 -10.241 -10.235 -10.234 -10.234
-10.232 -10.230 -10.230 -10.229 -10.229 -10.227 -10.226 -10.226
-10.226 -10.225 -10.222 -10.220 -10.219 -10.216 -10.216 -10.215
-10.209 -10.207 -10.203 -10.203 -10.200 -10.194 -10.190 -10.188
-10.187 -10.186 -10.186 -10.184 -10.184 -10.179 -10.176 -10.173
-10.172 -10.170 -10.169 -10.165  -8.044  -8.043  -7.985  -7.984
 -7.980  -7.973  -7.963  -7.962  -6.009  -6.008  -6.004  -6.002
 -6.002  -6.001  -5.949  -5.948  -5.945  -5.944  -5.944  -5.942
 -5.941  -5.940  -5.938  -5.936  -5.933  -5.930  -5.928  -5.926
 -5.924  -5.923  -5.919  -5.918  -1.034  -1.032  -0.980  -0.974
 -0.971  -0.947  -0.945  -0.937  -0.917  -0.913  -0.902  -0.896
 -0.844  -0.832  -0.831  -0.830  -0.811  -0.808  -0.805  -0.803
 -0.800  -0.800  -0.798  -0.798  -0.784  -0.776  -0.767  -0.763
 -0.749  -0.749  -0.739  -0.735  -0.719  -0.710  -0.708  -0.703
 -0.693  -0.691  -0.677  -0.672  -0.662  -0.650  -0.647  -0.644
 -0.637  -0.632  -0.626  -0.621  -0.613  -0.613  -0.598  -0.594
 -0.589  -0.589  -0.586  -0.580  -0.575  -0.572  -0.564  -0.556
 -0.551  -0.549  -0.543  -0.533  -0.523  -0.519  -0.512  -0.510
 -0.509  -0.501  -0.499  -0.497  -0.485  -0.480  -0.478  -0.475
 -0.471  -0.470  -0.467  -0.463  -0.460  -0.454  -0.450  -0.450
 -0.445  -0.442  -0.440  -0.436  -0.435  -0.434  -0.433  -0.430
 -0.426  -0.425  -0.422  -0.421  -0.420  -0.416  -0.415  -0.412
 -0.411  -0.408  -0.406  -0.402  -0.401  -0.400  -0.399  -0.395
 -0.393  -0.392  -0.391  -0.389  -0.388  -0.384  -0.384  -0.382
 -0.378  -0.377  -0.373  -0.371  -0.371  -0.359  -0.352  -0.351
 -0.350  -0.347  -0.345  -0.344  -0.342  -0.341  -0.336  -0.334
 -0.334  -0.333  -0.331  -0.328  -0.326  -0.324  -0.320  -0.320
 -0.311  -0.309  -0.306  -0.305  -0.302  -0.301  -0.301  -0.297
 -0.296  -0.293  -0.290  -0.289  -0.288  -0.285  -0.282  -0.280
 -0.277  -0.271  -0.267  -0.264  -0.260  -0.253  -0.245  -0.241
 -0.240  -0.238  -0.230  -0.227  -0.196  -0.195

          Ground-State Mulliken Net Atomic Charges

     Atom                 Charge (a.u.)
  ----------------------------------------
      1 C                     0.265514
      2 C                    -0.121711
      3 N                    -0.477173
      4 C                    -0.103666
      5 C                     0.070200
      6 C                     0.027274
      7 C                     0.014149
      8 C                     0.080719
      9 C                     0.268010
     10 N                    -0.544499
     11 N                    -0.566422
     12 C                     0.140132
     13 C                     0.303434
     14 S                     0.612231
     15 N                    -0.527486
     16 C                    -0.218265
     17 S                     0.303290
     18 C                    -0.106186
     19 C                    -0.228543
     20 S                     0.251850
     21 C                     0.145865
     22 C                     0.089776
     23 C                    -0.317508
     24 C                    -0.031230
     25 N                    -0.439113
     26 S                     0.254531
     27 C                     0.133610
     28 C                    -0.307297
     29 C                    -0.235013
     30 H                     0.094669
     31 H                     0.136027
     32 H                     0.130233
     33 H                     0.131824
     34 H                     0.136691
     35 H                     0.131807
     36 H                     0.121314
     37 H                     0.131130
     38 H                     0.114307
     39 C                    -0.174514
     40 H                     0.098264
     41 H                     0.090996
     42 H                     0.091917
     43 C                    -0.175078
     44 H                     0.090486
     45 C                    -0.170350
     46 H                     0.109567
     47 H                     0.082025
     48 H                     0.086786
     49 C                    -0.187046
     50 H                     0.091870
     51 C                    -0.316979
     52 H                     0.091092
     53 H                     0.108577
     54 H                     0.102358
     55 H                     0.101145
     56 C                     0.281961
     57 C                    -0.116744
     58 N                    -0.497633
     59 C                    -0.076628
     60 C                     0.091654
     61 C                     0.008892
     62 C                     0.067599
     63 C                     0.052208
     64 C                     0.238652
     65 N                    -0.534573
     66 N                    -0.562658
     67 C                     0.260889
     68 C                     0.336663
     69 S                     0.606759
     70 N                    -0.591734
     71 C                    -0.204700
     72 S                     0.309258
     73 C                    -0.126760
     74 C                    -0.204168
     75 S                     0.251045
     76 C                     0.115328
     77 C                     0.048318
     78 C                    -0.307749
     79 C                    -0.052351
     80 N                    -0.415749
     81 S                     0.274664
     82 C                     0.121976
     83 C                    -0.318952
     84 C                    -0.231286
     85 H                     0.101698
     86 H                     0.104638
     87 H                     0.134678
     88 H                     0.109207
     89 H                     0.122670
     90 H                     0.129164
     91 H                     0.109401
     92 H                     0.133936
     93 H                     0.087129
     94 C                    -0.196865
     95 H                     0.114752
     96 H                     0.091068
     97 H                     0.110260
     98 C                    -0.172605
     99 H                     0.102732
    100 C                    -0.186011
    101 H                     0.097767
    102 H                     0.108588
    103 H                     0.100803
    104 C                    -0.189747
    105 H                     0.097194
    106 C                    -0.330102
    107 H                     0.091605
    108 H                     0.101874
    109 H                     0.101520
    110 H                     0.114874
  ----------------------------------------
  Sum of atomic charges =     0.000000

                    Cartesian Multipole Moments
 -----------------------------------------------------------------
    Charge (ESU x 10^10)
                 0.0000
    Dipole Moment (Debye)
         X      -2.5823      Y       1.6456      Z       1.2587
       Tot       3.3107
    Quadrupole Moments (Debye-Ang)
        XX    -411.4930     XY      32.8639     YY    -413.3024
        XZ      -6.0948     YZ      -7.2311     ZZ    -446.2342

 Total job time:  118.69s(wall), 1323.77s(cpu)
        *  Thank you very much for using Q-Chem.  Have a nice day.  *
