 Q-Chem 4.4, Q-Chem, Inc., Pleasanton, CA (2016)
 Q-Chem 4.4.2 for Intel X86 Linux

User input:
--------------------------------------------------------------
$comment
SP
$end

$rem
MEM_STATIC 5000
MEM_TOTAL 20000
JOBTYPE SP
EXCHANGE B3LYP
BASIS 6-31g(d,p)
$end

$molecule
0 1
C           4.850000    -21.850000     -3.099000
C           5.830000    -22.670000     -3.652000
N           5.170000    -20.845000     -2.298000
C           7.194000    -22.318000     -3.558000
C           6.445000    -20.486000     -2.100000
C           7.504000    -21.204000     -2.748000
C           8.940000    -20.829000     -2.614000
C           9.884000    -21.829000     -2.219000
C           9.533000    -19.535000     -2.849000
N          11.178000    -21.602000     -1.970000
N           8.803000    -18.488000     -3.153000
C          10.834000    -19.313000     -2.659000
C          11.688000    -20.373000     -2.217000
S           9.896000    -17.201000     -3.175000
N          11.281000    -17.988000     -2.810000
C          13.138000    -20.191000     -2.000000
S          13.932000    -20.921000     -0.587000
C          14.054000    -19.509000     -2.697000
C          15.567000    -20.247000     -1.106000
S          13.762000    -19.000000     -4.309000
C          15.395000    -19.596000     -2.292000
C          16.858000    -20.589000     -0.569000
C          15.515000    -18.657000     -4.388000
C          16.246000    -19.154000     -3.337000
N          17.004000    -21.767000      0.005000
S          18.140000    -19.397000     -0.170000
C          18.302000    -21.880000      0.414000
C          19.050000    -20.717000      0.393000
C           3.381000    -22.113000     -3.171000
H           5.508000    -23.480000     -4.300000
H           7.975000    -22.823000     -4.119000
H           6.639000    -19.647000     -1.434000
H           9.546000    -22.862000     -2.284000
H          15.942000    -18.054000     -5.179000
H          17.326000    -19.141000     -3.245000
H          18.691000    -22.867000      0.623000
H          20.044000    -20.328000      0.568000
H           3.272000    -23.017000     -2.559000
C           2.698000    -22.216000     -4.614000
H           2.921000    -21.293000     -2.606000
H           3.008000    -23.015000     -5.299000
H           2.946000    -21.256000     -5.083000
C           1.205000    -22.409000     -4.455000
H           1.143000    -23.318000     -3.844000
C           0.432000    -22.786000     -5.787000
H           0.695000    -21.634000     -3.869000
H           0.910000    -23.600000     -6.345000
H           0.271000    -21.907000     -6.424000
C          -0.968000    -23.229000     -5.421000
H          -0.863000    -24.240000     -5.008000
C          -1.951000    -23.301000     -6.610000
H          -1.398000    -22.597000     -4.635000
H          -1.363000    -23.637000     -7.473000
H          -2.344000    -22.301000     -6.831000
H          -2.780000    -24.011000     -6.499000
C           3.598000    -28.727000     -2.395000
C           4.796000    -28.366000     -2.937000
N           3.082000    -27.963000     -1.397000
C           5.624000    -27.388000     -2.291000
C           3.749000    -26.853000     -0.973000
C           5.061000    -26.571000     -1.299000
C           5.883000    -25.528000     -0.635000
C           7.275000    -25.527000     -0.649000
C           5.267000    -24.359000     -0.117000
N           8.089000    -24.588000     -0.083000
N           3.907000    -23.993000     -0.108000
C           6.104000    -23.438000      0.503000
C           7.524000    -23.522000      0.569000
S           3.880000    -22.539000      0.673000
N           5.480000    -22.360000      1.032000
C           8.427000    -22.420000      1.040000
S           7.905000    -20.830000      1.694000
C           9.784000    -22.479000      1.145000
C           9.610000    -20.382000      2.124000
S          10.798000    -23.848000      0.901000
C          10.438000    -21.349000      1.608000
C           9.960000    -19.073000      2.643000
C          12.218000    -22.893000      1.322000
C          11.868000    -21.629000      1.681000
N           8.879000    -18.310000      2.728000
S          11.481000    -18.545000      3.168000
C           9.223000    -17.079000      3.181000
C          10.614000    -16.970000      3.381000
C           2.701000    -29.847000     -2.913000
H           5.196000    -28.967000     -3.748000
H           6.704000    -27.378000     -2.407000
H           3.164000    -26.288000     -0.249000
H           7.865000    -26.232000     -1.232000
H          13.222000    -23.274000      1.191000
H          12.513000    -20.824000      2.011000
H           8.428000    -16.399000      3.457000
H          11.149000    -16.129000      3.801000
H           3.064000    -30.837000     -2.611000
C           2.468000    -29.731000     -4.430000
H           1.701000    -29.861000     -2.463000
H           3.372000    -29.339000     -4.913000
H           1.641000    -29.028000     -4.586000
C           2.084000    -31.078000     -4.964000
H           2.905000    -31.792000     -4.823000
C           1.519000    -31.021000     -6.457000
H           1.347000    -31.540000     -4.296000
H           1.430000    -32.042000     -6.849000
H           2.295000    -30.562000     -7.083000
C           0.176000    -30.281000     -6.592000
H          -0.575000    -30.402000     -5.801000
C          -0.457000    -30.506000     -7.978000
H           0.337000    -29.206000     -6.446000
H          -1.209000    -29.760000     -8.262000
H          -1.027000    -31.440000     -8.062000
H           0.326000    -30.424000     -8.743000
$end

--------------------------------------------------------------

             Standard Nuclear Orientation (Angstroms)
    I     Atom           X                Y                Z
 ----------------------------------------------------------------
    1      C       3.0951546263    -1.9962786422    -1.2963725889
    2      C       2.8131447783    -0.6771190096    -1.6411874801
    3      N       2.1364558439    -2.8213845165    -0.9037876414
    4      C       1.4771281228    -0.2488951731    -1.7990476787
    5      C       0.8450641431    -2.4705077506    -0.9576668606
    6      C       0.4716814954    -1.1698326547    -1.4327865229
    7      C      -0.9459159284    -0.7305751004    -1.5674986049
    8      C      -1.3517973266     0.4990594264    -0.9588770302
    9      C      -2.0095164463    -1.4067620472    -2.2695207919
   10      N      -2.6080942897     0.9555928212    -0.9233636536
   11      N      -1.8286618209    -2.5799225624    -2.8285476339
   12      C      -3.2542347266    -0.9289528819    -2.2884892994
   13      C      -3.5676783490     0.2901204074    -1.6073920883
   14      S      -3.3615103402    -3.0295215508    -3.3760311192
   15      N      -4.2320504050    -1.7281090669    -2.9077314903
   16      C      -4.9245762087     0.8745122084    -1.6021555605
   17      S      -5.5948285288     1.5723115882    -0.1109336277
   18      C      -5.8443208023     0.9739946814    -2.5686761863
   19      C      -7.1577063412     2.0251959360    -0.9764801090
   20      S      -5.4364352830     0.7713117645    -4.2225921571
   21      C      -7.0274691491     1.6749289965    -2.2880945130
   22      C      -8.2090158140     2.8758813215    -0.4834316659
   23      C      -7.0496126613     1.4559106592    -4.5773908313
   24      C      -7.6879468709     2.0133275592    -3.4967489681
   25      N      -7.9063514816     3.7789950755     0.4283006683
   26      S      -9.9611237889     2.5092132555    -0.6222162972
   27      C      -9.0419311589     4.4769278196     0.7252900304
   28      C     -10.2262152073     3.9417258611     0.2524854659
   29      C       4.4703116652    -2.5582768933    -1.1369514983
   30      H       3.6400777817    -0.0460967372    -1.9537265971
   31      H       1.2110292084     0.7094001235    -2.2355891915
   32      H       0.1066163428    -3.1981324678    -0.6254468777
   33      H      -0.5517529219     1.1694042306    -0.6488370424
   34      H      -7.4979170165     1.3773476812    -5.5594651990
   35      H      -8.6214863089     2.5638557145    -3.5181000352
   36      H      -8.9423147829     5.4393133912     1.2080545581
   37      H     -11.2911308723     4.1220791295     0.1940960391
   38      H       4.8439170562    -2.0234448368    -0.2549000921
   39      C       5.4590146952    -2.5139163860    -2.3938705346
   40      H       4.3140914525    -3.5999298975    -0.8307174963
   41      H       5.7611251400    -1.5427786350    -2.8053881500
   42      H       4.9055542281    -3.0518453231    -3.1732157534
   43      C       6.7615495308    -3.1982685564    -2.0379996183
   44      H       7.0984993636    -2.6338243697    -1.1597550224
   45      C       7.9301186427    -3.0055196625    -3.0921229956
   46      H       6.6636384541    -4.2351630768    -1.6924794676
   47      H       8.0665859051    -1.9606271302    -3.3954714456
   48      H       7.8009480970    -3.6598902476    -3.9635844736
   49      C       9.2233105176    -3.4842046029    -2.4686484553
   50      H       9.5203202666    -2.7019124840    -1.7590575523
   51      C      10.3834180481    -3.6845584314    -3.4682498065
   52      H       9.0768600447    -4.4076113374    -1.8959423687
   53      H      10.2737806344    -2.8984834876    -4.2255310094
   54      H      10.2839023984    -4.6569064182    -3.9661715152
   55      H      11.3930424650    -3.5808735711    -3.0516324922
   56      C       7.2966908018     2.7452456169     1.7402851899
   57      C       6.2570755350     3.2216812337     0.9976559419
   58      N       7.1042913839     1.6201250595     2.4771991574
   59      C       4.9257707817     2.7275763837     1.2047116131
   60      C       5.9002425239     0.9828142817     2.4477659285
   61      C       4.7485451885     1.5355148889     1.9231143426
   62      C       3.3861792929     0.9813633585     2.1263488077
   63      C       2.2243233200     1.7339297789     1.9793947976
   64      C       3.2033305476    -0.4166617959     2.2889311066
   65      N       0.9439934695     1.2821415037     2.1253942097
   66      N       4.1618136911    -1.4484523976     2.3077783298
   67      C       1.8987348773    -0.8537670402     2.4893784625
   68      C       0.7342838156    -0.0354174916     2.4427979826
   69      S       3.2809948045    -2.8201124376     2.5676106287
   70      N       1.7638847943    -2.1848167907     2.6929049147
   71      C      -0.6753510179    -0.5497674739     2.4375318859
   72      S      -1.1755098519    -2.2695333186     2.5808726699
   73      C      -1.8091191714     0.2054667642     2.4254480250
   74      C      -2.9289290116    -1.8119732165     2.6746223536
   75      S      -1.9321427499     1.9177133656     2.5477990585
   76      C      -3.0219057825    -0.4639583568     2.4273567915
   77      C      -3.9883066030    -2.8031525333     2.6996159668
   78      C      -3.6904770493     1.8125917255     2.4941713410
   79      C      -4.1015162819     0.5171262002     2.4506647658
   80      N      -3.4750563692    -4.0238435575     2.6329629769
   81      S      -5.6506863663    -2.5312836012     2.8740602455
   82      C      -4.4748154349    -4.9399600080     2.6220790555
   83      C      -5.7426323961    -4.3242923118     2.6409321873
   84      C       8.7219879809     3.2881391508     1.7067059961
   85      H       6.4199700095     4.1094800650     0.3941655730
   86      H       4.0466145742     3.3279495280     0.9888587689
   87      H       5.9317563895     0.0443383660     2.9990334062
   88      H       2.2205955512     2.7564898497     1.6060705347
   89      H      -4.3127169461     2.6924973429     2.3997170378
   90      H      -5.1154168344     0.1367178981     2.4350061171
   91      H      -4.2092899707    -5.9827483438     2.7347276886
   92      H      -6.7048257458    -4.8136907724     2.7086012680
   93      H       8.8211516162     4.2177466707     2.2803517339
   94      C       9.2467891494     3.4142919120     0.2652819731
   95      H       9.4511403204     2.6579907799     2.2301044069
   96      H       8.4231783280     3.6936957041    -0.4038725202
   97      H       9.6378779138     2.4340781578    -0.0325511588
   98      C      10.3568541495     4.4213820253     0.2419110623
   99      H       9.9799347740     5.4107015460     0.5298288810
  100      C      11.1819856298     4.4109850290    -1.1257778434
  101      H      11.0275550663     4.2465742617     1.0918754886
  102      H      11.8510426693     5.2803289798    -1.1508731265
  103      H      10.4694127718     4.5996700944    -1.9390249572
  104      C      11.9816276063     3.1178939905    -1.3665314008
  105      H      12.4674809953     2.6309787207    -0.5114390055
  106      C      12.9731088962     3.2751409460    -2.5346701967
  107      H      11.2887435498     2.2996368691    -1.5972454394
  108      H      13.3131639214     2.3296536657    -2.9740929803
  109      H      13.9241638809     3.7445040534    -2.2527044373
  110      H      12.4727604503     3.8050014311    -3.3556070390
 ----------------------------------------------------------------

   10   -5663.4711531473      4.57E-06 Convergence criterion met
 Total energy in the final basis set = -5663.4711531473

                    Orbital Energies (a.u.)
 --------------------------------------------------------------

 Alpha MOs
 -- Occupied --
-88.987 -88.984 -88.938 -88.923 -88.914 -88.913 -88.904 -88.899
-14.393 -14.382 -14.382 -14.379 -14.348 -14.348 -14.344 -14.339
-14.323 -14.321 -10.266 -10.265 -10.263 -10.262 -10.256 -10.252
-10.248 -10.248 -10.239 -10.236 -10.235 -10.235 -10.234 -10.233
-10.232 -10.231 -10.231 -10.228 -10.228 -10.227 -10.224 -10.224
-10.223 -10.222 -10.219 -10.218 -10.218 -10.217 -10.215 -10.213
-10.213 -10.209 -10.205 -10.202 -10.201 -10.198 -10.197 -10.196
-10.184 -10.184 -10.183 -10.181 -10.180 -10.180 -10.179 -10.177
-10.177 -10.173 -10.172 -10.170  -8.042  -8.038  -7.999  -7.985
 -7.971  -7.971  -7.966  -7.959  -6.007  -6.003  -6.002  -6.000
 -5.998  -5.996  -5.962  -5.960  -5.956  -5.949  -5.945  -5.942
 -5.936  -5.935  -5.932  -5.931  -5.930  -5.928  -5.927  -5.927
 -5.924  -5.922  -5.920  -5.916  -1.033  -1.021  -0.974  -0.972
 -0.954  -0.946  -0.942  -0.930  -0.914  -0.907  -0.901  -0.890
 -0.837  -0.834  -0.832  -0.825  -0.814  -0.813  -0.811  -0.809
 -0.803  -0.798  -0.796  -0.790  -0.784  -0.781  -0.764  -0.763
 -0.751  -0.745  -0.743  -0.739  -0.718  -0.714  -0.705  -0.705
 -0.690  -0.687  -0.670  -0.667  -0.657  -0.650  -0.646  -0.640
 -0.636  -0.628  -0.627  -0.622  -0.612  -0.604  -0.603  -0.596
 -0.596  -0.592  -0.583  -0.581  -0.575  -0.574  -0.572  -0.570
 -0.548  -0.544  -0.539  -0.533  -0.525  -0.521  -0.518  -0.514
 -0.507  -0.501  -0.498  -0.490  -0.483  -0.480  -0.476  -0.471
 -0.470  -0.465  -0.465  -0.462  -0.461  -0.458  -0.449  -0.447
 -0.445  -0.443  -0.438  -0.436  -0.434  -0.433  -0.430  -0.429
 -0.426  -0.425  -0.421  -0.421  -0.419  -0.418  -0.412  -0.412
 -0.409  -0.404  -0.403  -0.402  -0.397  -0.396  -0.395  -0.394
 -0.391  -0.389  -0.389  -0.387  -0.385  -0.382  -0.382  -0.378
 -0.375  -0.374  -0.371  -0.369  -0.366  -0.363  -0.362  -0.357
 -0.355  -0.351  -0.348  -0.345  -0.343  -0.342  -0.339  -0.339
 -0.336  -0.335  -0.331  -0.327  -0.323  -0.322  -0.321  -0.319
 -0.315  -0.308  -0.306  -0.305  -0.305  -0.304  -0.301  -0.299
 -0.296  -0.295  -0.293  -0.291  -0.285  -0.284  -0.280  -0.278
 -0.272  -0.270  -0.263  -0.260  -0.250  -0.247  -0.245  -0.242
 -0.240  -0.237  -0.233  -0.227  -0.194  -0.189

          Ground-State Mulliken Net Atomic Charges

     Atom                 Charge (a.u.)
  ----------------------------------------
      1 C                     0.284557
      2 C                    -0.123378
      3 N                    -0.490172
      4 C                    -0.069480
      5 C                     0.106621
      6 C                     0.011841
      7 C                     0.002820
      8 C                     0.075982
      9 C                     0.286258
     10 N                    -0.492721
     11 N                    -0.564208
     12 C                     0.177284
     13 C                     0.240734
     14 S                     0.599360
     15 N                    -0.522217
     16 C                    -0.208530
     17 S                     0.326337
     18 C                    -0.105292
     19 C                    -0.258715
     20 S                     0.252725
     21 C                     0.171035
     22 C                     0.024506
     23 C                    -0.293856
     24 C                    -0.070678
     25 N                    -0.404076
     26 S                     0.260982
     27 C                     0.114393
     28 C                    -0.308032
     29 C                    -0.254234
     30 H                     0.088990
     31 H                     0.108987
     32 H                     0.126265
     33 H                     0.119871
     34 H                     0.124251
     35 H                     0.109907
     36 H                     0.112085
     37 H                     0.145072
     38 H                     0.132048
     39 C                    -0.183270
     40 H                     0.121259
     41 H                     0.091816
     42 H                     0.102106
     43 C                    -0.177002
     44 H                     0.100709
     45 C                    -0.179703
     46 H                     0.095029
     47 H                     0.091569
     48 H                     0.093222
     49 C                    -0.172309
     50 H                     0.092492
     51 C                    -0.325638
     52 H                     0.092983
     53 H                     0.098552
     54 H                     0.103382
     55 H                     0.102080
     56 C                     0.274027
     57 C                    -0.128852
     58 N                    -0.489465
     59 C                    -0.094446
     60 C                     0.065744
     61 C                     0.059177
     62 C                     0.037259
     63 C                     0.047281
     64 C                     0.263668
     65 N                    -0.533366
     66 N                    -0.580222
     67 C                     0.184845
     68 C                     0.299800
     69 S                     0.626892
     70 N                    -0.556131
     71 C                    -0.215045
     72 S                     0.349434
     73 C                    -0.119414
     74 C                    -0.246269
     75 S                     0.290156
     76 C                     0.143162
     77 C                     0.079079
     78 C                    -0.295191
     79 C                    -0.079324
     80 N                    -0.425562
     81 S                     0.297434
     82 C                     0.132053
     83 C                    -0.323946
     84 C                    -0.232946
     85 H                     0.084880
     86 H                     0.100425
     87 H                     0.124894
     88 H                     0.110466
     89 H                     0.148542
     90 H                     0.105996
     91 H                     0.124805
     92 H                     0.124164
     93 H                     0.107247
     94 C                    -0.173227
     95 H                     0.124912
     96 H                     0.094361
     97 H                     0.110747
     98 C                    -0.190286
     99 H                     0.087416
    100 C                    -0.180473
    101 H                     0.093444
    102 H                     0.092151
    103 H                     0.094129
    104 C                    -0.172459
    105 H                     0.095011
    106 C                    -0.325017
    107 H                     0.096502
    108 H                     0.097693
    109 H                     0.106004
    110 H                     0.103244
  ----------------------------------------
  Sum of atomic charges =     0.000000

                    Cartesian Multipole Moments
 -----------------------------------------------------------------
    Charge (ESU x 10^10)
                 0.0000
    Dipole Moment (Debye)
         X      -3.8851      Y       0.9672      Z      -2.6151
       Tot       4.7821
    Quadrupole Moments (Debye-Ang)
        XX    -385.1135     XY       9.5960     YY    -427.1194
        XZ      -7.9211     YZ      -5.3041     ZZ    -445.6063

 Total job time:  106.96s(wall), 1164.78s(cpu)
        *  Thank you very much for using Q-Chem.  Have a nice day.  *
