 Q-Chem 4.4, Q-Chem, Inc., Pleasanton, CA (2016)
 Q-Chem 4.4.2 for Intel X86 Linux

User input:
--------------------------------------------------------------
$comment
SP
$end

$rem
MEM_STATIC 5000
MEM_TOTAL 20000
JOBTYPE SP
EXCHANGE B3LYP
BASIS 6-31g(d,p)
$end

$molecule
0 1
C           2.875000    -31.196000      0.969000
C           2.037000    -30.609000      1.979000
N           4.020000    -30.645000      0.580000
C           2.375000    -29.378000      2.513000
C           4.323000    -29.439000      1.054000
C           3.558000    -28.740000      2.006000
C           3.881000    -27.328000      2.493000
C           2.882000    -26.329000      2.681000
C           5.196000    -26.868000      2.760000
N           3.098000    -25.102000      3.131000
N           6.280000    -27.603000      2.607000
C           5.432000    -25.572000      3.209000
C           4.380000    -24.697000      3.445000
S           7.518000    -26.626000      3.033000
N           6.686000    -25.378000      3.560000
C           4.608000    -23.309000      3.999000
S           6.197000    -22.524000      4.381000
C           3.543000    -22.401000      4.252000
C           5.378000    -21.172000      5.112000
S           1.809000    -22.474000      4.066000
C           4.029000    -21.235000      4.864000
C           6.103000    -20.124000      5.766000
C           1.762000    -20.856000      4.870000
C           2.993000    -20.349000      5.249000
N           7.361000    -19.999000      5.608000
S           5.372000    -18.896000      6.692000
C           7.862000    -18.881000      6.204000
C           6.912000    -18.093000      6.746000
C           2.453000    -32.440000      0.268000
H           1.083000    -31.034000      2.276000
H           1.798000    -28.921000      3.312000
H           5.235000    -29.020000      0.632000
H           1.856000    -26.603000      2.442000
H           0.810000    -20.355000      4.985000
H           3.020000    -19.377000      5.728000
H           8.910000    -18.714000      5.993000
H           7.027000    -17.041000      6.968000
H           1.359000    -32.485000      0.196000
C           3.139000    -33.723000      0.723000
H           2.741000    -32.281000     -0.779000
H           2.833000    -33.775000      1.776000
H           4.235000    -33.760000      0.716000
C           2.594000    -34.955000      0.018000
H           1.501000    -34.930000      0.113000
C           3.076000    -36.239000      0.661000
H           2.711000    -34.894000     -1.071000
H           2.831000    -36.275000      1.730000
H           4.165000    -36.141000      0.750000
C           2.677000    -37.503000     -0.118000
H           1.631000    -37.450000     -0.443000
C           2.917000    -38.794000      0.674000
H           3.313000    -37.502000     -1.012000
H           3.895000    -38.857000      1.167000
H           2.821000    -39.697000      0.058000
H           2.239000    -38.919000      1.527000
C           3.598000    -28.727000     -2.395000
C           4.796000    -28.366000     -2.937000
N           3.082000    -27.963000     -1.397000
C           5.624000    -27.388000     -2.291000
C           3.749000    -26.853000     -0.973000
C           5.061000    -26.571000     -1.299000
C           5.883000    -25.528000     -0.635000
C           7.275000    -25.527000     -0.649000
C           5.267000    -24.359000     -0.117000
N           8.089000    -24.588000     -0.083000
N           3.907000    -23.993000     -0.108000
C           6.104000    -23.438000      0.503000
C           7.524000    -23.522000      0.569000
S           3.880000    -22.539000      0.673000
N           5.480000    -22.360000      1.032000
C           8.427000    -22.420000      1.040000
S           7.905000    -20.830000      1.694000
C           9.784000    -22.479000      1.145000
C           9.610000    -20.382000      2.124000
S          10.798000    -23.848000      0.901000
C          10.438000    -21.349000      1.608000
C           9.960000    -19.073000      2.643000
C          12.218000    -22.893000      1.322000
C          11.868000    -21.629000      1.681000
N           8.879000    -18.310000      2.728000
S          11.481000    -18.545000      3.168000
C           9.223000    -17.079000      3.181000
C          10.614000    -16.970000      3.381000
C           2.701000    -29.847000     -2.913000
H           5.196000    -28.967000     -3.748000
H           6.704000    -27.378000     -2.407000
H           3.164000    -26.288000     -0.249000
H           7.865000    -26.232000     -1.232000
H          13.222000    -23.274000      1.191000
H          12.513000    -20.824000      2.011000
H           8.428000    -16.399000      3.457000
H          11.149000    -16.129000      3.801000
H           3.064000    -30.837000     -2.611000
C           2.468000    -29.731000     -4.430000
H           1.701000    -29.861000     -2.463000
H           3.372000    -29.339000     -4.913000
H           1.641000    -29.028000     -4.586000
C           2.084000    -31.078000     -4.964000
H           2.905000    -31.792000     -4.823000
C           1.519000    -31.021000     -6.457000
H           1.347000    -31.540000     -4.296000
H           1.430000    -32.042000     -6.849000
H           2.295000    -30.562000     -7.083000
C           0.176000    -30.281000     -6.592000
H          -0.575000    -30.402000     -5.801000
C          -0.457000    -30.506000     -7.978000
H           0.337000    -29.206000     -6.446000
H          -1.209000    -29.760000     -8.262000
H          -1.027000    -31.440000     -8.062000
H           0.326000    -30.424000     -8.743000
$end

--------------------------------------------------------------

             Standard Nuclear Orientation (Angstroms)
    I     Atom           X                Y                Z
 ----------------------------------------------------------------
    1      C       6.1828346317     1.6594190228    -1.1876932620
    2      C       5.6211732588     2.9316730925    -0.8232497351
    3      N       5.4318489800     0.6010574132    -1.4737671236
    4      C       4.2510283474     3.0528112082    -0.6722878897
    5      C       4.1186992957     0.6994830895    -1.2817481328
    6      C       3.4566821817     1.8736924437    -0.8778970052
    7      C       1.9568662215     1.9564193025    -0.5969159519
    8      C       1.4178268801     2.6684529025     0.5138453820
    9      C       0.9710625936     1.3037921491    -1.3807418291
   10      N       0.1287919596     2.8018795082     0.7882015642
   11      N       1.2415631090     0.5483586670    -2.4270877210
   12      C      -0.3834917895     1.4194278593    -1.0828764135
   13      C      -0.8157950928     2.2099196411    -0.0263435949
   14      S      -0.2124540904     0.0342983402    -2.9658130350
   15      N      -1.1530430445     0.8871920267    -2.0090885298
   16      C      -2.2847772337     2.4059223248     0.2721834852
   17      S      -3.6921951562     1.6486050107    -0.5838044102
   18      C      -2.7465035047     3.2156574279     1.3463510296
   19      C      -4.8026561152     2.6443942472     0.3152541279
   20      S      -1.9605322831     4.1706266357     2.5780019749
   21      C      -4.1469461254     3.3078604717     1.3227912132
   22      C      -6.2093057293     2.6257866497     0.0457441641
   23      C      -3.6146860867     4.7187830284     3.0574274258
   24      C      -4.6508384831     4.2027581357     2.2983770181
   25      N      -6.7298506855     1.7018799086    -0.6603594277
   26      S      -7.3217082996     3.7247217332     0.7200758360
   27      C      -8.0893166499     1.7753069317    -0.7113669160
   28      C      -8.6020385384     2.7435746071     0.0739877642
   29      C       7.6587031348     1.4629923084    -1.2034953905
   30      H       6.2282930504     3.7903536316    -0.5530215159
   31      H       3.7805250797     4.0055251166    -0.4461421762
   32      H       3.5796858326    -0.2289602947    -1.4629838049
   33      H       2.1267563633     3.1485189129     1.1860273614
   34      H      -3.7227324473     5.3764611397     3.9096688740
   35      H      -5.6638818639     4.4941163753     2.5509784532
   36      H      -8.5461662807     0.9402516113    -1.2258424029
   37      H      -9.6189047627     2.7756016316     0.4402804773
   38      H       8.1365670028     2.1004887140    -0.4489826627
   39      C       8.3132268626     1.4637089881    -2.5801973104
   40      H       7.8108820565     0.4616222389    -0.7809630725
   41      H       8.0750815430     2.4742556572    -2.9368921889
   42      H       7.9337810297     0.7690966118    -3.3392549543
   43      C       9.8268490786     1.3410357453    -2.5042166379
   44      H      10.1820894386     2.1025592626    -1.7983942670
   45      C      10.4881862825     1.6158934220    -3.8389508288
   46      H      10.1422593927     0.4213371821    -1.9962777768
   47      H      10.2074618241     2.5993009941    -4.2366760173
   48      H       9.9609680001     0.9913176706    -4.5706556965
   49      C      12.0017410594     1.3459213813    -3.8411945743
   50      H      12.4741361503     1.7512713110    -2.9383743748
   51      C      12.7040220321     1.8891261443    -5.0915045441
   52      H      12.0985239538     0.2533351902    -3.8162649465
   53      H      12.2023070242     1.6572135781    -6.0391334865
   54      H      13.7364578998     1.5309830746    -5.1909566471
   55      H      12.7434262267     2.9844173031    -5.1327669597
   56      C       5.0920990101    -1.5551095328     1.3445563247
   57      C       4.5395687069    -2.7530982053     0.9998500661
   58      N       4.2638292734    -0.5065923392     1.5905988779
   59      C       3.1562899554    -2.8384207638     0.6275008259
   60      C       2.9134532335    -0.6703844945     1.5104634873
   61      C       2.3031901210    -1.7682645623     0.9365451218
   62      C       0.8604081525    -1.8400271863     0.5935300825
   63      C       0.3398256069    -2.7292451661    -0.3424967321
   64      C      -0.0914414155    -1.1253491755     1.3665493196
   65      N      -0.9749881104    -2.8651019314    -0.6852514959
   66      N       0.1085859692    -0.2835810310     2.4778784501
   67      C      -1.4200938756    -1.2328199218     0.9711473990
   68      C      -1.9095545711    -2.0724337453    -0.0696642338
   69      S      -1.4057326933     0.2446260189     2.8685730889
   70      N      -2.2961198228    -0.4987888211     1.6957699787
   71      C      -3.3599211536    -2.3482890952    -0.3379823329
   72      S      -4.7546098571    -1.6146064961     0.5250664862
   73      C      -3.8614862305    -3.1195906720    -1.3427118244
   74      C      -5.9388987390    -2.3865253732    -0.6125758528
   75      S      -2.9940524922    -3.8608030165    -2.6311434176
   76      C      -5.2385966892    -3.2463010854    -1.4233111758
   77      C      -7.3738716960    -2.2895283589    -0.4207785850
   78      C      -4.4962217170    -4.4921660338    -3.3023619816
   79      C      -5.5687138285    -4.0743195521    -2.5783164109
   80      N      -7.6435115741    -1.5903482997     0.6730205651
   81      S      -8.5922824955    -2.8769939194    -1.4397041656
   82      C      -8.9853397978    -1.5356230945     0.8611911530
   83      C      -9.6776720412    -2.2656349772    -0.1259870051
   84      C       6.5731690205    -1.3182318991     1.6232202998
   85      H       5.2031429519    -3.5942274881     0.8235186989
   86      H       2.7842812589    -3.6102090099    -0.0402629293
   87      H       2.3829458671     0.2225054271     1.8374734599
   88      H       0.9336143048    -3.5073490649    -0.8189243813
   89      H      -4.5032322828    -5.2026748506    -4.1181230209
   90      H      -6.6173648522    -4.2774676945    -2.7572350030
   91      H      -9.3647649220    -0.8639380537     1.6197930124
   92      H     -10.7492570398    -2.3320839403    -0.2571210058
   93      H       7.1594894743    -1.2506785628     0.6986999527
   94      C       7.1356572216    -2.3515097320     2.6156808501
   95      H       6.7922927098    -0.3384276658     2.0644282702
   96      H       6.6455242999    -3.3203478189     2.4566478957
   97      H       6.9119421956    -1.9951099141     3.6283035621
   98      C       8.6212536545    -2.4362287721     2.4344436500
   99      H       8.8621973600    -2.7997391423     1.4277041894
  100      C       9.3497985458    -3.2377031012     3.6084897484
  101      H       9.0377557092    -1.4252662539     2.3488993615
  102      H      10.3948211482    -3.4195510385     3.3276248554
  103      H       8.9052677800    -4.2406095163     3.6446023612
  104      C       9.2814847098    -2.5418372443     4.9798314013
  105      H       9.3684462771    -1.4486759283     5.0217721111
  106      C      10.2337703051    -3.1997005514     5.9960390641
  107      H       8.2565095020    -2.5990626421     5.3658535214
  108      H       9.9937256768    -2.9923314799     7.0458260161
  109      H      11.2703575673    -2.8454532519     5.9304060045
  110      H      10.1579060016    -4.2904650123     5.8984916477
 ----------------------------------------------------------------

   10   -5663.5117856345      3.35E-06 Convergence criterion met
 Total energy in the final basis set = -5663.5117856345

                    Orbital Energies (a.u.)
 --------------------------------------------------------------

 Alpha MOs
 -- Occupied --
-88.981 -88.980 -88.940 -88.920 -88.919 -88.915 -88.913 -88.903
-14.379 -14.379 -14.374 -14.368 -14.347 -14.346 -14.340 -14.328
-14.318 -14.317 -10.267 -10.262 -10.257 -10.256 -10.253 -10.247
-10.242 -10.241 -10.240 -10.237 -10.237 -10.237 -10.236 -10.235
-10.232 -10.230 -10.230 -10.226 -10.223 -10.223 -10.223 -10.222
-10.222 -10.220 -10.219 -10.218 -10.214 -10.212 -10.209 -10.209
-10.206 -10.206 -10.204 -10.203 -10.202 -10.202 -10.193 -10.192
-10.181 -10.179 -10.179 -10.179 -10.177 -10.176 -10.176 -10.176
-10.172 -10.172 -10.171 -10.170  -8.036  -8.036  -8.001  -7.983
 -7.976  -7.973  -7.970  -7.963  -6.001  -6.001  -5.996  -5.995
 -5.994  -5.994  -5.965  -5.962  -5.958  -5.946  -5.943  -5.941
 -5.939  -5.938  -5.937  -5.934  -5.934  -5.933  -5.931  -5.929
 -5.928  -5.926  -5.924  -5.919  -1.048  -1.019  -0.984  -0.976
 -0.949  -0.945  -0.936  -0.926  -0.910  -0.908  -0.904  -0.887
 -0.838  -0.836  -0.830  -0.820  -0.815  -0.809  -0.807  -0.805
 -0.804  -0.797  -0.790  -0.789  -0.781  -0.777  -0.764  -0.762
 -0.749  -0.749  -0.740  -0.740  -0.719  -0.717  -0.709  -0.702
 -0.692  -0.690  -0.672  -0.666  -0.650  -0.647  -0.644  -0.637
 -0.629  -0.627  -0.619  -0.616  -0.612  -0.608  -0.604  -0.601
 -0.595  -0.590  -0.584  -0.578  -0.577  -0.573  -0.573  -0.568
 -0.540  -0.540  -0.536  -0.533  -0.521  -0.521  -0.517  -0.515
 -0.505  -0.499  -0.498  -0.489  -0.483  -0.480  -0.477  -0.472
 -0.468  -0.464  -0.463  -0.461  -0.456  -0.454  -0.449  -0.445
 -0.441  -0.439  -0.438  -0.436  -0.434  -0.433  -0.432  -0.430
 -0.428  -0.427  -0.422  -0.418  -0.415  -0.413  -0.412  -0.411
 -0.410  -0.406  -0.400  -0.399  -0.398  -0.397  -0.393  -0.393
 -0.392  -0.389  -0.388  -0.384  -0.383  -0.381  -0.378  -0.377
 -0.376  -0.374  -0.370  -0.367  -0.364  -0.362  -0.356  -0.354
 -0.351  -0.350  -0.347  -0.346  -0.344  -0.341  -0.338  -0.338
 -0.335  -0.332  -0.330  -0.330  -0.325  -0.322  -0.318  -0.316
 -0.308  -0.305  -0.304  -0.303  -0.302  -0.301  -0.299  -0.298
 -0.297  -0.292  -0.287  -0.284  -0.283  -0.280  -0.273  -0.272
 -0.270  -0.268  -0.264  -0.257  -0.255  -0.250  -0.245  -0.243
 -0.239  -0.233  -0.232  -0.226  -0.191  -0.190

          Ground-State Mulliken Net Atomic Charges

     Atom                 Charge (a.u.)
  ----------------------------------------
      1 C                     0.275714
      2 C                    -0.120277
      3 N                    -0.483966
      4 C                    -0.073030
      5 C                     0.107855
      6 C                     0.039299
      7 C                     0.017984
      8 C                     0.066583
      9 C                     0.233525
     10 N                    -0.529313
     11 N                    -0.561858
     12 C                     0.207307
     13 C                     0.284253
     14 S                     0.607997
     15 N                    -0.548674
     16 C                    -0.237807
     17 S                     0.386367
     18 C                    -0.115529
     19 C                    -0.208116
     20 S                     0.280940
     21 C                     0.121709
     22 C                     0.085810
     23 C                    -0.316307
     24 C                    -0.072572
     25 N                    -0.422268
     26 S                     0.251175
     27 C                     0.122706
     28 C                    -0.320185
     29 C                    -0.237901
     30 H                     0.086409
     31 H                     0.101831
     32 H                     0.112158
     33 H                     0.111969
     34 H                     0.123304
     35 H                     0.126401
     36 H                     0.116698
     37 H                     0.129890
     38 H                     0.096452
     39 C                    -0.169964
     40 H                     0.114251
     41 H                     0.092235
     42 H                     0.111233
     43 C                    -0.174402
     44 H                     0.086781
     45 C                    -0.173324
     46 H                     0.089923
     47 H                     0.089861
     48 H                     0.088598
     49 C                    -0.169511
     50 H                     0.094986
     51 C                    -0.325750
     52 H                     0.098722
     53 H                     0.101675
     54 H                     0.097880
     55 H                     0.101932
     56 C                     0.288193
     57 C                    -0.124196
     58 N                    -0.488877
     59 C                    -0.095006
     60 C                     0.057988
     61 C                     0.062797
     62 C                     0.033817
     63 C                     0.041355
     64 C                     0.253887
     65 N                    -0.533560
     66 N                    -0.567484
     67 C                     0.177480
     68 C                     0.300239
     69 S                     0.633275
     70 N                    -0.562137
     71 C                    -0.212044
     72 S                     0.380450
     73 C                    -0.124986
     74 C                    -0.238156
     75 S                     0.281436
     76 C                     0.140167
     77 C                     0.081571
     78 C                    -0.308225
     79 C                    -0.071926
     80 N                    -0.420063
     81 S                     0.287478
     82 C                     0.131334
     83 C                    -0.327751
     84 C                    -0.241230
     85 H                     0.085850
     86 H                     0.100774
     87 H                     0.127221
     88 H                     0.112929
     89 H                     0.131544
     90 H                     0.093720
     91 H                     0.122693
     92 H                     0.122320
     93 H                     0.120788
     94 C                    -0.174641
     95 H                     0.120091
     96 H                     0.095030
     97 H                     0.110164
     98 C                    -0.189986
     99 H                     0.087792
    100 C                    -0.179896
    101 H                     0.090783
    102 H                     0.090766
    103 H                     0.094657
    104 C                    -0.172682
    105 H                     0.093603
    106 C                    -0.324552
    107 H                     0.098187
    108 H                     0.097154
    109 H                     0.104845
    110 H                     0.103358
  ----------------------------------------
  Sum of atomic charges =     0.000000

                    Cartesian Multipole Moments
 -----------------------------------------------------------------
    Charge (ESU x 10^10)
                 0.0000
    Dipole Moment (Debye)
         X      -3.6744      Y       0.0513      Z       0.1831
       Tot       3.6793
    Quadrupole Moments (Debye-Ang)
        XX    -369.6374     XY       2.0661     YY    -428.7705
        XZ       1.6779     YZ      17.5203     ZZ    -440.4241

 Total job time:  114.96s(wall), 1239.82s(cpu)
        *  Thank you very much for using Q-Chem.  Have a nice day.  *
