 Q-Chem 4.4, Q-Chem, Inc., Pleasanton, CA (2016)
 Q-Chem 4.4.2 for Intel X86 Linux

User input:
--------------------------------------------------------------
$comment
SP
$end

$rem
MEM_STATIC 5000
MEM_TOTAL 20000
JOBTYPE SP
EXCHANGE B3LYP
BASIS 6-31g(d,p)
$end

$molecule
0 1
C         -26.215000     20.083000     -4.914000
C         -24.851000     19.870000     -4.509000
N         -27.111000     19.154000     -5.179000
C         -24.432000     18.562000     -4.473000
C         -26.723000     17.883000     -5.148000
C         -25.382000     17.461000     -4.856000
C         -24.969000     15.987000     -4.766000
C         -24.010000     15.481000     -3.816000
C         -25.535000     14.929000     -5.522000
N         -23.745000     14.167000     -3.625000
N         -26.470000     15.201000     -6.431000
C         -25.133000     13.571000     -5.469000
C         -24.286000     13.233000     -4.406000
S         -26.658000     13.791000     -7.157000
N         -25.789000     12.761000     -6.313000
C         -23.684000     11.856000     -4.046000
S         -23.052000     11.476000     -2.414000
C         -23.490000     10.735000     -4.818000
C         -22.799000      9.795000     -2.857000
S         -23.610000     10.679000     -6.545000
C         -22.997000      9.626000     -4.188000
C         -22.179000      8.857000     -1.925000
C         -23.131000      8.963000     -6.440000
C         -22.858000      8.559000     -5.149000
N         -22.120000      7.544000     -2.184000
S         -21.476000      9.473000     -0.453000
C         -21.417000      6.912000     -1.161000
C         -21.041000      7.802000     -0.119000
C         -26.649000     21.578000     -5.002000
H         -24.159000     20.609000     -4.118000
H         -23.444000     18.324000     -4.089000
H         -27.509000     17.133000     -5.219000
H         -23.358000     16.146000     -3.251000
H         -23.235000      8.271000     -7.266000
H         -22.620000      7.533000     -4.892000
H         -21.353000      5.832000     -1.188000
H         -20.438000      7.580000      0.751000
H         -26.114000     21.916000     -5.898000
C         -26.331000     22.395000     -3.698000
H         -27.740000     21.535000     -5.106000
H         -25.248000     22.409000     -3.523000
H         -26.821000     21.996000     -2.802000
C         -26.723000     23.905000     -3.747000
H         -26.049000     24.435000     -4.430000
C         -26.677000     24.733000     -2.496000
H         -27.667000     23.904000     -4.305000
H         -26.531000     25.782000     -2.779000
H         -25.882000     24.405000     -1.814000
C         -27.917000     24.470000     -1.632000
H         -28.796000     24.735000     -2.232000
C         -28.024000     25.137000     -0.255000
H         -27.892000     23.408000     -1.358000
H         -27.166000     24.819000      0.350000
H         -28.960000     24.979000      0.296000
H         -27.898000     26.226000     -0.260000
C         -24.248000     19.644000     -8.901000
C         -23.033000     20.088000     -8.475000
N         -24.681000     18.393000     -8.604000
C         -22.215000     19.345000     -7.557000
C         -23.925000     17.597000     -7.779000
C         -22.704000     18.052000     -7.166000
C         -21.790000     17.166000     -6.219000
C         -21.685000     15.808000     -6.477000
C         -21.008000     17.661000     -5.173000
N         -20.869000     15.036000     -5.723000
N         -20.969000     18.941000     -4.809000
C         -20.197000     16.834000     -4.346000
C         -20.196000     15.479000     -4.691000
S         -19.922000     19.064000     -3.539000
N         -19.511000     17.517000     -3.383000
C         -19.448000     14.484000     -3.932000
S         -18.830000     12.939000     -4.584000
C         -19.649000     14.463000     -2.559000
C         -18.816000     12.273000     -2.946000
S         -20.403000     15.485000     -1.444000
C         -19.300000     13.211000     -2.070000
C         -18.702000     10.903000     -2.571000
C         -20.199000     14.292000     -0.146000
C         -19.628000     13.120000     -0.690000
N         -19.283000     10.097000     -3.413000
S         -17.596000     10.149000     -1.516000
C         -19.022000      8.793000     -3.083000
C         -18.154000      8.623000     -2.065000
C         -25.103000     20.440000     -9.838000
H         -22.700000     21.072000     -8.791000
H         -21.260000     19.672000     -7.158000
H         -24.216000     16.576000     -7.536000
H         -22.375000     15.269000     -7.123000
H         -20.639000     14.383000      0.839000
H         -19.691000     12.193000     -0.132000
H         -19.495000      8.015000     -3.668000
H         -17.777000      7.723000     -1.598000
H         -24.432000     21.242000    -10.169000
C         -26.448000     20.943000     -9.339000
H         -25.311000     19.808000    -10.711000
H         -26.214000     21.684000     -8.565000
H         -27.030000     20.113000     -8.921000
C         -27.304000     21.580000    -10.418000
H         -26.709000     22.374000    -10.885000
C         -28.564000     22.254000     -9.791000
H         -27.654000     20.939000    -11.237000
H         -28.402000     22.888000     -8.911000
H         -29.216000     21.421000     -9.501000
C         -29.259000     23.091000    -10.801000
H         -28.507000     23.665000    -11.358000
C         -30.432000     23.952000    -10.251000
H         -29.703000     22.386000    -11.514000
H         -30.973000     23.331000     -9.527000
H         -31.189000     24.194000    -11.007000
H         -30.024000     24.774000     -9.650000
$end

--------------------------------------------------------------

             Standard Nuclear Orientation (Angstroms)
    I     Atom           X                Y                Z
 ----------------------------------------------------------------
    1      C       5.3196558996     0.5514251843    -1.3054049185
    2      C       4.4116456784     1.4121142731    -0.5950375975
    3      N       5.0124488256    -0.5571188686    -1.9479279891
    4      C       3.1085990746     0.9824902679    -0.5228312091
    5      C       3.7559805492    -0.9870032952    -1.8893374590
    6      C       2.7148414778    -0.3231714953    -1.1565443263
    7      C       1.2583012530    -0.8025535107    -1.1512098209
    8      C       0.1231717335     0.0860673675    -1.1440747799
    9      C       0.8391702275    -2.1537554835    -1.2503985903
   10      N      -1.1617874168    -0.3157909728    -1.2879214217
   11      N       1.7537694060    -3.1207255790    -1.3048703912
   12      C      -0.5035435432    -2.6054957970    -1.2100573048
   13      C      -1.4799306134    -1.6087882725    -1.3319769486
   14      S       0.8595944894    -4.4399308195    -1.2015807401
   15      N      -0.6470272131    -3.9372596722    -1.2778025419
   16      C      -3.0182725600    -1.7551164830    -1.3469806188
   17      S      -4.1015275358    -0.4904200407    -2.0060326399
   18      C      -3.8252020195    -2.7672507051    -0.8836123377
   19      C      -5.5048241531    -1.5279739266    -1.8053848447
   20      S      -3.3110346289    -4.0626125023     0.1448499654
   21      C      -5.1678037371    -2.6434184967    -1.1114636315
   22      C      -6.8484235234    -1.0422670210    -2.1082008514
   23      C      -5.0059679895    -4.6214510759     0.1495777266
   24      C      -5.8489581976    -3.7877805417    -0.5566707775
   25      N      -7.9082306840    -1.8616161040    -2.1108205083
   26      S      -7.0745745663     0.6531559628    -2.4470896411
   27      C      -9.0570378601    -1.1148836785    -2.3614093286
   28      C      -8.7791870215     0.2550635803    -2.6169155311
   29      C       6.8027297818     1.0323261528    -1.3241430728
   30      H       4.6122869251     2.4093890297    -0.2168152422
   31      H       2.3534823064     1.6266492200    -0.0811277896
   32      H       3.4938893285    -1.8136037096    -2.5476511738
   33      H       0.2279548905     1.1471265682    -0.9210773302
   34      H      -5.3014323535    -5.6029269558     0.4979480852
   35      H      -6.8978809588    -4.0105706432    -0.7163410996
   36      H      -9.9903971144    -1.6510832691    -2.4734606626
   37      H      -9.4918561560     1.0532236209    -2.7745107542
   38      H       7.1130802730     0.8474720912    -0.2883841488
   39      C       6.9677211857     2.5189900923    -1.8054300637
   40      H       7.2839958122     0.3889870636    -2.0707646800
   41      H       6.4446360650     3.1931505384    -1.1157927319
   42      H       6.5857304513     2.6954421111    -2.8178848844
   43      C       8.4332529619     3.0558965200    -1.8160649445
   44      H       8.7811722999     3.1874622837    -0.7848968767
   45      C       8.7445484081     4.3743073553    -2.4622762215
   46      H       9.0179193225     2.1907030530    -2.1508880492
   47      H       9.6491394315     4.7837993715    -1.9976932159
   48      H       7.9118807804     5.0837742011    -2.3725298210
   49      C       8.8217032224     4.2203327104    -3.9866134360
   50      H       9.6145085958     3.4938417640    -4.2023367418
   51      C       9.0281751181     5.4678846147    -4.8546287597
   52      H       7.8324387582     3.8839562986    -4.3209063159
   53      H       8.1984821117     6.1603373120    -4.6663954546
   54      H       9.1504192042     5.3015914012    -5.9326194603
   55      H       9.8937365688     6.0818834017    -4.5796180969
   56      C       5.2431985834    -1.4678612370     2.6788912085
   57      C       4.9507697643    -0.3331545608     3.3729828053
   58      N       4.2918914403    -2.1147244255     1.9596682008
   59      C       3.6876999790     0.3415922228     3.2577938501
   60      C       3.0390589899    -1.5631041008     1.8505679328
   61      C       2.6982497051    -0.2891415982     2.4289307718
   62      C       1.2629443428     0.3813937171     2.3424327486
   63      C       0.1442783710    -0.4370145697     2.3658276115
   64      C       1.0245588113     1.7573791005     2.3200371449
   65      N      -1.0941732272     0.1073977463     2.3513753001
   66      N       1.9818486266     2.6825880758     2.3212867335
   67      C      -0.2796124349     2.3222896372     2.2452544862
   68      C      -1.3237302796     1.3923135715     2.2489210084
   69      S       1.2449024358     4.1590823663     2.2879262473
   70      N      -0.2918500432     3.6876585199     2.2367659581
   71      C      -2.7217594524     1.7925450797     2.1443305123
   72      S      -4.1115856017     0.8617866488     2.7737151467
   73      C      -3.0535931528     2.6399463611     1.0965860474
   74      C      -5.1624366645     1.6742793545     1.6065118025
   75      S      -2.1812279392     3.5596352340    -0.0211689844
   76      C      -4.4112966597     2.5200761387     0.8306944960
   77      C      -6.4814327740     1.2965142903     1.2217211849
   78      C      -3.6622760969     3.9620242815    -0.9123751383
   79      C      -4.7476552121     3.2728653721    -0.3270776294
   80      N      -6.6556039361     0.0059100638     1.2088317691
   81      S      -7.9226541215     2.2062461015     1.2285078735
   82      C      -7.9712074646    -0.2957649698     0.9730001983
   83      C      -8.8017536060     0.7655511540     0.9235108820
   84      C       6.5731645433    -2.1475259924     2.7877781493
   85      H       5.7266573208     0.1142759137     3.9868276311
   86      H       3.4203960988     1.2671164826     3.7579023184
   87      H       2.2346232577    -2.0592326363     1.3093557478
   88      H       0.1867663963    -1.5096645451     2.1881937240
   89      H      -3.6786530392     4.4751284363    -1.8655602841
   90      H      -5.6670724170     3.1593198446    -0.8896088877
   91      H      -8.2455121475    -1.3382515667     0.8769968850
   92      H      -9.8680031867     0.8235025982     0.7503882036
   93      H       7.0487695833    -1.6331572639     3.6317157400
   94      C       7.4519036483    -2.2195524118     1.5493659480
   95      H       6.3886558429    -3.1836221241     3.0996729157
   96      H       7.7460410436    -1.1840782946     1.3391528531
   97      H       6.8873184048    -2.6426194078     0.7099579305
   98      C       8.6897052511    -3.0798263592     1.7240712073
   99      H       9.2324743261    -2.7027697147     2.5991597845
  100      C       9.6373703659    -2.9326638879     0.4931044989
  101      H       8.5450969070    -4.1542068477     1.8941799745
  102      H       9.8420447960    -1.9137991199     0.1429288828
  103      H       9.1391435089    -3.4818917718    -0.3151106523
  104      C      10.9520327778    -3.5619810230     0.7747366814
  105      H      11.2652607392    -3.2807655508     1.7886573402
  106      C      12.0415454294    -3.3296980187    -0.3109689821
  107      H      10.7641224056    -4.6421580143     0.7956498222
  108      H      11.5452908218    -3.4120209568    -1.2853674110
  109      H      12.8063336430    -4.1155060702    -0.3384224821
  110      H      12.3773454850    -2.2863421643    -0.2662936681
 ----------------------------------------------------------------

   11   -5663.4608843306      7.62E-06 Convergence criterion met
 Total energy in the final basis set = -5663.4608843306

                    Orbital Energies (a.u.)
 --------------------------------------------------------------

 Alpha MOs
 -- Occupied --
-88.995 -88.986 -88.925 -88.924 -88.923 -88.913 -88.909 -88.898
-14.393 -14.389 -14.383 -14.382 -14.346 -14.342 -14.340 -14.333
-14.328 -14.327 -10.265 -10.262 -10.258 -10.258 -10.257 -10.256
-10.256 -10.255 -10.240 -10.239 -10.236 -10.234 -10.232 -10.231
-10.231 -10.230 -10.229 -10.229 -10.229 -10.229 -10.228 -10.225
-10.224 -10.224 -10.222 -10.222 -10.221 -10.219 -10.219 -10.216
-10.213 -10.213 -10.200 -10.200 -10.197 -10.196 -10.195 -10.192
-10.187 -10.186 -10.179 -10.179 -10.177 -10.176 -10.175 -10.175
-10.171 -10.171 -10.170 -10.169  -8.051  -8.043  -7.987  -7.986
 -7.981  -7.972  -7.970  -7.959  -6.016  -6.010  -6.008  -6.008
 -6.002  -6.001  -5.950  -5.950  -5.947  -5.947  -5.945  -5.944
 -5.943  -5.942  -5.937  -5.937  -5.935  -5.933  -5.931  -5.929
 -5.926  -5.924  -5.920  -5.915  -1.061  -1.043  -0.979  -0.964
 -0.956  -0.954  -0.942  -0.926  -0.926  -0.916  -0.908  -0.907
 -0.843  -0.836  -0.824  -0.821  -0.814  -0.810  -0.808  -0.808
 -0.802  -0.800  -0.790  -0.789  -0.785  -0.779  -0.770  -0.761
 -0.750  -0.743  -0.742  -0.735  -0.725  -0.717  -0.708  -0.706
 -0.693  -0.687  -0.676  -0.669  -0.656  -0.654  -0.651  -0.644
 -0.639  -0.631  -0.626  -0.618  -0.605  -0.604  -0.596  -0.596
 -0.591  -0.587  -0.583  -0.576  -0.575  -0.570  -0.567  -0.561
 -0.547  -0.545  -0.542  -0.539  -0.527  -0.523  -0.520  -0.508
 -0.506  -0.502  -0.498  -0.496  -0.489  -0.485  -0.479  -0.476
 -0.475  -0.471  -0.467  -0.465  -0.462  -0.461  -0.455  -0.451
 -0.442  -0.441  -0.439  -0.438  -0.433  -0.429  -0.428  -0.426
 -0.425  -0.423  -0.422  -0.421  -0.421  -0.419  -0.416  -0.410
 -0.408  -0.406  -0.405  -0.403  -0.397  -0.396  -0.394  -0.394
 -0.391  -0.391  -0.389  -0.386  -0.384  -0.383  -0.380  -0.379
 -0.376  -0.374  -0.373  -0.368  -0.365  -0.361  -0.358  -0.357
 -0.354  -0.352  -0.351  -0.350  -0.346  -0.343  -0.339  -0.336
 -0.335  -0.331  -0.329  -0.328  -0.326  -0.325  -0.322  -0.319
 -0.317  -0.315  -0.312  -0.309  -0.304  -0.301  -0.300  -0.298
 -0.294  -0.293  -0.291  -0.286  -0.284  -0.283  -0.275  -0.274
 -0.271  -0.267  -0.263  -0.261  -0.254  -0.250  -0.248  -0.243
 -0.242  -0.237  -0.235  -0.224  -0.194  -0.186

          Ground-State Mulliken Net Atomic Charges

     Atom                 Charge (a.u.)
  ----------------------------------------
      1 C                     0.251627
      2 C                    -0.090476
      3 N                    -0.472150
      4 C                    -0.065939
      5 C                     0.104478
      6 C                     0.016830
      7 C                     0.037121
      8 C                     0.053315
      9 C                     0.161913
     10 N                    -0.489379
     11 N                    -0.514411
     12 C                     0.211149
     13 C                     0.266549
     14 S                     0.606340
     15 N                    -0.511235
     16 C                    -0.213125
     17 S                     0.301503
     18 C                    -0.124459
     19 C                    -0.252685
     20 S                     0.264835
     21 C                     0.210162
     22 C                     0.075559
     23 C                    -0.298213
     24 C                    -0.068583
     25 N                    -0.447555
     26 S                     0.273583
     27 C                     0.109436
     28 C                    -0.313287
     29 C                    -0.232140
     30 H                     0.100729
     31 H                     0.093153
     32 H                     0.112716
     33 H                     0.106848
     34 H                     0.124591
     35 H                     0.119991
     36 H                     0.115662
     37 H                     0.122643
     38 H                     0.119146
     39 C                    -0.187102
     40 H                     0.118157
     41 H                     0.091575
     42 H                     0.104836
     43 C                    -0.175729
     44 H                     0.081754
     45 C                    -0.173179
     46 H                     0.092226
     47 H                     0.094075
     48 H                     0.088574
     49 C                    -0.168492
     50 H                     0.092764
     51 C                    -0.325464
     52 H                     0.098806
     53 H                     0.095449
     54 H                     0.104350
     55 H                     0.096299
     56 C                     0.294902
     57 C                    -0.132408
     58 N                    -0.505054
     59 C                    -0.061476
     60 C                     0.093020
     61 C                     0.027270
     62 C                     0.037813
     63 C                     0.045939
     64 C                     0.230702
     65 N                    -0.507877
     66 N                    -0.581884
     67 C                     0.215668
     68 C                     0.270634
     69 S                     0.606296
     70 N                    -0.541265
     71 C                    -0.204258
     72 S                     0.350849
     73 C                    -0.104885
     74 C                    -0.199532
     75 S                     0.272185
     76 C                     0.146596
     77 C                     0.020241
     78 C                    -0.310495
     79 C                    -0.087677
     80 N                    -0.402011
     81 S                     0.270920
     82 C                     0.121986
     83 C                    -0.298249
     84 C                    -0.223692
     85 H                     0.082561
     86 H                     0.115123
     87 H                     0.098123
     88 H                     0.117021
     89 H                     0.134280
     90 H                     0.107280
     91 H                     0.120751
     92 H                     0.134278
     93 H                     0.085718
     94 C                    -0.168675
     95 H                     0.116238
     96 H                     0.092206
     97 H                     0.123882
     98 C                    -0.182319
     99 H                     0.085520
    100 C                    -0.170855
    101 H                     0.097013
    102 H                     0.087126
    103 H                     0.096734
    104 C                    -0.169801
    105 H                     0.088037
    106 C                    -0.327283
    107 H                     0.087773
    108 H                     0.102557
    109 H                     0.103650
    110 H                     0.103667
  ----------------------------------------
  Sum of atomic charges =     0.000000

                    Cartesian Multipole Moments
 -----------------------------------------------------------------
    Charge (ESU x 10^10)
                 0.0000
    Dipole Moment (Debye)
         X      -1.7900      Y       3.3123      Z       0.7918
       Tot       3.8474
    Quadrupole Moments (Debye-Ang)
        XX    -398.2457     XY       4.6245     YY    -430.4253
        XZ      15.0287     YZ      -5.8343     ZZ    -449.6669

 Total job time:  128.34s(wall), 1406.60s(cpu)
        *  Thank you very much for using Q-Chem.  Have a nice day.  *
