 Q-Chem 4.4, Q-Chem, Inc., Pleasanton, CA (2016)
 Q-Chem 4.4.2 for Intel X86 Linux

User input:
--------------------------------------------------------------
$comment
SP
$end

$rem
MEM_STATIC 5000
MEM_TOTAL 20000
JOBTYPE SP
EXCHANGE B3LYP
BASIS 6-31g(d,p)
$end

$molecule
0 1
C          26.688000     30.173000      1.424000
C          25.289000     30.391000      1.655000
N          27.128000     29.284000      0.541000
C          24.362000     29.544000      0.980000
C          26.217000     28.483000     -0.089000
C          24.830000     28.518000      0.097000
C          23.915000     27.621000     -0.649000
C          24.490000     26.509000     -1.308000
C          22.536000     27.808000     -0.864000
N          23.631000     25.540000     -1.841000
N          21.848000     28.854000     -0.451000
C          21.731000     26.914000     -1.528000
C          22.316000     25.717000     -2.009000
S          20.258000     28.588000     -0.751000
N          20.432000     27.188000     -1.646000
C          21.558000     24.794000     -2.908000
S          19.865000     24.898000     -3.425000
C          22.125000     23.643000     -3.545000
C          20.000000     23.503000     -4.558000
S          23.727000     22.994000     -3.411000
C          21.241000     22.960000     -4.440000
C          19.020000     23.264000     -5.569000
C          23.296000     21.750000     -4.681000
C          21.903000     21.862000     -5.047000
N          18.184000     24.235000     -5.809000
S          19.145000     22.112000     -6.877000
C          17.489000     24.036000     -6.905000
C          17.785000     22.881000     -7.595000
C          27.671000     31.047000      2.144000
H          24.912000     31.224000      2.240000
H          23.307000     29.711000      1.179000
H          26.714000     27.728000     -0.697000
H          25.564000     26.337000     -1.268000
H          24.054000     21.024000     -4.942000
H          21.429000     21.154000     -5.718000
H          16.744000     24.775000     -7.169000
H          17.352000     22.367000     -8.443000
H          27.844000     31.863000      1.431000
C          28.999000     30.248000      2.576000
H          27.302000     31.574000      3.033000
H          29.504000     29.864000      1.680000
H          28.703000     29.370000      3.163000
C          29.880000     31.152000      3.378000
H          30.163000     31.938000      2.666000
C          31.093000     30.368000      3.908000
H          29.269000     31.636000      4.149000
H          31.707000     29.794000      3.202000
H          30.677000     29.541000      4.497000
C          32.076000     31.217000      4.709000
H          32.174000     32.055000      4.009000
C          33.413000     30.486000      4.908000
H          31.562000     31.434000      5.653000
H          33.915000     30.266000      3.957000
H          33.288000     29.551000      5.468000
H          34.108000     31.112000      5.481000
C          32.154000     24.155000      7.971000
C          31.063000     23.523000      7.367000
N          32.079000     25.456000      8.393000
C          29.803000     24.118000      7.347000
C          30.950000     26.080000      8.133000
C          29.706000     25.502000      7.727000
C          28.405000     26.251000      7.616000
C          27.110000     25.665000      7.797000
C          28.371000     27.662000      7.269000
N          25.981000     26.423000      7.715000
N          29.461000     28.444000      7.003000
C          27.165000     28.393000      7.079000
C          25.938000     27.727000      7.300000
S          28.929000     29.921000      6.579000
N          27.327000     29.598000      6.663000
C          24.550000     28.311000      7.355000
S          23.229000     27.661000      8.290000
C          24.067000     29.348000      6.596000
C          22.036000     28.718000      7.479000
S          24.847000     30.208000      5.307000
C          22.708000     29.600000      6.662000
C          20.620000     28.693000      7.761000
C          23.400000     31.149000      5.131000
C          22.315000     30.615000      5.758000
N          19.841000     29.473000      7.007000
S          19.858000     27.609000      8.829000
C          18.540000     29.325000      7.410000
C          18.364000     28.431000      8.367000
C          33.557000     23.596000      8.046000
H          31.152000     22.469000      7.119000
H          28.933000     23.592000      6.965000
H          31.008000     27.112000      8.474000
H          26.940000     24.604000      7.973000
H          23.351000     31.824000      4.287000
H          21.284000     30.946000      5.712000
H          17.740000     29.945000      7.028000
H          17.408000     28.099000      8.752000
H          33.587000     22.704000      7.408000
C          34.121000     23.206000      9.482000
H          34.348000     24.231000      7.627000
H          34.038000     24.053000     10.175000
H          35.204000     23.039000      9.415000
C          33.392000     21.948000     10.110000
H          32.355000     22.271000     10.267000
C          33.974000     21.632000     11.506000
H          33.458000     21.101000      9.416000
H          34.100000     22.562000     12.075000
H          34.994000     21.317000     11.253000
C          33.325000     20.479000     12.358000
H          33.306000     19.525000     11.815000
C          31.870000     20.756000     12.889000
H          33.939000     20.405000     13.264000
H          31.494000     19.934000     13.510000
H          31.099000     20.922000     12.126000
H          31.825000     21.656000     13.515000
$end

--------------------------------------------------------------

             Standard Nuclear Orientation (Angstroms)
    I     Atom           X                Y                Z
 ----------------------------------------------------------------
    1      C       0.1527853939    -0.6099776876    -4.0995311334
    2      C       0.8244393903    -1.7158478701    -3.4798392353
    3      N       0.6366178642     0.6259074403    -4.0536607585
    4      C       1.9914880842    -1.4398403023    -2.7090084053
    5      C       1.7551005002     0.8621799838    -3.3042650831
    6      C       2.4684339667    -0.0960336353    -2.5744897574
    7      C       3.6872556943     0.2507092955    -1.8046891753
    8      C       3.9296012765     1.6220052029    -1.5551573076
    9      C       4.6968241822    -0.6322946382    -1.3758412751
   10      N       4.9529955102     1.9601926364    -0.6611637382
   11      N       4.7216145232    -1.9248395108    -1.6341863759
   12      C       5.7831478679    -0.2545994634    -0.6239076312
   13      C       5.8869274146     1.1032706625    -0.2342750776
   14      S       5.9632084432    -2.6020983715    -0.8043544812
   15      N       6.6607050765    -1.1871303830    -0.2542044671
   16      C       7.1296331445     1.6292735165     0.4089181022
   17      S       8.5761217590     0.7361050673     0.9131747924
   18      C       7.3627701147     3.0120643135     0.7014856409
   19      C       9.4831293662     2.2250989912     1.3694349099
   20      S       6.3133445352     4.3728523411     0.4723068965
   21      C       8.6621934354     3.2998240458     1.2284233698
   22      C      10.8986339980     2.2092765649     1.5584806409
   23      C       7.6670698991     5.4710706335     1.0268708886
   24      C       8.8088829373     4.6933838606     1.4492632048
   25      N      11.5305094454     1.1532408941     1.1285282238
   26      S      11.9297606640     3.6058788076     1.7581628240
   27      C      12.8323197658     1.3230182541     1.1109914702
   28      C      13.2753642359     2.5638223556     1.5133069920
   29      C      -1.0862077523    -0.8884681336    -4.8969670589
   30      H       0.5382748726    -2.7488479500    -3.6509056078
   31      H       2.4784409169    -2.2860771625    -2.2322746061
   32      H       1.9787296389     1.9274138917    -3.2599398117
   33      H       3.2447744162     2.3814496052    -1.9278721735
   34      H       7.4557142271     6.5303235130     1.0823065930
   35      H       9.6809126142     5.1552309834     1.8991992868
   36      H      13.4441980135     0.4868575808     0.7990903023
   37      H      14.2451642003     2.9980185331     1.7176368931
   38      H      -0.6998783769    -1.0178541419    -5.9158698386
   39      C      -2.1865163191     0.2755409023    -4.7452666230
   40      H      -1.5910644222    -1.8435866369    -4.7044069711
   41      H      -1.7715919661     1.2229422515    -5.1134587804
   42      H      -2.3934282318     0.4237360583    -3.6783576971
   43      C      -3.4284548884    -0.1206707056    -5.4781963275
   44      H      -3.1089011344    -0.1627608748    -6.5274545493
   45      C      -4.5349711411     0.9207037993    -5.2371861136
   46      H      -3.6877094560    -1.1463854425    -5.1905953059
   47      H      -4.3213941729     1.9801245786    -5.4293331692
   48      H      -4.6728484739     0.9602602804    -4.1493758701
   49      C      -5.8352425630     0.6242449574    -5.9788716160
   50      H      -5.4141769311     0.4284874881    -6.9719631258
   51      C      -6.7645693538     1.8480834631    -5.9889724989
   52      H      -6.2692313516    -0.2386655324    -5.4597760391
   53      H      -6.3174392278     2.7085568854    -6.5032342416
   54      H      -7.0522154805     2.1510064252    -4.9746020612
   55      H      -7.6910683136     1.6186053873    -6.5294995474
   56      C      -7.8874743544     3.9551340185     0.7451223413
   57      C      -6.6904714276     3.9574477493     1.4674101231
   58      N      -8.2698291150     2.8682719315     0.0042811700
   59      C      -5.9381804042     2.7948417376     1.6237126433
   60      C      -7.4138512302     1.8695586280    -0.0343270970
   61      C      -6.2804688758     1.6573826678     0.8123616301
   62      C      -5.4435271666     0.4063557551     0.8319381262
   63      C      -4.7358285860    -0.0820821558     1.9781375531
   64      C      -5.2598140277    -0.4003623335    -0.3630268976
   65      N      -4.0289886559    -1.2452909399     1.9211144189
   66      N      -5.7889407596    -0.1318824517    -1.5952295817
   67      C      -4.4188408957    -1.5472050757    -0.4121483365
   68      C      -3.7784375016    -1.9577957389     0.7791638813
   69      S      -5.2410253558    -1.2567415642    -2.6338872190
   70      N      -4.2871993285    -2.0672914161    -1.5798408029
   71      C      -3.0043469007    -3.2240559442     1.0399201547
   72      S      -2.8638511583    -4.0074273610     2.5918080919
   73      C      -2.1917819292    -3.8848344936     0.1523116397
   74      C      -1.5714420868    -5.0973715792     2.0087820262
   75      S      -1.7363049610    -3.4233987595    -1.4567684685
   76      C      -1.4188391322    -4.9182225352     0.6517208787
   77      C      -0.9104028300    -6.0746804777     2.8413079525
   78      C      -0.7727188279    -4.8638535665    -1.5395797779
   79      C      -0.5473406762    -5.4471366739    -0.3294163570
   80      N       0.1017267832    -6.7501865133     2.2908152261
   81      S      -1.1874738071    -6.2826467552     4.5075329376
   82      C       0.6063915691    -7.6267068872     3.2149036894
   83      C       0.0375396328    -7.5515182569     4.4052041322
   84      C      -8.7742156101     5.1587230446     0.5180135535
   85      H      -6.4714843398     4.8153913868     2.0969483430
   86      H      -5.0597066569     2.7688023879     2.2617610955
   87      H      -7.7949743291     1.0772516910    -0.6759374937
   88      H      -4.6862959921     0.4400417991     2.9323545608
   89      H      -0.1355531716    -4.9811159240    -2.4059696820
   90      H       0.1032873212    -6.2826937669    -0.0988397902
   91      H       1.3535952334    -8.3677955614     2.9643078771
   92      H       0.3561508883    -8.0857545756     5.2914678760
   93      H      -8.2267442711     6.0392328798     0.8766018455
   94      C     -10.2148209127     5.1529679065     1.1939686115
   95      H      -8.9870766566     5.4051585086    -0.5300450026
   96      H     -10.7688482551     4.2460973315     0.9197671088
   97      H     -10.8221402890     5.9602438490     0.7641596682
   98      C     -10.1557724352     5.2679476511     2.7724748471
   99      H      -9.6591810411     4.3474949486     3.1049065088
  100      C     -11.5820164172     5.2413791778     3.3662072954
  101      H      -9.5904103719     6.1647548603     3.0544386158
  102      H     -12.1754211506     4.4613796375     2.8722350903
  103      H     -11.9937698258     6.1869494066     2.9920548225
  104      C     -11.7554401601     5.2408150139     4.9303165905
  105      H     -11.2469124960     6.0916384145     5.4023601857
  106      C     -11.2875903193     3.9335419426     5.6704980841
  107      H     -12.8378105247     5.2826348481     5.1036183375
  108      H     -11.4756504766     3.9808378220     6.7498948958
  109      H     -10.2263593768     3.6730542784     5.5699940362
  110      H     -11.8169997531     3.0435961246     5.3076991143
 ----------------------------------------------------------------

   10   -5663.5093904048      3.33E-06 Convergence criterion met
 Total energy in the final basis set = -5663.5093904048

                    Orbital Energies (a.u.)
 --------------------------------------------------------------

 Alpha MOs
 -- Occupied --
-88.988 -88.984 -88.927 -88.926 -88.921 -88.918 -88.911 -88.901
-14.386 -14.380 -14.378 -14.376 -14.348 -14.348 -14.337 -14.336
-14.328 -14.328 -10.267 -10.266 -10.264 -10.262 -10.260 -10.254
-10.251 -10.247 -10.247 -10.245 -10.242 -10.240 -10.238 -10.238
-10.237 -10.237 -10.232 -10.232 -10.230 -10.228 -10.227 -10.226
-10.225 -10.223 -10.222 -10.222 -10.222 -10.221 -10.218 -10.217
-10.216 -10.212 -10.209 -10.208 -10.201 -10.201 -10.199 -10.189
-10.188 -10.187 -10.185 -10.185 -10.178 -10.178 -10.177 -10.177
-10.176 -10.172 -10.171 -10.171  -8.043  -8.040  -7.989  -7.988
 -7.981  -7.976  -7.970  -7.963  -6.009  -6.005  -6.003  -6.001
 -5.999  -5.997  -5.952  -5.952  -5.949  -5.949  -5.945  -5.945
 -5.945  -5.941  -5.940  -5.937  -5.936  -5.934  -5.932  -5.930
 -5.927  -5.926  -5.924  -5.919  -1.042  -1.040  -0.988  -0.972
 -0.946  -0.946  -0.941  -0.935  -0.916  -0.909  -0.905  -0.899
 -0.848  -0.831  -0.830  -0.826  -0.813  -0.809  -0.806  -0.806
 -0.803  -0.798  -0.796  -0.792  -0.781  -0.780  -0.767  -0.766
 -0.750  -0.749  -0.743  -0.738  -0.724  -0.711  -0.709  -0.707
 -0.692  -0.689  -0.676  -0.672  -0.655  -0.652  -0.651  -0.644
 -0.635  -0.633  -0.624  -0.620  -0.616  -0.609  -0.600  -0.595
 -0.593  -0.587  -0.583  -0.581  -0.579  -0.577  -0.573  -0.562
 -0.551  -0.545  -0.539  -0.537  -0.528  -0.525  -0.521  -0.513
 -0.506  -0.503  -0.501  -0.494  -0.485  -0.481  -0.480  -0.474
 -0.473  -0.470  -0.470  -0.469  -0.465  -0.457  -0.451  -0.449
 -0.447  -0.443  -0.440  -0.438  -0.436  -0.434  -0.432  -0.431
 -0.428  -0.425  -0.420  -0.418  -0.417  -0.416  -0.416  -0.411
 -0.411  -0.408  -0.407  -0.406  -0.403  -0.401  -0.399  -0.394
 -0.391  -0.391  -0.388  -0.388  -0.386  -0.385  -0.382  -0.381
 -0.376  -0.375  -0.372  -0.371  -0.366  -0.362  -0.357  -0.357
 -0.352  -0.352  -0.348  -0.347  -0.346  -0.345  -0.343  -0.342
 -0.336  -0.332  -0.331  -0.330  -0.328  -0.326  -0.326  -0.321
 -0.315  -0.307  -0.306  -0.306  -0.304  -0.302  -0.297  -0.297
 -0.296  -0.293  -0.293  -0.290  -0.288  -0.284  -0.281  -0.280
 -0.269  -0.268  -0.267  -0.260  -0.254  -0.252  -0.251  -0.250
 -0.244  -0.237  -0.231  -0.227  -0.191  -0.190

          Ground-State Mulliken Net Atomic Charges

     Atom                 Charge (a.u.)
  ----------------------------------------
      1 C                     0.287650
      2 C                    -0.118590
      3 N                    -0.500822
      4 C                    -0.082160
      5 C                     0.053390
      6 C                     0.064902
      7 C                     0.055292
      8 C                     0.060623
      9 C                     0.275483
     10 N                    -0.555970
     11 N                    -0.572113
     12 C                     0.200786
     13 C                     0.332528
     14 S                     0.583809
     15 N                    -0.576990
     16 C                    -0.215809
     17 S                     0.359142
     18 C                    -0.135308
     19 C                    -0.250704
     20 S                     0.287381
     21 C                     0.179699
     22 C                     0.053713
     23 C                    -0.313935
     24 C                    -0.097642
     25 N                    -0.404966
     26 S                     0.272367
     27 C                     0.133223
     28 C                    -0.327747
     29 C                    -0.246501
     30 H                     0.084697
     31 H                     0.125097
     32 H                     0.095816
     33 H                     0.124687
     34 H                     0.134912
     35 H                     0.113275
     36 H                     0.111676
     37 H                     0.141241
     38 H                     0.120489
     39 C                    -0.173552
     40 H                     0.103328
     41 H                     0.123185
     42 H                     0.096016
     43 C                    -0.175863
     44 H                     0.092864
     45 C                    -0.188756
     46 H                     0.086238
     47 H                     0.092127
     48 H                     0.090822
     49 C                    -0.169761
     50 H                     0.098238
     51 C                    -0.326266
     52 H                     0.090152
     53 H                     0.103740
     54 H                     0.113081
     55 H                     0.099476
     56 C                     0.268941
     57 C                    -0.122049
     58 N                    -0.465969
     59 C                    -0.075353
     60 C                     0.093541
     61 C                     0.029110
     62 C                     0.035586
     63 C                     0.061247
     64 C                     0.218872
     65 N                    -0.519336
     66 N                    -0.563935
     67 C                     0.255915
     68 C                     0.271563
     69 S                     0.617362
     70 N                    -0.577085
     71 C                    -0.204494
     72 S                     0.305691
     73 C                    -0.135891
     74 C                    -0.257019
     75 S                     0.290895
     76 C                     0.183178
     77 C                     0.077936
     78 C                    -0.310486
     79 C                    -0.057239
     80 N                    -0.456236
     81 S                     0.270015
     82 C                     0.145316
     83 C                    -0.306580
     84 C                    -0.227148
     85 H                     0.091462
     86 H                     0.103784
     87 H                     0.110132
     88 H                     0.120608
     89 H                     0.118479
     90 H                     0.126300
     91 H                     0.115113
     92 H                     0.123025
     93 H                     0.089135
     94 C                    -0.188554
     95 H                     0.119737
     96 H                     0.113710
     97 H                     0.090091
     98 C                    -0.174922
     99 H                     0.100333
    100 C                    -0.176173
    101 H                     0.087557
    102 H                     0.092398
    103 H                     0.088680
    104 C                    -0.176687
    105 H                     0.094779
    106 C                    -0.324497
    107 H                     0.098404
    108 H                     0.099444
    109 H                     0.102250
    110 H                     0.101375
  ----------------------------------------
  Sum of atomic charges =     0.000000

                    Cartesian Multipole Moments
 -----------------------------------------------------------------
    Charge (ESU x 10^10)
                 0.0000
    Dipole Moment (Debye)
         X       2.5361      Y       0.2750      Z       1.6443
       Tot       3.0350
    Quadrupole Moments (Debye-Ang)
        XX    -414.1354     XY       2.0566     YY    -405.0368
        XZ       5.4700     YZ       4.6366     ZZ    -435.4884

 Total job time:  90.96s(wall), 1001.34s(cpu)
        *  Thank you very much for using Q-Chem.  Have a nice day.  *
