 Q-Chem 4.4, Q-Chem, Inc., Pleasanton, CA (2016)
 Q-Chem 4.4.2 for Intel X86 Linux

User input:
--------------------------------------------------------------
$comment
SP
$end

$rem
MEM_STATIC 5000
MEM_TOTAL 20000
JOBTYPE SP
EXCHANGE B3LYP
BASIS 6-31g(d,p)
$end

$molecule
0 1
C           3.672000     -4.668000     -8.719000
C           3.577000     -3.858000     -7.604000
N           3.065000     -4.437000     -9.861000
C           2.744000     -2.722000     -7.649000
C           2.394000     -3.270000     -9.967000
C           2.147000     -2.408000     -8.863000
C           1.328000     -1.167000     -9.001000
C           1.505000     -0.056000     -8.121000
C           0.330000     -1.085000     -9.925000
N           0.744000      1.049000     -8.195000
N           0.038000     -2.019000    -10.922000
C          -0.492000      0.049000     -9.943000
C          -0.277000      1.204000     -9.134000
S          -1.239000     -1.298000    -11.709000
N          -1.446000      0.077000    -10.916000
C          -1.091000      2.502000     -9.291000
S          -2.447000      2.911000    -10.287000
C          -0.673000      3.650000     -8.661000
C          -2.392000      4.651000     -9.950000
S           0.453000      3.918000     -7.416000
C          -1.388000      4.808000     -9.081000
C          -3.426000      5.533000    -10.324000
C          -0.134000      5.648000     -7.325000
C          -0.958000      5.942000     -8.336000
N          -3.510000      6.730000     -9.815000
S          -4.636000      5.132000    -11.493000
C          -4.489000      7.466000    -10.382000
C          -5.078000      6.840000    -11.437000
C           4.597000     -5.937000     -8.671000
H           4.261000     -4.120000     -6.802000
H           2.684000     -2.113000     -6.752000
H           2.001000     -3.128000    -10.973000
H           2.288000     -0.065000     -7.364000
H           0.341000      6.309000     -6.613000
H          -1.357000      6.940000     -8.472000
H          -4.629000      8.517000    -10.167000
H          -5.708000      7.275000    -12.203000
H           4.877000     -6.224000     -9.692000
C           3.985000     -7.246000     -8.034000
H           5.478000     -5.582000     -8.121000
H           3.204000     -6.881000     -7.356000
H           4.709000     -7.769000     -7.397000
C           3.334000     -8.244000     -8.957000
H           2.788000     -8.945000     -8.314000
C           4.357000     -9.127000     -9.660000
H           2.628000     -7.848000     -9.697000
H           4.987000     -9.731000     -8.996000
H           5.083000     -8.485000    -10.176000
C           3.793000    -10.134000    -10.684000
H           2.852000     -9.777000    -11.119000
C           3.617000    -11.570000    -10.093000
H           4.468000    -10.150000    -11.549000
H           2.726000    -11.693000     -9.465000
H           4.546000    -11.872000     -9.594000
H           3.544000    -12.181000    -11.001000
C           4.271000      6.032000     -9.452000
C           4.213000      4.672000     -9.056000
N           3.445000      6.452000    -10.418000
C           3.201000      3.773000     -9.577000
C           2.524000      5.594000    -10.975000
C           2.317000      4.242000    -10.612000
C           1.505000      3.307000    -11.479000
C           0.347000      3.729000    -12.099000
C           1.901000      1.982000    -11.810000
N          -0.414000      2.970000    -13.016000
N           2.930000      1.296000    -11.283000
C           1.156000      1.226000    -12.764000
C           0.002000      1.752000    -13.450000
S           2.869000     -0.261000    -11.907000
N           1.591000     -0.029000    -12.941000
C          -0.774000      1.050000    -14.460000
S          -0.117000      0.102000    -15.766000
C          -2.137000      1.053000    -14.477000
C          -1.732000     -0.533000    -16.165000
S          -3.156000      1.960000    -13.436000
C          -2.623000      0.136000    -15.393000
C          -2.091000     -1.517000    -17.185000
C          -4.450000      1.014000    -14.131000
C          -4.024000      0.134000    -15.211000
N          -1.085000     -1.992000    -17.865000
S          -3.619000     -2.381000    -17.435000
C          -1.422000     -3.159000    -18.561000
C          -2.744000     -3.499000    -18.441000
C           5.171000      7.105000     -8.879000
H           4.914000      4.361000     -8.287000
H           3.198000      2.747000     -9.219000
H           1.886000      6.023000    -11.747000
H           0.136000      4.771000    -11.866000
H          -5.446000      1.030000    -13.709000
H          -4.704000     -0.500000    -15.769000
H          -0.785000     -3.763000    -19.194000
H          -3.447000     -4.191000    -18.887000
H           4.680000      8.085000     -8.818000
C           6.521000      7.329000     -9.731000
H           5.474000      7.009000     -7.829000
H           7.153000      8.112000     -9.295000
H           6.347000      7.802000    -10.706000
C           7.325000      6.047000     -9.913000
H           7.501000      5.661000     -8.901000
C           8.748000      6.283000    -10.639000
H           6.660000      5.366000    -10.458000
H           8.549000      6.943000    -11.492000
H           9.039000      5.306000    -11.045000
C          10.035000      6.637000     -9.809000
H          10.254000      5.730000     -9.232000
C          10.058000      7.896000     -8.972000
H          10.919000      6.560000    -10.455000
H          10.891000      7.799000     -8.264000
H           9.168000      8.035000     -8.346000
H          10.239000      8.729000     -9.663000
$end

--------------------------------------------------------------

             Standard Nuclear Orientation (Angstroms)
    I     Atom           X                Y                Z
 ----------------------------------------------------------------
    1      C       5.0439910164     4.4331963558     1.3296312138
    2      C       4.0580687341     4.8356605582     2.2095913373
    3      N       5.0299009094     3.3014516276     0.6626009753
    4      C       2.9714150098     3.9750145203     2.4643109494
    5      C       3.9184346107     2.5431360972     0.7764703003
    6      C       2.8876311227     2.8049872973     1.7207939303
    7      C       1.7130993256     1.8960662047     1.8764329518
    8      C       0.4630687748     2.3731684882     2.3762799615
    9      C       1.8198215581     0.5624540218     1.6183769293
   10      N      -0.5901928417     1.5621801026     2.5726464699
   11      N       2.9189521513    -0.0930460932     1.0581443542
   12      C       0.7301901224    -0.2746756729     1.8901879088
   13      C      -0.5521174905     0.1929022747     2.3046623334
   14      S       2.3810828484    -1.6660741917     0.9792886996
   15      N       0.8971993279    -1.5900725103     1.5748022947
   16      C      -1.7796727942    -0.7281576990     2.4342983681
   17      S      -1.9721745588    -2.4403127982     2.2625398548
   18      C      -3.0303534516    -0.1800825194     2.5922207876
   19      C      -3.7450374063    -2.4197445274     2.2895263304
   20      S      -3.5404854380     1.3877365916     3.0062661857
   21      C      -4.0778748541    -1.1369765139     2.4671536276
   22      C      -4.5193160296    -3.5917078099     2.4076393195
   23      C      -5.2425895717     0.7376987061     3.1676423471
   24      C      -5.3348216042    -0.5176733437     2.7170124895
   25      N      -5.7828476640    -3.5376608676     2.7230957138
   26      S      -3.8887735450    -5.1761971016     2.1190706803
   27      C      -6.3818903039    -4.7459141253     2.6692628165
   28      C      -5.5674543889    -5.7187877698     2.1772943091
   29      C       6.2584175572     5.3887448492     1.0461082804
   30      H       4.1586866113     5.8605662389     2.5547701148
   31      H       2.2197593560     4.3176317192     3.1690926413
   32      H       3.9624348777     1.6734633678     0.1219610794
   33      H       0.3193529425     3.4296797405     2.5984257098
   34      H      -6.0293965099     1.4325597122     3.4276289317
   35      H      -6.2826705335    -1.0413034122     2.6839223290
   36      H      -7.4496377723    -4.8745204999     2.7867436413
   37      H      -5.8461854329    -6.6991898561     1.8112318085
   38      H       6.7077874807     5.1316063279     0.0790734037
   39      C       7.4562507430     5.3494685390     2.0744307155
   40      H       5.7888410607     6.3795092496     0.9954149204
   41      H       7.0034759229     4.9953501905     3.0084891492
   42      H       7.8409957851     6.3530671297     2.2940556719
   43      C       8.6162226289     4.4350383476     1.7744029687
   44      H       9.2123518704     4.3848738236     2.6936849972
   45      C       9.5763236564     5.0411451971     0.7588895498
   46      H       8.3736650390     3.4080914787     1.4754080790
   47      H      10.0389577581     5.9882802847     1.0614070102
   48      H       9.0112770689     5.3164348205    -0.1413515164
   49      C      10.7599193672     4.1493524812     0.3293223897
   50      H      10.5103832428     3.0851791298     0.4154722637
   51      C      12.0779567117     4.4707806589     1.1050894197
   52      H      10.9041415183     4.2767324511    -0.7509925248
   53      H      12.1175364598     4.0536725078     2.1189179229
   54      H      12.2627158847     5.5515220711     1.0718020648
   55      H      12.8373539804     4.0098834232     0.4616583617
   56      C      -5.3850937878     3.3309731238    -0.9953169780
   57      C      -4.1119406431     3.6429700081    -0.4553919699
   58      N      -5.6090593589     2.0826604670    -1.4235539846
   59      C      -3.1077826339     2.6186772577    -0.2402709479
   60      C      -4.6417695628     1.1122384962    -1.2920790862
   61      C      -3.3664858148     1.2798609192    -0.7020993533
   62      C      -2.2734433804     0.2505454076    -0.8782408146
   63      C      -2.5489525633    -1.1008079103    -0.8409997033
   64      C      -0.9234749898     0.5679007478    -1.1926814805
   65      N      -1.6221560750    -2.1329585516    -1.1089629894
   66      N      -0.3682798975     1.7921409357    -1.2053452797
   67      C       0.0062384811    -0.4701454502    -1.5005287687
   68      C      -0.3604974531    -1.8641870403    -1.5343044953
   69      S       1.2737134247     1.5970864801    -1.4937160293
   70      N       1.2597483412    -0.0481688780    -1.7155352870
   71      C       0.5265380998    -2.9636891185    -1.8797652133
   72      S       1.6646562502    -2.9722382614    -3.1990843513
   73      C       0.5663357050    -4.1290644076    -1.1738023346
   74      C       2.4055557449    -4.4753908128    -2.5972111536
   75      S      -0.4754245446    -4.5598472930     0.1199722548
   76      C       1.6405182353    -4.9092285657    -1.5657420978
   77      C       3.5598242035    -5.1938602147    -3.1348011868
   78      C       0.6130712165    -5.9078841386     0.3443617398
   79      C       1.6522569519    -6.0034122820    -0.6721240600
   80      N       4.1146910096    -4.6372458546    -4.1751685650
   81      S       4.4981683154    -6.5198436472    -2.4241266730
   82      C       5.3930223327    -5.1485329464    -4.4287992772
   83      C       5.7459300276    -6.1688425996    -3.5849341396
   84      C      -6.5662388792     4.2671047536    -1.1302682456
   85      H      -3.9579116953     4.6708807388    -0.1404989516
   86      H      -2.1586436456     2.9192493953     0.1952064579
   87      H      -4.9133301419     0.1226394558    -1.6581632174
   88      H      -3.6088455618    -1.2793051155    -0.6697117014
   89      H       0.5541282428    -6.5365324885     1.2228166208
   90      H       2.3920828759    -6.7956901108    -0.6980748633
   91      H       6.0776592430    -4.8658053512    -5.2178565678
   92      H       6.5243572200    -6.9160695760    -3.4972303662
   93      H      -7.5274235170     3.7693201763    -0.9471382186
   94      C      -6.6803211197     4.9461887844    -2.5878038786
   95      H      -6.6604467057     5.0778765157    -0.3972614003
   96      H      -7.5445748699     5.6175438473    -2.6582086709
   97      H      -6.9739956252     4.2402212701    -3.3752015885
   98      C      -5.4101511360     5.6817143140    -2.9985768179
   99      H      -5.2085500324     6.3984884016    -2.1925322147
  100      C      -5.5597713246     6.4864659298    -4.3905860262
  101      H      -4.6267061555     4.9142895178    -3.0154334093
  102      H      -6.0577706987     5.8008228758    -5.0867901817
  103      H      -4.5365883551     6.6359327339    -4.7577403336
  104      C      -6.0882008666     7.9664745328    -4.4209464272
  105      H      -5.3002596976     8.5548634157    -3.9346479215
  106      C      -7.4721107716     8.2736791215    -3.8950208473
  107      H      -5.9275359681     8.3913602964    -5.4201260298
  108      H      -7.5222324510     9.3574087875    -3.7289490904
  109      H      -7.6902302361     7.8262307732    -2.9175184817
  110      H      -8.1793388828     7.9742102829    -4.6787796197
 ----------------------------------------------------------------

   10   -5663.4622462573      8.05E-06 Convergence criterion met
 Total energy in the final basis set = -5663.4622462573

                    Orbital Energies (a.u.)
 --------------------------------------------------------------

 Alpha MOs
 -- Occupied --
-88.989 -88.982 -88.926 -88.924 -88.922 -88.920 -88.914 -88.902
-14.389 -14.385 -14.383 -14.379 -14.355 -14.355 -14.340 -14.340
-14.325 -14.325 -10.276 -10.269 -10.267 -10.266 -10.256 -10.255
-10.255 -10.254 -10.249 -10.246 -10.239 -10.238 -10.235 -10.235
-10.232 -10.232 -10.230 -10.230 -10.229 -10.228 -10.228 -10.225
-10.225 -10.224 -10.224 -10.223 -10.222 -10.218 -10.218 -10.218
-10.216 -10.213 -10.207 -10.204 -10.203 -10.200 -10.198 -10.189
-10.188 -10.185 -10.180 -10.180 -10.179 -10.178 -10.177 -10.174
-10.172 -10.172 -10.172 -10.167  -8.044  -8.036  -7.987  -7.984
 -7.983  -7.979  -7.974  -7.962  -6.008  -6.003  -6.002  -6.002
 -5.996  -5.993  -5.951  -5.948  -5.948  -5.947  -5.944  -5.944
 -5.944  -5.943  -5.940  -5.940  -5.939  -5.938  -5.936  -5.935
 -5.930  -5.926  -5.923  -5.918  -1.035  -1.022  -0.983  -0.966
 -0.949  -0.945  -0.944  -0.927  -0.919  -0.918  -0.903  -0.897
 -0.846  -0.845  -0.835  -0.828  -0.811  -0.806  -0.804  -0.803
 -0.803  -0.800  -0.794  -0.787  -0.782  -0.771  -0.767  -0.765
 -0.752  -0.750  -0.743  -0.741  -0.722  -0.720  -0.706  -0.705
 -0.694  -0.694  -0.675  -0.670  -0.655  -0.653  -0.652  -0.642
 -0.636  -0.635  -0.627  -0.618  -0.617  -0.609  -0.598  -0.598
 -0.594  -0.593  -0.582  -0.582  -0.580  -0.574  -0.559  -0.557
 -0.554  -0.548  -0.537  -0.535  -0.526  -0.522  -0.514  -0.512
 -0.505  -0.503  -0.501  -0.498  -0.486  -0.484  -0.479  -0.477
 -0.476  -0.467  -0.464  -0.457  -0.454  -0.452  -0.449  -0.448
 -0.445  -0.441  -0.440  -0.438  -0.437  -0.435  -0.435  -0.433
 -0.429  -0.429  -0.424  -0.422  -0.420  -0.417  -0.415  -0.411
 -0.410  -0.408  -0.406  -0.403  -0.403  -0.399  -0.397  -0.394
 -0.394  -0.393  -0.391  -0.390  -0.386  -0.383  -0.381  -0.381
 -0.377  -0.376  -0.374  -0.369  -0.364  -0.362  -0.362  -0.355
 -0.353  -0.352  -0.349  -0.346  -0.345  -0.343  -0.342  -0.339
 -0.336  -0.335  -0.334  -0.332  -0.326  -0.324  -0.323  -0.313
 -0.312  -0.310  -0.309  -0.304  -0.303  -0.300  -0.298  -0.297
 -0.293  -0.290  -0.290  -0.288  -0.285  -0.280  -0.278  -0.275
 -0.269  -0.267  -0.265  -0.263  -0.255  -0.252  -0.248  -0.248
 -0.242  -0.239  -0.234  -0.227  -0.198  -0.193

          Ground-State Mulliken Net Atomic Charges

     Atom                 Charge (a.u.)
  ----------------------------------------
      1 C                     0.266843
      2 C                    -0.111420
      3 N                    -0.473430
      4 C                    -0.085511
      5 C                     0.063868
      6 C                     0.039630
      7 C                    -0.004369
      8 C                     0.089261
      9 C                     0.259267
     10 N                    -0.546109
     11 N                    -0.566714
     12 C                     0.143943
     13 C                     0.305890
     14 S                     0.648558
     15 N                    -0.538769
     16 C                    -0.217436
     17 S                     0.330989
     18 C                    -0.102195
     19 C                    -0.234068
     20 S                     0.264151
     21 C                     0.136775
     22 C                     0.082291
     23 C                    -0.313268
     24 C                    -0.029945
     25 N                    -0.441141
     26 S                     0.261729
     27 C                     0.132741
     28 C                    -0.309750
     29 C                    -0.228806
     30 H                     0.089963
     31 H                     0.102549
     32 H                     0.136739
     33 H                     0.117204
     34 H                     0.126085
     35 H                     0.126360
     36 H                     0.117423
     37 H                     0.132864
     38 H                     0.117581
     39 C                    -0.175836
     40 H                     0.092158
     41 H                     0.089926
     42 H                     0.093702
     43 C                    -0.172985
     44 H                     0.091821
     45 C                    -0.171055
     46 H                     0.109389
     47 H                     0.083193
     48 H                     0.086487
     49 C                    -0.187765
     50 H                     0.092166
     51 C                    -0.317286
     52 H                     0.091829
     53 H                     0.108769
     54 H                     0.102803
     55 H                     0.101754
     56 C                     0.289377
     57 C                    -0.132623
     58 N                    -0.485217
     59 C                    -0.062640
     60 C                     0.065345
     61 C                     0.036155
     62 C                     0.077532
     63 C                     0.046281
     64 C                     0.260307
     65 N                    -0.543739
     66 N                    -0.588760
     67 C                     0.180379
     68 C                     0.290729
     69 S                     0.598796
     70 N                    -0.564478
     71 C                    -0.212028
     72 S                     0.343121
     73 C                    -0.121340
     74 C                    -0.219823
     75 S                     0.353867
     76 C                     0.189367
     77 C                     0.067972
     78 C                    -0.311489
     79 C                    -0.129442
     80 N                    -0.442727
     81 S                     0.256760
     82 C                     0.117893
     83 C                    -0.310849
     84 C                    -0.233347
     85 H                     0.087579
     86 H                     0.130057
     87 H                     0.099031
     88 H                     0.121228
     89 H                     0.125388
     90 H                     0.103665
     91 H                     0.122221
     92 H                     0.142515
     93 H                     0.119509
     94 C                    -0.184959
     95 H                     0.098327
     96 H                     0.091426
     97 H                     0.104964
     98 C                    -0.177237
     99 H                     0.083043
    100 C                    -0.183192
    101 H                     0.107396
    102 H                     0.089669
    103 H                     0.089715
    104 C                    -0.185751
    105 H                     0.090495
    106 C                    -0.308882
    107 H                     0.094579
    108 H                     0.099103
    109 H                     0.108951
    110 H                     0.106935
  ----------------------------------------
  Sum of atomic charges =     0.000000

                    Cartesian Multipole Moments
 -----------------------------------------------------------------
    Charge (ESU x 10^10)
                 0.0000
    Dipole Moment (Debye)
         X       0.3682      Y      -0.7677      Z       2.1981
       Tot       2.3572
    Quadrupole Moments (Debye-Ang)
        XX    -426.6850     XY      -4.4716     YY    -390.4126
        XZ      -8.3446     YZ       1.6538     ZZ    -453.9892

 Total job time:  119.17s(wall), 1277.60s(cpu)
        *  Thank you very much for using Q-Chem.  Have a nice day.  *
