 Q-Chem 4.4, Q-Chem, Inc., Pleasanton, CA (2016)
 Q-Chem 4.4.2 for Intel X86 Linux

User input:
--------------------------------------------------------------
$comment
SP
$end

$rem
MEM_STATIC 5000
MEM_TOTAL 20000
JOBTYPE SP
EXCHANGE B3LYP
BASIS 6-31g(d,p)
$end

$molecule
0 1
C          27.968000     26.070000      3.404000
C          27.382000     24.860000      3.807000
N          27.170000     27.183000      3.227000
C          26.070000     24.830000      4.268000
C          25.839000     27.162000      3.600000
C          25.258000     26.034000      4.285000
C          23.879000     26.000000      4.854000
C          23.521000     25.086000      5.850000
C          22.863000     26.880000      4.396000
N          22.353000     24.982000      6.376000
N          22.961000     27.736000      3.350000
C          21.578000     26.754000      4.951000
C          21.316000     25.793000      5.931000
S          21.516000     28.428000      3.187000
N          20.703000     27.663000      4.371000
C          19.975000     25.470000      6.325000
S          18.526000     25.930000      5.492000
C          19.662000     24.664000      7.380000
C          17.510000     25.168000      6.783000
S          20.671000     24.092000      8.700000
C          18.282000     24.444000      7.655000
C          16.084000     25.308000      6.811000
C          19.249000     23.355000      9.485000
C          18.063000     23.707000      8.843000
N          15.442000     24.843000      7.879000
S          15.135000     26.134000      5.485000
C          14.090000     25.035000      7.688000
C          13.794000     25.644000      6.448000
C          29.411000     26.301000      3.006000
H          28.033000     23.992000      3.868000
H          25.720000     23.827000      4.493000
H          25.320000     28.117000      3.546000
H          24.299000     24.409000      6.201000
H          19.384000     22.761000     10.379000
H          17.082000     23.379000      9.167000
H          13.404000     24.706000      8.457000
H          12.788000     25.832000      6.096000
H          29.801000     25.689000      2.183000
C          30.470000     26.283000      4.175000
H          29.402000     27.318000      2.595000
H          30.303000     25.274000      4.572000
H          30.253000     27.019000      4.959000
C          31.923000     26.424000      3.733000
H          32.366000     25.633000      3.115000
C          32.829000     26.532000      4.950000
H          31.938000     27.329000      3.114000
H          33.017000     25.506000      5.291000
H          32.406000     27.085000      5.797000
C          34.214000     27.020000      4.565000
H          34.621000     26.330000      3.816000
C          35.100000     27.073000      5.839000
H          34.256000     27.995000      4.066000
H          35.299000     26.040000      6.149000
H          34.648000     27.726000      6.595000
H          36.043000     27.551000      5.545000
C          32.154000     24.155000      7.971000
C          31.063000     23.523000      7.367000
N          32.079000     25.456000      8.393000
C          29.803000     24.118000      7.347000
C          30.950000     26.080000      8.133000
C          29.706000     25.502000      7.727000
C          28.405000     26.251000      7.616000
C          27.110000     25.665000      7.797000
C          28.371000     27.662000      7.269000
N          25.981000     26.423000      7.715000
N          29.461000     28.444000      7.003000
C          27.165000     28.393000      7.079000
C          25.938000     27.727000      7.300000
S          28.929000     29.921000      6.579000
N          27.327000     29.598000      6.663000
C          24.550000     28.311000      7.355000
S          23.229000     27.661000      8.290000
C          24.067000     29.348000      6.596000
C          22.036000     28.718000      7.479000
S          24.847000     30.208000      5.307000
C          22.708000     29.600000      6.662000
C          20.620000     28.693000      7.761000
C          23.400000     31.149000      5.131000
C          22.315000     30.615000      5.758000
N          19.841000     29.473000      7.007000
S          19.858000     27.609000      8.829000
C          18.540000     29.325000      7.410000
C          18.364000     28.431000      8.367000
C          33.557000     23.596000      8.046000
H          31.152000     22.469000      7.119000
H          28.933000     23.592000      6.965000
H          31.008000     27.112000      8.474000
H          26.940000     24.604000      7.973000
H          23.351000     31.824000      4.287000
H          21.284000     30.946000      5.712000
H          17.740000     29.945000      7.028000
H          17.408000     28.099000      8.752000
H          33.587000     22.704000      7.408000
C          34.121000     23.206000      9.482000
H          34.348000     24.231000      7.627000
H          34.038000     24.053000     10.175000
H          35.204000     23.039000      9.415000
C          33.392000     21.948000     10.110000
H          32.355000     22.271000     10.267000
C          33.974000     21.632000     11.506000
H          33.458000     21.101000      9.416000
H          34.100000     22.562000     12.075000
H          34.994000     21.317000     11.253000
C          33.325000     20.479000     12.358000
H          33.306000     19.525000     11.815000
C          31.870000     20.756000     12.889000
H          33.939000     20.405000     13.264000
H          31.494000     19.934000     13.510000
H          31.099000     20.922000     12.126000
H          31.825000     21.656000     13.515000
$end

--------------------------------------------------------------

             Standard Nuclear Orientation (Angstroms)
    I     Atom           X                Y                Z
 ----------------------------------------------------------------
    1      C       2.9620149134     2.3493258279    -2.5985370908
    2      C       2.5440508477     1.1125536829    -3.1139065710
    3      N       2.0335231359     3.1882401672    -2.0145612776
    4      C       1.2767463017     0.6184481132    -2.8231078886
    5      C       0.7406206755     2.7564357016    -1.7841721906
    6      C       0.3367533661     1.3949459838    -2.0339860108
    7      C      -0.9894775930     0.8180518631    -1.6667495521
    8      C      -1.1761346458    -0.5616845518    -1.5361257789
    9      C      -2.1261175006     1.6419882396    -1.4532113403
   10      N      -2.2880665439    -1.1350664513    -1.2419206611
   11      N      -2.1939470122     2.9785354574    -1.6665108764
   12      C      -3.3496704240     1.0182254524    -1.1549426211
   13      C      -3.4368818222    -0.3734837729    -1.0649170449
   14      S      -3.7154224027     3.4137769767    -1.3679552604
   15      N      -4.3577552234     1.9621585860    -1.0098175840
   16      C      -4.7042038801    -1.0440408596    -1.0191568531
   17      S      -6.2471586749    -0.3390055158    -1.3759560474
   18      C      -4.8545983887    -2.3769862576    -0.7716330002
   19      C      -7.0841113009    -1.8849536783    -0.9410588406
   20      S      -3.7034415018    -3.5425366202    -0.1360268533
   21      C      -6.1799920803    -2.8977409057    -0.7477340702
   22      C      -8.5119104020    -1.9820442408    -0.8647492764
   23      C      -4.9787722467    -4.7879928204    -0.0739918267
   24      C      -6.2363065316    -4.2553375949    -0.3524697128
   25      N      -9.0261745100    -3.1131264956    -0.3901985835
   26      S      -9.6326724807    -0.6167894467    -1.3349882691
   27      C     -10.4007753220    -3.0177498923    -0.4414324714
   28      C     -10.8439880437    -1.7864501345    -0.9739363586
   29      C       4.3405992662     2.9674384784    -2.7055694855
   30      H       3.2915450115     0.5128019153    -3.6262504909
   31      H       1.0577571619    -0.3174317656    -3.3283866327
   32      H       0.1146242274     3.4328612514    -1.2054849499
   33      H      -0.3053811183    -1.1951281637    -1.7015086220
   34      H      -4.7194599315    -5.8004619239     0.2052221372
   35      H      -7.1507103386    -4.8373912166    -0.3529787861
   36      H     -10.9935450315    -3.8564630702    -0.1017528035
   37      H     -11.8856031136    -1.5435739735    -1.1392639624
   38      H       4.7427032182     3.1071772345    -3.7168847142
   39      C       5.4688745524     2.3181275703    -1.8146395090
   40      H       4.1899365255     3.9905251660    -2.3396659895
   41      H       5.4432244569     1.2877049875    -2.1903393540
   42      H       5.2217347205     2.3180528325    -0.7458257282
   43      C       6.8646711896     2.8999102530    -2.0139750493
   44      H       7.3529275340     2.7786154460    -2.9890377714
   45      C       7.8301501438     2.2926673588    -1.0076473411
   46      H       6.7368832612     3.9803798039    -1.8773485692
   47      H       8.1547307092     1.3319859173    -1.4272181035
   48      H       7.4035614075     2.0891873524    -0.0183218451
   49      C       9.1230393083     3.0850855064    -0.9361974442
   50      H       9.5556411635     3.1204137489    -1.9433506352
   51      C      10.0786241295     2.3969502867     0.0758344568
   52      H       9.0219428502     4.1416578064    -0.6626568055
   53      H      10.4128783529     1.4529466863    -0.3712911592
   54      H       9.6060446919     2.3238541603     1.0625333123
   55      H      10.9403616690     3.0654198618     0.1971845301
   56      C       7.6266782568    -1.5470476614    -0.3387805721
   57      C       6.5769983081    -1.7559317815    -1.2382584371
   58      N       7.4328561085    -0.8717523262     0.8371102329
   59      C       5.2592346346    -1.4632235524    -0.8920709251
   60      C       6.2260316422    -0.3824647955     1.0262911511
   61      C       5.0314808786    -0.7015693421     0.3067935754
   62      C       3.6497274088    -0.2400265006     0.6858167333
   63      C       2.4438278826    -0.9588982716     0.3990908896
   64      C       3.4339356603     1.0293747255     1.3600128831
   65      N       1.2334795370    -0.4878406395     0.8102971511
   66      N       4.4088934638     1.9232578849     1.7075904698
   67      C       2.1432477912     1.5418599105     1.6704653912
   68      C       1.0164170454     0.7460502752     1.3624629645
   69      S       3.6868766194     3.2286796536     2.3548112067
   70      N       2.1405536775     2.7293096976     2.1616687552
   71      C      -0.4221142970     0.9647640414     1.7541476149
   72      S      -1.5973492115    -0.3023376936     1.9887581194
   73      C      -1.0676967183     2.1716939950     1.8603663727
   74      C      -2.9525146784     0.8629569029     2.0506779103
   75      S      -0.4756691518     3.7587204047     1.4857044783
   76      C      -2.4392439473     2.1410250155     2.0410833131
   77      C      -4.3351776074     0.4773706470     2.2080674400
   78      C      -2.0281115091     4.3866577616     1.9394482419
   79      C      -3.0025736037     3.4388456207     2.0265445780
   80      N      -5.2448632596     1.4528678478     2.1399922954
   81      S      -4.8984721462    -1.1273930661     2.2693592637
   82      C      -6.4917139539     0.9110650829     2.3094830328
   83      C      -6.5027324205    -0.4048643342     2.4289374697
   84      C       9.0857410822    -1.8311114866    -0.6161943687
   85      H       6.7681474409    -2.3613565558    -2.1198841240
   86      H       4.4311767534    -1.7118537769    -1.5493403955
   87      H       6.1891812491     0.1640954059     1.9668138753
   88      H       2.4066553320    -1.8823840174    -0.1765733171
   89      H      -2.2080483868     5.4371049396     1.7535841885
   90      H      -4.0651616814     3.5825011837     2.1843661748
   91      H      -7.3798619446     1.5199454863     2.4133184840
   92      H      -7.3879167723    -1.0269342202     2.4720967148
   93      H       9.1746357948    -2.0667875105    -1.6839783084
   94      C       9.7827087218    -2.9953222316     0.2151548062
   95      H       9.7708798720    -0.9833400803    -0.4883840351
   96      H       9.6499415584    -2.8360325338     1.2929055531
   97      H      10.8709460304    -2.9363344394     0.0827652278
   98      C       9.2430759538    -4.4343786923    -0.1673396104
   99      H       8.1886921576    -4.4313606982     0.1369837406
  100      C       9.9469174573    -5.5151013277     0.6835668024
  101      H       9.3589232054    -4.5951815843    -1.2462848566
  102      H      10.0038917544    -5.1858184355     1.7289680202
  103      H      10.9772771040    -5.4510243250     0.3122352306
  104      C       9.4893558695    -7.0139874022     0.5404167793
  105      H       9.5428754803    -7.3645196976    -0.4986158290
  106      C       8.0501533559    -7.3452405447     1.0832634248
  107      H      10.1655987137    -7.5881089509     1.1856981620
  108      H       7.8107799229    -8.4117168645     0.9936552837
  109      H       7.2171904730    -6.8174223368     0.6018625782
  110      H       7.9446997484    -7.0976402043     2.1469713773
 ----------------------------------------------------------------

   10   -5663.5113470961      4.16E-06 Convergence criterion met
 Total energy in the final basis set = -5663.5113470961

                    Orbital Energies (a.u.)
 --------------------------------------------------------------

 Alpha MOs
 -- Occupied --
-88.987 -88.986 -88.932 -88.921 -88.921 -88.920 -88.905 -88.901
-14.379 -14.377 -14.374 -14.371 -14.348 -14.346 -14.341 -14.333
-14.329 -14.326 -10.272 -10.265 -10.259 -10.259 -10.254 -10.252
-10.247 -10.246 -10.246 -10.239 -10.238 -10.236 -10.236 -10.235
-10.234 -10.232 -10.232 -10.227 -10.227 -10.226 -10.224 -10.224
-10.223 -10.222 -10.221 -10.219 -10.218 -10.216 -10.216 -10.215
-10.215 -10.211 -10.208 -10.203 -10.200 -10.199 -10.196 -10.189
-10.189 -10.186 -10.186 -10.179 -10.179 -10.177 -10.173 -10.172
-10.169 -10.168 -10.165 -10.163  -8.042  -8.042  -7.993  -7.982
 -7.980  -7.978  -7.965  -7.962  -6.007  -6.007  -6.001  -6.001
 -6.000  -5.999  -5.956  -5.954  -5.950  -5.946  -5.945  -5.943
 -5.942  -5.941  -5.939  -5.939  -5.937  -5.935  -5.929  -5.927
 -5.925  -5.923  -5.921  -5.918  -1.040  -1.029  -0.966  -0.965
 -0.958  -0.945  -0.942  -0.916  -0.915  -0.910  -0.904  -0.889
 -0.847  -0.841  -0.825  -0.823  -0.811  -0.809  -0.805  -0.801
 -0.800  -0.799  -0.795  -0.790  -0.780  -0.777  -0.765  -0.761
 -0.747  -0.742  -0.738  -0.734  -0.723  -0.723  -0.709  -0.707
 -0.692  -0.687  -0.675  -0.671  -0.652  -0.646  -0.643  -0.638
 -0.631  -0.629  -0.624  -0.615  -0.614  -0.605  -0.594  -0.591
 -0.589  -0.583  -0.581  -0.579  -0.578  -0.570  -0.567  -0.562
 -0.549  -0.546  -0.538  -0.536  -0.523  -0.519  -0.511  -0.508
 -0.505  -0.501  -0.499  -0.495  -0.480  -0.479  -0.475  -0.475
 -0.471  -0.470  -0.469  -0.467  -0.458  -0.457  -0.448  -0.446
 -0.441  -0.437  -0.435  -0.434  -0.430  -0.429  -0.428  -0.425
 -0.424  -0.420  -0.419  -0.418  -0.417  -0.415  -0.414  -0.413
 -0.411  -0.407  -0.407  -0.403  -0.400  -0.399  -0.396  -0.392
 -0.391  -0.390  -0.387  -0.386  -0.385  -0.383  -0.381  -0.379
 -0.378  -0.375  -0.371  -0.364  -0.361  -0.361  -0.356  -0.353
 -0.353  -0.346  -0.345  -0.344  -0.342  -0.342  -0.338  -0.336
 -0.334  -0.332  -0.330  -0.327  -0.327  -0.326  -0.324  -0.315
 -0.308  -0.307  -0.306  -0.304  -0.302  -0.300  -0.298  -0.296
 -0.295  -0.294  -0.293  -0.290  -0.286  -0.278  -0.276  -0.274
 -0.270  -0.269  -0.267  -0.262  -0.254  -0.249  -0.247  -0.242
 -0.241  -0.240  -0.230  -0.225  -0.193  -0.182

          Ground-State Mulliken Net Atomic Charges

     Atom                 Charge (a.u.)
  ----------------------------------------
      1 C                     0.273075
      2 C                    -0.113536
      3 N                    -0.500416
      4 C                    -0.096430
      5 C                     0.085378
      6 C                     0.019325
      7 C                     0.057805
      8 C                     0.099511
      9 C                     0.217886
     10 N                    -0.507500
     11 N                    -0.567593
     12 C                     0.209784
     13 C                     0.268645
     14 S                     0.631834
     15 N                    -0.566465
     16 C                    -0.183992
     17 S                     0.315392
     18 C                    -0.144403
     19 C                    -0.255454
     20 S                     0.275843
     21 C                     0.188868
     22 C                     0.067581
     23 C                    -0.310150
     24 C                    -0.055019
     25 N                    -0.443677
     26 S                     0.272726
     27 C                     0.119624
     28 C                    -0.307298
     29 C                    -0.254085
     30 H                     0.083986
     31 H                     0.102073
     32 H                     0.140757
     33 H                     0.102082
     34 H                     0.133026
     35 H                     0.122975
     36 H                     0.116920
     37 H                     0.125387
     38 H                     0.103512
     39 C                    -0.191143
     40 H                     0.121568
     41 H                     0.087875
     42 H                     0.122581
     43 C                    -0.172392
     44 H                     0.085929
     45 C                    -0.171496
     46 H                     0.088931
     47 H                     0.093187
     48 H                     0.106682
     49 C                    -0.183822
     50 H                     0.083789
     51 C                    -0.316480
     52 H                     0.087235
     53 H                     0.104720
     54 H                     0.112311
     55 H                     0.090549
     56 C                     0.271128
     57 C                    -0.121026
     58 N                    -0.464734
     59 C                    -0.076922
     60 C                     0.091746
     61 C                     0.030508
     62 C                     0.036712
     63 C                     0.064869
     64 C                     0.232611
     65 N                    -0.530349
     66 N                    -0.567066
     67 C                     0.268178
     68 C                     0.284262
     69 S                     0.605675
     70 N                    -0.576404
     71 C                    -0.212019
     72 S                     0.316505
     73 C                    -0.132228
     74 C                    -0.268712
     75 S                     0.286885
     76 C                     0.185982
     77 C                     0.073778
     78 C                    -0.302331
     79 C                    -0.073210
     80 N                    -0.452644
     81 S                     0.292777
     82 C                     0.152603
     83 C                    -0.311444
     84 C                    -0.234174
     85 H                     0.090286
     86 H                     0.100467
     87 H                     0.111191
     88 H                     0.116646
     89 H                     0.121132
     90 H                     0.128627
     91 H                     0.112232
     92 H                     0.128968
     93 H                     0.088030
     94 C                    -0.189288
     95 H                     0.125135
     96 H                     0.114309
     97 H                     0.090348
     98 C                    -0.174873
     99 H                     0.100042
    100 C                    -0.176174
    101 H                     0.087194
    102 H                     0.092682
    103 H                     0.088820
    104 C                    -0.176711
    105 H                     0.094685
    106 C                    -0.324557
    107 H                     0.098664
    108 H                     0.099588
    109 H                     0.101982
    110 H                     0.101620
  ----------------------------------------
  Sum of atomic charges =     0.000000

                    Cartesian Multipole Moments
 -----------------------------------------------------------------
    Charge (ESU x 10^10)
                 0.0000
    Dipole Moment (Debye)
         X      -2.6273      Y      -1.6455      Z      -1.2643
       Tot       3.3479
    Quadrupole Moments (Debye-Ang)
        XX    -392.9058     XY      -5.6872     YY    -432.1959
        XZ     -12.1492     YZ       6.0588     ZZ    -447.1332

 Total job time:  127.23s(wall), 1365.71s(cpu)
        *  Thank you very much for using Q-Chem.  Have a nice day.  *
