 Q-Chem 4.4, Q-Chem, Inc., Pleasanton, CA (2016)
 Q-Chem 4.4.2 for Intel X86 Linux

User input:
--------------------------------------------------------------
$comment
SP
$end

$rem
MEM_STATIC 5000
MEM_TOTAL 20000
JOBTYPE SP
EXCHANGE B3LYP
BASIS 6-31g(d,p)
$end

$molecule
0 1
C          -6.928000    -18.149000     -5.559000
C          -6.845000    -17.050000     -4.727000
N          -7.810000    -19.113000     -5.334000
C          -7.795000    -16.828000     -3.735000
C          -8.809000    -18.939000     -4.418000
C          -8.815000    -17.812000     -3.543000
C          -9.776000    -17.633000     -2.419000
C          -9.398000    -17.091000     -1.160000
C         -11.156000    -17.925000     -2.511000
N         -10.169000    -16.971000     -0.104000
N         -11.788000    -18.330000     -3.634000
C         -11.983000    -17.736000     -1.370000
C         -11.425000    -17.314000     -0.184000
S         -13.389000    -18.446000     -3.203000
N         -13.268000    -18.100000     -1.577000
C         -12.149000    -17.404000      1.088000
S         -13.704000    -18.237000      1.437000
C         -11.599000    -16.969000      2.275000
C         -13.561000    -18.106000      3.169000
S         -10.203000    -15.921000      2.615000
C         -12.454000    -17.323000      3.363000
C         -14.669000    -18.077000      4.093000
C         -10.734000    -16.031000      4.365000
C         -11.949000    -16.781000      4.503000
N         -15.851000    -18.036000      3.541000
S         -14.745000    -18.172000      5.832000
C         -16.889000    -18.028000      4.469000
C         -16.492000    -18.125000      5.777000
C          -5.977000    -18.319000     -6.828000
H          -6.132000    -16.289000     -5.030000
H          -7.656000    -15.939000     -3.127000
H          -9.523000    -19.761000     -4.398000
H          -8.372000    -16.787000     -0.957000
H         -10.044000    -15.663000      5.112000
H         -12.386000    -16.884000      5.490000
H         -17.885000    -18.015000      4.046000
H         -17.103000    -18.086000      6.669000
H          -6.590000    -18.827000     -7.584000
C          -4.851000    -19.347000     -6.647000
H          -5.698000    -17.372000     -7.305000
H          -4.187000    -18.956000     -5.865000
H          -4.191000    -19.327000     -7.523000
C          -5.255000    -20.833000     -6.265000
H          -4.320000    -21.406000     -6.242000
C          -6.205000    -21.545000     -7.298000
H          -5.681000    -20.857000     -5.254000
H          -5.705000    -21.546000     -8.274000
H          -7.132000    -20.974000     -7.435000
C          -6.287000    -23.077000     -6.818000
H          -5.317000    -23.473000     -6.490000
C          -6.940000    -23.949000     -7.872000
H          -6.912000    -23.259000     -5.935000
H          -6.417000    -23.887000     -8.835000
H          -7.978000    -23.660000     -8.077000
H          -6.871000    -24.968000     -7.471000
C         -10.221000    -20.019000     10.752000
C         -11.272000    -19.565000     10.021000
N          -8.999000    -20.253000     10.193000
C         -11.171000    -19.631000      8.621000
C          -8.799000    -20.148000      8.884000
C          -9.901000    -19.839000      8.001000
C          -9.791000    -19.774000      6.507000
C          -8.692000    -19.171000      5.925000
C         -10.815000    -20.182000      5.613000
N          -8.405000    -19.099000      4.605000
N         -11.982000    -20.703000      6.046000
C         -10.558000    -20.153000      4.262000
C          -9.375000    -19.617000      3.744000
S         -12.668000    -21.249000      4.631000
N         -11.537000    -20.713000      3.554000
C          -9.084000    -19.680000      2.280000
S          -9.948000    -20.682000      1.096000
C          -7.969000    -19.107000      1.680000
C          -8.715000    -20.348000     -0.132000
S          -6.875000    -17.888000      2.288000
C          -7.768000    -19.461000      0.314000
C          -8.488000    -21.133000     -1.338000
C          -6.144000    -17.906000      0.635000
C          -6.687000    -18.794000     -0.266000
N          -9.435000    -22.048000     -1.574000
S          -6.960000    -21.334000     -2.182000
C          -8.979000    -22.948000     -2.485000
C          -7.645000    -22.752000     -2.889000
C         -10.257000    -20.138000     12.219000
H         -12.272000    -19.408000     10.412000
H         -12.054000    -19.343000      8.058000
H          -7.764000    -20.317000      8.592000
H          -7.893000    -18.752000      6.535000
H          -5.287000    -17.292000      0.396000
H          -6.342000    -18.903000     -1.288000
H          -9.586000    -23.777000     -2.823000
H          -7.008000    -23.385000     -3.493000
H          -9.251000    -20.016000     12.640000
C         -10.825000    -21.465000     12.632000
H         -10.878000    -19.379000     12.711000
H         -10.186000    -22.262000     12.233000
H         -11.711000    -21.749000     12.050000
C         -11.096000    -21.572000     14.162000
H         -11.448000    -22.565000     14.470000
C         -12.069000    -20.497000     14.700000
H         -10.130000    -21.457000     14.670000
H         -12.858000    -20.366000     13.949000
H         -11.469000    -19.581000     14.763000
C         -12.813000    -20.798000     15.961000
H         -13.487000    -21.659000     15.867000
C         -13.695000    -19.655000     16.483000
H         -12.088000    -21.022000     16.753000
H         -13.088000    -18.742000     16.505000
H         -14.152000    -19.946000     17.437000
H         -14.470000    -19.471000     15.729000
$end

--------------------------------------------------------------

             Standard Nuclear Orientation (Angstroms)
    I     Atom           X                Y                Z
 ----------------------------------------------------------------
    1      C      -8.2924247222    -0.5010727033    -1.5074906325
    2      C      -7.5127956191    -0.3106948585    -2.6312560608
    3      N      -7.8382556445    -0.1969465323    -0.2995656675
    4      C      -6.3006635884     0.3682914711    -2.5566805668
    5      C      -6.6860900916     0.5229943308    -0.1528254472
    6      C      -5.8409711118     0.7922845129    -1.2704330294
    7      C      -4.4988232524     1.4302315565    -1.1674733617
    8      C      -3.3884023495     1.0222752921    -1.9563118146
    9      C      -4.2145434637     2.5314753116    -0.3280835872
   10      N      -2.1631522796     1.4862520510    -1.8699125484
   11      N      -5.1252192830     3.1856300633     0.4251289412
   12      C      -2.8922511356     3.0527178925    -0.2909329330
   13      C      -1.9008968706     2.4548275860    -1.0364447725
   14      S      -4.2774948658     4.4259857296     1.1359728998
   15      N      -2.7444441598     4.0687884722     0.5878865450
   16      C      -0.4806038268     2.7357013815    -0.8037699338
   17      S       0.2750440122     3.6515848158     0.5467369630
   18      C       0.5138888594     2.1500587057    -1.5578925721
   19      C       1.9039899428     3.1579200594     0.1722182538
   20      S       0.4647759751     1.2951137903    -3.1165384960
   21      C       1.7922012997     2.4781031235    -1.0116424783
   22      C       3.0931895964     3.9093173514     0.4939126637
   23      C       2.2930598187     1.2820908663    -2.9991945970
   24      C       2.7537155815     1.9886422070    -1.8388711631
   25      N       2.8813890631     5.0922039141     1.0032543112
   26      S       4.7878712288     3.5088225441     0.4127950079
   27      C       4.0554922727     5.7726963762     1.3148689167
   28      C       5.2073328560     5.0648030505     1.0911898832
   29      C      -9.7714588987    -1.0909299540    -1.5979800158
   30      H      -7.9965599856    -0.5346182016    -3.5773688312
   31      H      -5.7520354445     0.4756065418    -3.4876997048
   32      H      -6.4745728437     0.7912732455     0.8811798128
   33      H      -3.4700878926     0.2074275049    -2.6744006363
   34      H       2.8260229974     0.6538671298    -3.6997787726
   35      H       3.8220107208     2.0837499719    -1.6793499783
   36      H       3.9175674186     6.7499609453     1.7587660857
   37      H       6.2313514057     5.3951505087     1.2041614139
   38      H     -10.3340420418    -0.5870598687    -0.8011210921
   39      C      -9.9026514498    -2.5531950584    -1.1485467291
   40      H     -10.3052138181    -0.8149643583    -2.5151101461
   41      H      -9.3289396678    -3.1575736858    -1.8633070148
   42      H     -10.9244579478    -2.9051142534    -1.3368028332
   43      C      -9.4270804763    -2.9258252464     0.3185302941
   44      H      -9.6583037462    -3.9896662884     0.4521754845
   45      C     -10.1654221739    -2.1469696850     1.4695161984
   46      H      -8.3385772057    -2.8126398029     0.3992934383
   47      H     -11.2402620255    -2.3438456002     1.3771248157
   48      H     -10.0461175546    -1.0629983806     1.3474030577
   49      C      -9.6826109454    -2.8437909665     2.8353424755
   50      H      -9.6294876176    -3.9377515704     2.7596582023
   51      C     -10.5216302716    -2.3865733197     4.0120784670
   52      H      -8.6636853763    -2.5928876024     3.1551489584
   53      H     -11.5901123746    -2.5799273485     3.8517593627
   54      H     -10.4380522967    -1.3089478324     4.1984330515
   55      H     -10.1552089906    -2.9777676483     4.8606936392
   56      C       8.2995861702    -2.4246105553    -0.3265390338
   57      C       7.8804316703    -1.1366146757    -0.2242936452
   58      N       7.4307682413    -3.4519123070    -0.5508769870
   59      C       6.5052072879    -0.9093991309    -0.0462824260
   60      C       6.1165511213    -3.2606704940    -0.5785524338
   61      C       5.5647080683    -1.9525355379    -0.3068426965
   62      C       4.0966782447    -1.6544839814    -0.2403994367
   63      C       3.2397839089    -2.2135015279    -1.1695740597
   64      C       3.5124615252    -0.7161182413     0.6497896233
   65      N       1.8914208861    -2.1093984679    -1.2017098924
   66      N       4.2443716050    -0.0264814184     1.5495271892
   67      C       2.1423232854    -0.5965296440     0.6723898669
   68      C       1.3242676663    -1.2728994584    -0.2377847748
   69      S       3.0670371222     0.6864523013     2.4857675572
   70      N       1.7248638565     0.1924627202     1.6605819911
   71      C      -0.1639435633    -1.1943054372    -0.1329214543
   72      S      -1.0711943704    -0.5765305644     1.2626451616
   73      C      -1.0425226245    -1.7755938759    -1.0394293607
   74      C      -2.5865178768    -1.2081741278     0.5958242863
   75      S      -0.7517958083    -2.3604339906    -2.6598925533
   76      C      -2.4123306760    -1.7661711229    -0.6454622126
   77      C      -3.8097325177    -1.4436738786     1.3511227768
   78      C      -2.5408941088    -2.5998551376    -2.7542259280
   79      C      -3.2623706576    -2.2828129297    -1.6254434742
   80      N      -3.7817690761    -0.9490576401     2.5938225888
   81      S      -5.0356412492    -2.6537656260     1.0042124930
   82      C      -4.7830021532    -1.5053023897     3.3259298923
   83      C      -5.5324614097    -2.4856102925     2.6488071276
   84      C       9.7215608148    -2.8034661946    -0.3712885003
   85      H       8.5274068980    -0.2942966729    -0.0019123579
   86      H       6.2022093260     0.1204951617     0.1183747364
   87      H       5.5554130691    -4.1628613946    -0.8156719508
   88      H       3.6114272330    -2.8814710735    -1.9453059243
   89      H      -3.0021203664    -3.0273951870    -3.6334561853
   90      H      -4.3396913541    -2.3791896898    -1.5514053968
   91      H      -4.9450880279    -1.2454699997     4.3633060528
   92      H      -6.2868119994    -3.1614858034     3.0301488136
   93      H       9.8549867995    -3.7316251132    -0.9412705425
   94      C      10.2714743821    -2.9732464500     1.0153952176
   95      H      10.3638788969    -2.0605651922    -0.8604833306
   96      H       9.7137884267    -3.7707748762     1.5210292596
   97      H       9.9504423359    -2.1789900778     1.7013042790
   98      C      11.8176550752    -3.1576471840     1.0487363862
   99      H      12.2083989140    -3.3480898464     2.0566390822
  100      C      12.5997417027    -1.9850562635     0.4122074863
  101      H      12.0456491425    -4.0752497902     0.4915387890
  102      H      12.0901783189    -1.0576616524     0.7019787636
  103      H      12.4990478722    -2.1344144005    -0.6697249975
  104      C      14.0146482583    -1.7736603979     0.8453462943
  105      H      14.1055586762    -1.5288524595     1.9112906499
  106      C      14.7567913181    -0.6475766931     0.1118504398
  107      H      14.5808993455    -2.6948251860     0.6612807103
  108      H      14.6147290814    -0.7942566292    -0.9655563159
  109      H      15.7985416821    -0.6067852634     0.4535202196
  110      H      14.2406054895     0.2908597842     0.3482529958
 ----------------------------------------------------------------

   10   -5663.5040844955      3.38E-06 Convergence criterion met
 Total energy in the final basis set = -5663.5040844955

                    Orbital Energies (a.u.)
 --------------------------------------------------------------

 Alpha MOs
 -- Occupied --
-88.985 -88.983 -88.930 -88.927 -88.921 -88.916 -88.915 -88.911
-14.388 -14.384 -14.382 -14.380 -14.349 -14.346 -14.342 -14.334
-14.331 -14.322 -10.267 -10.266 -10.261 -10.254 -10.254 -10.249
-10.248 -10.246 -10.238 -10.236 -10.236 -10.235 -10.235 -10.232
-10.231 -10.230 -10.230 -10.230 -10.230 -10.230 -10.229 -10.228
-10.228 -10.228 -10.226 -10.225 -10.225 -10.220 -10.218 -10.216
-10.215 -10.205 -10.205 -10.204 -10.202 -10.199 -10.198 -10.191
-10.191 -10.184 -10.180 -10.179 -10.179 -10.178 -10.177 -10.176
-10.176 -10.175 -10.173 -10.168  -8.040  -8.038  -7.991  -7.987
 -7.979  -7.974  -7.973  -7.969  -6.005  -6.003  -6.000  -5.998
 -5.998  -5.996  -5.955  -5.952  -5.951  -5.948  -5.948  -5.944
 -5.943  -5.940  -5.939  -5.938  -5.935  -5.935  -5.934  -5.933
 -5.931  -5.930  -5.930  -5.925  -1.033  -1.026  -0.976  -0.968
 -0.967  -0.944  -0.941  -0.935  -0.909  -0.908  -0.902  -0.899
 -0.840  -0.833  -0.831  -0.825  -0.813  -0.810  -0.809  -0.802
 -0.801  -0.798  -0.796  -0.793  -0.789  -0.779  -0.768  -0.766
 -0.750  -0.744  -0.742  -0.741  -0.720  -0.715  -0.710  -0.705
 -0.693  -0.692  -0.677  -0.671  -0.654  -0.653  -0.644  -0.639
 -0.636  -0.633  -0.627  -0.620  -0.613  -0.606  -0.600  -0.599
 -0.594  -0.591  -0.587  -0.584  -0.578  -0.573  -0.563  -0.562
 -0.543  -0.542  -0.540  -0.535  -0.521  -0.519  -0.515  -0.514
 -0.508  -0.505  -0.497  -0.497  -0.488  -0.485  -0.479  -0.476
 -0.472  -0.469  -0.468  -0.466  -0.465  -0.460  -0.448  -0.446
 -0.442  -0.441  -0.438  -0.436  -0.434  -0.434  -0.431  -0.430
 -0.428  -0.425  -0.424  -0.422  -0.417  -0.414  -0.413  -0.413
 -0.411  -0.407  -0.404  -0.401  -0.399  -0.396  -0.395  -0.393
 -0.392  -0.391  -0.390  -0.388  -0.386  -0.385  -0.383  -0.382
 -0.378  -0.376  -0.375  -0.370  -0.364  -0.362  -0.357  -0.352
 -0.351  -0.348  -0.346  -0.346  -0.345  -0.344  -0.339  -0.339
 -0.337  -0.332  -0.330  -0.328  -0.326  -0.325  -0.323  -0.319
 -0.316  -0.311  -0.310  -0.310  -0.305  -0.301  -0.298  -0.296
 -0.294  -0.293  -0.290  -0.287  -0.286  -0.284  -0.279  -0.278
 -0.276  -0.274  -0.268  -0.265  -0.254  -0.252  -0.250  -0.245
 -0.242  -0.240  -0.229  -0.224  -0.195  -0.189

          Ground-State Mulliken Net Atomic Charges

     Atom                 Charge (a.u.)
  ----------------------------------------
      1 C                     0.276372
      2 C                    -0.119434
      3 N                    -0.477671
      4 C                    -0.075101
      5 C                     0.091593
      6 C                     0.007846
      7 C                     0.036060
      8 C                     0.054389
      9 C                     0.238924
     10 N                    -0.519055
     11 N                    -0.564037
     12 C                     0.229597
     13 C                     0.325213
     14 S                     0.601488
     15 N                    -0.570835
     16 C                    -0.224626
     17 S                     0.360667
     18 C                    -0.101334
     19 C                    -0.219789
     20 S                     0.289851
     21 C                     0.143990
     22 C                     0.060556
     23 C                    -0.306769
     24 C                    -0.115923
     25 N                    -0.420081
     26 S                     0.262036
     27 C                     0.115896
     28 C                    -0.319002
     29 C                    -0.227543
     30 H                     0.087004
     31 H                     0.106395
     32 H                     0.131101
     33 H                     0.109577
     34 H                     0.133304
     35 H                     0.100988
     36 H                     0.116975
     37 H                     0.140043
     38 H                     0.118758
     39 C                    -0.189148
     40 H                     0.097331
     41 H                     0.083530
     42 H                     0.091804
     43 C                    -0.176726
     44 H                     0.086189
     45 C                    -0.171147
     46 H                     0.110060
     47 H                     0.085982
     48 H                     0.118930
     49 C                    -0.186004
     50 H                     0.089810
     51 C                    -0.313505
     52 H                     0.094024
     53 H                     0.097904
     54 H                     0.107072
     55 H                     0.091420
     56 C                     0.269841
     57 C                    -0.116516
     58 N                    -0.475893
     59 C                    -0.062947
     60 C                     0.079135
     61 C                     0.001484
     62 C                     0.049115
     63 C                     0.047983
     64 C                     0.221974
     65 N                    -0.528311
     66 N                    -0.575825
     67 C                     0.264239
     68 C                     0.302862
     69 S                     0.601629
     70 N                    -0.576668
     71 C                    -0.224135
     72 S                     0.370149
     73 C                    -0.106607
     74 C                    -0.237464
     75 S                     0.301108
     76 C                     0.150001
     77 C                     0.041549
     78 C                    -0.313681
     79 C                    -0.087519
     80 N                    -0.427828
     81 S                     0.300499
     82 C                     0.119915
     83 C                    -0.320170
     84 C                    -0.216772
     85 H                     0.089471
     86 H                     0.117467
     87 H                     0.107460
     88 H                     0.107009
     89 H                     0.119573
     90 H                     0.125860
     91 H                     0.116101
     92 H                     0.139760
     93 H                     0.115688
     94 C                    -0.187659
     95 H                     0.102121
     96 H                     0.102803
     97 H                     0.090285
     98 C                    -0.185112
     99 H                     0.089136
    100 C                    -0.161849
    101 H                     0.094003
    102 H                     0.087037
    103 H                     0.095069
    104 C                    -0.183813
    105 H                     0.092735
    106 C                    -0.312860
    107 H                     0.090169
    108 H                     0.101710
    109 H                     0.103464
    110 H                     0.098280
  ----------------------------------------
  Sum of atomic charges =     0.000000

                    Cartesian Multipole Moments
 -----------------------------------------------------------------
    Charge (ESU x 10^10)
                 0.0000
    Dipole Moment (Debye)
         X      -0.7576      Y       0.3440      Z      -1.1576
       Tot       1.4256
    Quadrupole Moments (Debye-Ang)
        XX    -406.3357     XY      29.8828     YY    -447.1209
        XZ      15.1610     YZ       6.5058     ZZ    -431.3205

 Total job time:  116.14s(wall), 1260.80s(cpu)
        *  Thank you very much for using Q-Chem.  Have a nice day.  *
