 Q-Chem 4.4, Q-Chem, Inc., Pleasanton, CA (2016)
 Q-Chem 4.4.2 for Intel X86 Linux

User input:
--------------------------------------------------------------
$comment
SP
$end

$rem
MEM_STATIC 5000
MEM_TOTAL 20000
JOBTYPE SP
EXCHANGE B3LYP
BASIS 6-31g(d,p)
$end

$molecule
0 1
C          -3.804000    -19.633000      2.610000
C          -3.612000    -19.827000      1.235000
N          -3.437000    -18.484000      3.145000
C          -3.099000    -18.769000      0.473000
C          -2.935000    -17.485000      2.426000
C          -2.783000    -17.489000      1.008000
C          -2.206000    -16.345000      0.274000
C          -1.167000    -16.573000     -0.672000
C          -2.579000    -14.994000      0.405000
N          -0.549000    -15.554000     -1.340000
N          -3.457000    -14.532000      1.251000
C          -1.951000    -13.963000     -0.292000
C          -0.841000    -14.259000     -1.147000
S          -3.711000    -12.939000      0.958000
N          -2.470000    -12.734000     -0.003000
C           0.056000    -13.256000     -1.809000
S          -0.007000    -11.479000     -1.647000
C           1.309000    -13.543000     -2.272000
C           1.644000    -11.189000     -1.958000
S           2.046000    -15.056000     -2.505000
C           2.216000    -12.419000     -2.283000
C           2.292000     -9.980000     -1.603000
C           3.617000    -14.197000     -2.581000
C           3.573000    -12.876000     -2.509000
N           3.272000     -9.501000     -2.336000
S           1.976000     -9.125000     -0.052000
C           3.806000     -8.354000     -1.777000
C           3.199000     -7.923000     -0.563000
C          -4.525000    -20.621000      3.574000
H          -3.794000    -20.805000      0.800000
H          -2.985000    -18.975000     -0.587000
H          -2.542000    -16.645000      2.996000
H          -0.850000    -17.570000     -0.975000
H           4.493000    -14.776000     -2.841000
H           4.407000    -12.201000     -2.668000
H           4.536000     -7.898000     -2.432000
H           3.360000     -7.011000     -0.004000
H          -3.726000    -21.093000      4.159000
C          -5.763000    -21.512000      3.112000
H          -5.009000    -19.936000      4.281000
H          -5.346000    -22.199000      2.364000
H          -6.459000    -20.793000      2.664000
C          -6.407000    -22.316000      4.241000
H          -5.740000    -23.049000      4.712000
C          -7.676000    -23.095000      3.723000
H          -6.742000    -21.633000      5.031000
H          -7.341000    -24.060000      3.323000
H          -8.171000    -22.436000      2.999000
C          -8.770000    -23.264000      4.818000
H          -8.422000    -23.716000      5.755000
C         -10.015000    -24.036000      4.269000
H          -9.061000    -22.275000      5.193000
H         -10.926000    -23.906000      4.867000
H          -9.864000    -25.096000      4.034000
H         -10.321000    -23.692000      3.273000
C         -10.221000    -20.019000     10.752000
C         -11.272000    -19.565000     10.021000
N          -8.999000    -20.253000     10.193000
C         -11.171000    -19.631000      8.621000
C          -8.799000    -20.148000      8.884000
C          -9.901000    -19.839000      8.001000
C          -9.791000    -19.774000      6.507000
C          -8.692000    -19.171000      5.925000
C         -10.815000    -20.182000      5.613000
N          -8.405000    -19.099000      4.605000
N         -11.982000    -20.703000      6.046000
C         -10.558000    -20.153000      4.262000
C          -9.375000    -19.617000      3.744000
S         -12.668000    -21.249000      4.631000
N         -11.537000    -20.713000      3.554000
C          -9.084000    -19.680000      2.280000
S          -9.948000    -20.682000      1.096000
C          -7.969000    -19.107000      1.680000
C          -8.715000    -20.348000     -0.132000
S          -6.875000    -17.888000      2.288000
C          -7.768000    -19.461000      0.314000
C          -8.488000    -21.133000     -1.338000
C          -6.144000    -17.906000      0.635000
C          -6.687000    -18.794000     -0.266000
N          -9.435000    -22.048000     -1.574000
S          -6.960000    -21.334000     -2.182000
C          -8.979000    -22.948000     -2.485000
C          -7.645000    -22.752000     -2.889000
C         -10.257000    -20.138000     12.219000
H         -12.272000    -19.408000     10.412000
H         -12.054000    -19.343000      8.058000
H          -7.764000    -20.317000      8.592000
H          -7.893000    -18.752000      6.535000
H          -5.287000    -17.292000      0.396000
H          -6.342000    -18.903000     -1.288000
H          -9.586000    -23.777000     -2.823000
H          -7.008000    -23.385000     -3.493000
H          -9.251000    -20.016000     12.640000
C         -10.825000    -21.465000     12.632000
H         -10.878000    -19.379000     12.711000
H         -10.186000    -22.262000     12.233000
H         -11.711000    -21.749000     12.050000
C         -11.096000    -21.572000     14.162000
H         -11.448000    -22.565000     14.470000
C         -12.069000    -20.497000     14.700000
H         -10.130000    -21.457000     14.670000
H         -12.858000    -20.366000     13.949000
H         -11.469000    -19.581000     14.763000
C         -12.813000    -20.798000     15.961000
H         -13.487000    -21.659000     15.867000
C         -13.695000    -19.655000     16.483000
H         -12.088000    -21.022000     16.753000
H         -13.088000    -18.742000     16.505000
H         -14.152000    -19.946000     17.437000
H         -14.470000    -19.471000     15.729000
$end

--------------------------------------------------------------

             Standard Nuclear Orientation (Angstroms)
    I     Atom           X                Y                Z
 ----------------------------------------------------------------
    1      C      -0.3940232898    -0.7370444631    -2.4449082649
    2      C      -1.2176150257    -1.8662518848    -2.3366851098
    3      N      -0.8804767192     0.4379381086    -2.0929224454
    4      C      -2.5015394974    -1.7114607333    -1.7974684091
    5      C      -2.1042281649     0.5888523441    -1.5963106323
    6      C      -3.0166569480    -0.4727059889    -1.3235256960
    7      C      -4.3682060020    -0.2302339569    -0.7804387156
    8      C      -5.4931262397    -0.8375337532    -1.4066674408
    9      C      -4.6904730624     0.5666858213     0.3342602613
   10      N      -6.7743745146    -0.6067580450    -0.9923554442
   11      N      -3.8418510899     1.2730148457     1.0277904026
   12      C      -6.0007407355     0.7845060375     0.7572342300
   13      C      -7.0882234155     0.2255297381     0.0118028667
   14      S      -4.6021005719     1.9125929667     2.3320045539
   15      N      -6.0769490710     1.5963070159     1.8519919480
   16      C      -8.5440336011     0.5207506065     0.2175292438
   17      S      -9.2583676632     1.6669469302     1.3853917508
   18      C      -9.5061650603     0.3056901213    -0.7284089376
   19      C     -10.6738875548     2.0046444042     0.4971992872
   20      S      -9.4071879392    -0.5744238555    -2.1783158027
   21      C     -10.6531133088     1.1775458559    -0.6258258338
   22      C     -11.4792189070     3.1450173002     0.7392758681
   23      C     -10.9066097239     0.2571210620    -2.6998187861
   24      C     -11.4672953669     1.0724294670    -1.8205777415
   25      N     -12.7805760144     3.1002436939     0.5615260351
   26      S     -10.7880498326     4.7651915998     1.1050661765
   27      C     -13.3634331253     4.3340075654     0.7881320755
   28      C     -12.4692811861     5.3740744432     1.1712237086
   29      C       1.1106990814    -0.7462917094    -2.8461638869
   30      H      -0.8786278697    -2.8182952314    -2.7335908595
   31      H      -3.0868481245    -2.6233284136    -1.7271609086
   32      H      -2.4402512565     1.6171176163    -1.4750340400
   33      H      -5.4013981646    -1.5748986008    -2.2030254267
   34      H     -11.3619303399    -0.0646485533    -3.6268379074
   35      H     -12.4359847612     1.5498168193    -1.9215934495
   36      H     -14.4427160116     4.2742050240     0.7502756713
   37      H     -12.6916441267     6.3783372684     1.5061220522
   38      H       1.1400765007    -0.3710827829    -3.8765838152
   39      C       2.0952982047    -1.9301528015    -2.4350599086
   40      H       1.5108735823     0.0802196292    -2.2461060763
   41      H       1.7171489143    -2.8061488149    -2.9781953416
   42      H       1.9579193194    -2.0297914174    -1.3518793197
   43      C       3.5554824471    -1.6853600120    -2.8141792410
   44      H       3.7320382916    -1.5832819698    -3.8923383699
   45      C       4.4750737387    -2.8548939670    -2.2925776837
   46      H       3.9050660687    -0.7588884606    -2.3427391538
   47      H       4.4839051223    -3.6441675074    -3.0544302187
   48      H       4.0743384808    -3.1532208118    -1.3159025346
   49      C       5.9117510703    -2.3775277271    -1.9285698297
   50      H       6.4335357542    -1.8301224052    -2.7232176493
   51      C       6.7942496038    -3.5610114726    -1.4109091661
   52      H       5.8478360463    -1.5826908735    -1.1751932667
   53      H       7.6812561549    -3.2483495389    -0.8453237228
   54      H       7.0655373150    -4.3236567762    -2.1500986672
   55      H       6.2622913291    -4.2066430014    -0.7008610530
   56      C       8.7296438548     3.7458983733    -0.3758576709
   57      C       8.7928220604     3.1848065955     0.8595623109
   58      N       7.7077590549     3.4798094420    -1.2392632166
   59      C       7.9542791049     2.0883707741     1.1226805377
   60      C       6.7738134932     2.5780400551    -0.9580806055
   61      C       6.8530479401     1.8021551998     0.2590055023
   62      C       5.8920091716     0.7116460909     0.6271839493
   63      C       4.5388097371     0.8854935287     0.4063619422
   64      C       6.2556598508    -0.4716328924     1.3213633434
   65      N       3.5564348599    -0.0224745474     0.6075746987
   66      N       7.5294734615    -0.7297602475     1.6841141584
   67      C       5.2960172461    -1.4360961215     1.5238176615
   68      C       3.9556431854    -1.2310062884     1.1825779542
   69      S       7.4353769080    -2.3127940333     2.1901644244
   70      N       5.8090272351    -2.5530031067     2.0363062345
   71      C       2.9525364104    -2.3281171959     1.3311392364
   72      S       3.3272613943    -4.0425467638     1.6007100858
   73      C       1.5927036034    -2.1817272842     1.0842005175
   74      C       1.6429722324    -4.4921089639     1.2830737412
   75      S       0.6309131757    -0.7292948385     0.9505585932
   76      C       0.8447422978    -3.3950677692     1.0785655782
   77      C       1.1754256262    -5.8266337276     0.9328826135
   78      C      -0.7948646807    -1.8373262802     0.8698255256
   79      C      -0.5259159439    -3.1868035679     0.9119162250
   80      N       2.1074670163    -6.7775617755     1.0623611641
   81      S      -0.2292857031    -6.2181084734    -0.0474513116
   82      C       1.7116735633    -7.8942210412     0.3958203726
   83      C       0.4986727684    -7.7618448956    -0.3058160201
   84      C       9.6517629580     4.8023616851    -0.8243302233
   85      H       9.6074366969     3.3310384821     1.5613808268
   86      H       8.0813389128     1.6020406625     2.0854582004
   87      H       5.9984187183     2.5100630439    -1.7191272985
   88      H       4.1567501230     1.7997458632    -0.0455618568
   89      H      -1.7955875301    -1.4517035760     0.7341239829
   90      H      -1.2894937836    -3.9554560658     0.8730289482
   91      H       2.3178852710    -8.7896364434     0.3698853965
   92      H       0.0309109212    -8.4404366054    -1.0072332608
   93      H       9.1655005592     5.4484733079    -1.5661183672
   94      C      10.9006839811     4.2070702884    -1.4073794760
   95      H       9.9844377601     5.4717744378    -0.0212112766
   96      H      10.6275244501     3.5918931668    -2.2732154764
   97      H      11.2921802993     3.3716617727    -0.8130737932
   98      C      12.0095688268     5.2610333448    -1.6994860917
   99      H      12.8949406869     4.8328607254    -2.1869303216
  100      C      12.4518430715     6.0631207283    -0.4533531446
  101      H      11.6031607261     5.9604486289    -2.4411704693
  102      H      12.4835640482     5.3630815252     0.3908162068
  103      H      11.6510075926     6.7948214337    -0.2911754228
  104      C      13.8139036757     6.6786328694    -0.4672712806
  105      H      14.6199189674     5.9366954660    -0.5328551126
  106      C      14.1539556084     7.5305565598     0.7637639378
  107      H      13.8927226084     7.3402830189    -1.3385184646
  108      H      13.3263830754     8.2305265591     0.9301000517
  109      H      15.1442066022     7.9855411223     0.6371226448
  110      H      14.1493138079     6.8625798955     1.6336964809
 ----------------------------------------------------------------

    9   -5663.5090681632      8.03E-06 Convergence criterion met
 Total energy in the final basis set = -5663.5090681632

                    Orbital Energies (a.u.)
 --------------------------------------------------------------

 Alpha MOs
 -- Occupied --
-88.991 -88.987 -88.934 -88.930 -88.924 -88.920 -88.914 -88.909
-14.388 -14.385 -14.382 -14.370 -14.353 -14.351 -14.348 -14.345
-14.323 -14.322 -10.272 -10.272 -10.269 -10.265 -10.256 -10.252
-10.252 -10.250 -10.247 -10.243 -10.242 -10.241 -10.239 -10.238
-10.237 -10.233 -10.233 -10.232 -10.230 -10.229 -10.229 -10.229
-10.229 -10.226 -10.226 -10.220 -10.218 -10.218 -10.218 -10.217
-10.216 -10.213 -10.206 -10.206 -10.202 -10.197 -10.197 -10.191
-10.179 -10.179 -10.178 -10.178 -10.177 -10.176 -10.175 -10.175
-10.174 -10.174 -10.172 -10.169  -8.047  -8.042  -7.995  -7.990
 -7.981  -7.980  -7.972  -7.969  -6.012  -6.008  -6.006  -6.005
 -6.002  -6.000  -5.959  -5.955  -5.954  -5.952  -5.950  -5.947
 -5.946  -5.945  -5.942  -5.940  -5.938  -5.937  -5.937  -5.934
 -5.933  -5.930  -5.929  -5.925  -1.049  -1.037  -0.969  -0.966
 -0.956  -0.948  -0.944  -0.935  -0.915  -0.911  -0.906  -0.905
 -0.851  -0.840  -0.831  -0.828  -0.814  -0.813  -0.811  -0.805
 -0.799  -0.798  -0.794  -0.793  -0.790  -0.779  -0.769  -0.765
 -0.748  -0.746  -0.743  -0.742  -0.720  -0.719  -0.711  -0.711
 -0.693  -0.693  -0.677  -0.675  -0.655  -0.653  -0.645  -0.642
 -0.635  -0.634  -0.624  -0.622  -0.613  -0.607  -0.601  -0.599
 -0.595  -0.592  -0.586  -0.579  -0.579  -0.577  -0.567  -0.563
 -0.551  -0.543  -0.543  -0.538  -0.526  -0.523  -0.516  -0.514
 -0.506  -0.506  -0.504  -0.500  -0.487  -0.487  -0.482  -0.480
 -0.474  -0.471  -0.470  -0.468  -0.464  -0.462  -0.448  -0.448
 -0.443  -0.442  -0.441  -0.440  -0.434  -0.433  -0.431  -0.430
 -0.426  -0.425  -0.424  -0.423  -0.417  -0.416  -0.414  -0.413
 -0.411  -0.408  -0.406  -0.406  -0.401  -0.397  -0.396  -0.395
 -0.393  -0.392  -0.391  -0.388  -0.387  -0.386  -0.385  -0.385
 -0.377  -0.377  -0.377  -0.365  -0.364  -0.359  -0.357  -0.356
 -0.355  -0.354  -0.349  -0.348  -0.347  -0.345  -0.340  -0.339
 -0.338  -0.333  -0.330  -0.329  -0.327  -0.326  -0.323  -0.314
 -0.313  -0.309  -0.309  -0.304  -0.302  -0.301  -0.298  -0.298
 -0.297  -0.294  -0.294  -0.291  -0.289  -0.287  -0.285  -0.280
 -0.279  -0.274  -0.269  -0.264  -0.252  -0.252  -0.249  -0.246
 -0.242  -0.240  -0.232  -0.229  -0.203  -0.192

          Ground-State Mulliken Net Atomic Charges

     Atom                 Charge (a.u.)
  ----------------------------------------
      1 C                     0.265032
      2 C                    -0.100577
      3 N                    -0.464306
      4 C                    -0.104760
      5 C                     0.090383
      6 C                     0.018696
      7 C                     0.019855
      8 C                     0.062101
      9 C                     0.276303
     10 N                    -0.539603
     11 N                    -0.576132
     12 C                     0.166419
     13 C                     0.332893
     14 S                     0.607081
     15 N                    -0.543161
     16 C                    -0.213769
     17 S                     0.302193
     18 C                    -0.111306
     19 C                    -0.214758
     20 S                     0.288751
     21 C                     0.129653
     22 C                     0.036637
     23 C                    -0.314306
     24 C                    -0.033649
     25 N                    -0.401296
     26 S                     0.272908
     27 C                     0.112168
     28 C                    -0.309728
     29 C                    -0.243422
     30 H                     0.092070
     31 H                     0.088421
     32 H                     0.106767
     33 H                     0.119926
     34 H                     0.120785
     35 H                     0.123117
     36 H                     0.117853
     37 H                     0.141154
     38 H                     0.110509
     39 C                    -0.186538
     40 H                     0.136868
     41 H                     0.086470
     42 H                     0.125555
     43 C                    -0.182902
     44 H                     0.091468
     45 C                    -0.181690
     46 H                     0.096854
     47 H                     0.093509
     48 H                     0.115499
     49 C                    -0.184299
     50 H                     0.093425
     51 C                    -0.337212
     52 H                     0.089519
     53 H                     0.096802
     54 H                     0.101831
     55 H                     0.112643
     56 C                     0.269525
     57 C                    -0.115100
     58 N                    -0.475080
     59 C                    -0.057155
     60 C                     0.079913
     61 C                     0.001830
     62 C                     0.051666
     63 C                     0.046532
     64 C                     0.217323
     65 N                    -0.522700
     66 N                    -0.571616
     67 C                     0.264476
     68 C                     0.294957
     69 S                     0.597839
     70 N                    -0.577605
     71 C                    -0.227800
     72 S                     0.366630
     73 C                    -0.152303
     74 C                    -0.234641
     75 S                     0.304512
     76 C                     0.165250
     77 C                     0.046921
     78 C                    -0.297879
     79 C                    -0.078132
     80 N                    -0.422678
     81 S                     0.284785
     82 C                     0.124431
     83 C                    -0.323460
     84 C                    -0.216589
     85 H                     0.091510
     86 H                     0.112296
     87 H                     0.108773
     88 H                     0.114443
     89 H                     0.127724
     90 H                     0.116270
     91 H                     0.116471
     92 H                     0.136889
     93 H                     0.116150
     94 C                    -0.187440
     95 H                     0.103040
     96 H                     0.102599
     97 H                     0.090286
     98 C                    -0.185718
     99 H                     0.089249
    100 C                    -0.162081
    101 H                     0.094184
    102 H                     0.087525
    103 H                     0.095265
    104 C                    -0.183786
    105 H                     0.092763
    106 C                    -0.313135
    107 H                     0.090052
    108 H                     0.101861
    109 H                     0.103456
    110 H                     0.098795
  ----------------------------------------
  Sum of atomic charges =     0.000000

                    Cartesian Multipole Moments
 -----------------------------------------------------------------
    Charge (ESU x 10^10)
                 0.0000
    Dipole Moment (Debye)
         X      -1.3646      Y      -0.8113      Z      -0.0500
       Tot       1.5884
    Quadrupole Moments (Debye-Ang)
        XX    -409.7972     XY     -18.9186     YY    -412.7062
        XZ      15.8927     YZ      22.3444     ZZ    -444.1848

 Total job time:  94.82s(wall), 1056.48s(cpu)
        *  Thank you very much for using Q-Chem.  Have a nice day.  *
