 Q-Chem 4.4, Q-Chem, Inc., Pleasanton, CA (2016)
 Q-Chem 4.4.2 for Intel X86 Linux

User input:
--------------------------------------------------------------
$comment
SP
$end

$rem
MEM_STATIC 5000
MEM_TOTAL 20000
JOBTYPE SP
EXCHANGE B3LYP
BASIS 6-31g(d,p)
$end

$molecule
0 1
C         -13.851000    -25.481000      4.921000
C         -13.155000    -26.398000      4.145000
N         -14.388000    -24.358000      4.405000
C         -13.075000    -26.210000      2.768000
C         -14.297000    -24.217000      3.052000
C         -13.681000    -25.120000      2.201000
C         -13.624000    -24.916000      0.642000
C         -13.726000    -26.001000     -0.251000
C         -13.473000    -23.623000      0.070000
N         -13.853000    -25.861000     -1.581000
N         -13.272000    -22.535000      0.854000
C         -13.546000    -23.448000     -1.288000
C         -13.710000    -24.620000     -2.128000
S         -13.367000    -21.279000     -0.202000
N         -13.510000    -22.097000     -1.631000
C         -13.854000    -24.568000     -3.591000
S         -14.997000    -25.453000     -4.598000
C         -13.001000    -23.834000     -4.378000
C         -14.298000    -24.664000     -6.070000
S         -11.773000    -22.721000     -3.944000
C         -13.283000    -23.875000     -5.757000
C         -14.776000    -24.861000     -7.408000
C         -11.494000    -22.526000     -5.692000
C         -12.446000    -23.078000     -6.500000
N         -15.690000    -25.822000     -7.441000
S         -14.917000    -23.586000     -8.559000
C         -16.347000    -25.710000     -8.607000
C         -16.108000    -24.581000     -9.283000
C         -13.962000    -25.596000      6.445000
H         -12.635000    -27.192000      4.673000
H         -12.621000    -26.948000      2.115000
H         -14.768000    -23.294000      2.716000
H         -13.998000    -26.955000      0.201000
H         -10.663000    -21.881000     -5.943000
H         -12.446000    -22.898000     -7.569000
H         -16.992000    -26.546000     -8.842000
H         -16.517000    -24.330000    -10.252000
H         -14.991000    -25.642000      6.823000
C         -13.086000    -24.420000      7.059000
H         -13.529000    -26.571000      6.701000
H         -13.553000    -23.448000      6.860000
H         -12.172000    -24.408000      6.452000
C         -12.846000    -24.484000      8.536000
H         -13.790000    -24.421000      9.090000
C         -11.861000    -23.445000      9.019000
H         -12.429000    -25.491000      8.658000
H         -11.737000    -23.496000     10.108000
H         -12.273000    -22.481000      8.694000
C         -10.446000    -23.573000      8.460000
H         -10.429000    -23.414000      7.374000
C          -9.839000    -24.936000      8.863000
H          -9.870000    -22.690000      8.763000
H          -8.755000    -24.890000      8.704000
H         -10.109000    -25.711000      8.135000
H          -9.939000    -25.144000      9.936000
C         -10.221000    -20.019000     10.752000
C         -11.272000    -19.565000     10.021000
N          -8.999000    -20.253000     10.193000
C         -11.171000    -19.631000      8.621000
C          -8.799000    -20.148000      8.884000
C          -9.901000    -19.839000      8.001000
C          -9.791000    -19.774000      6.507000
C          -8.692000    -19.171000      5.925000
C         -10.815000    -20.182000      5.613000
N          -8.405000    -19.099000      4.605000
N         -11.982000    -20.703000      6.046000
C         -10.558000    -20.153000      4.262000
C          -9.375000    -19.617000      3.744000
S         -12.668000    -21.249000      4.631000
N         -11.537000    -20.713000      3.554000
C          -9.084000    -19.680000      2.280000
S          -9.948000    -20.682000      1.096000
C          -7.969000    -19.107000      1.680000
C          -8.715000    -20.348000     -0.132000
S          -6.875000    -17.888000      2.288000
C          -7.768000    -19.461000      0.314000
C          -8.488000    -21.133000     -1.338000
C          -6.144000    -17.906000      0.635000
C          -6.687000    -18.794000     -0.266000
N          -9.435000    -22.048000     -1.574000
S          -6.960000    -21.334000     -2.182000
C          -8.979000    -22.948000     -2.485000
C          -7.645000    -22.752000     -2.889000
C         -10.257000    -20.138000     12.219000
H         -12.272000    -19.408000     10.412000
H         -12.054000    -19.343000      8.058000
H          -7.764000    -20.317000      8.592000
H          -7.893000    -18.752000      6.535000
H          -5.287000    -17.292000      0.396000
H          -6.342000    -18.903000     -1.288000
H          -9.586000    -23.777000     -2.823000
H          -7.008000    -23.385000     -3.493000
H          -9.251000    -20.016000     12.640000
C         -10.825000    -21.465000     12.632000
H         -10.878000    -19.379000     12.711000
H         -10.186000    -22.262000     12.233000
H         -11.711000    -21.749000     12.050000
C         -11.096000    -21.572000     14.162000
H         -11.448000    -22.565000     14.470000
C         -12.069000    -20.497000     14.700000
H         -10.130000    -21.457000     14.670000
H         -12.858000    -20.366000     13.949000
H         -11.469000    -19.581000     14.763000
C         -12.813000    -20.798000     15.961000
H         -13.487000    -21.659000     15.867000
C         -13.695000    -19.655000     16.483000
H         -12.088000    -21.022000     16.753000
H         -13.088000    -18.742000     16.505000
H         -14.152000    -19.946000     17.437000
H         -14.470000    -19.471000     15.729000
$end

--------------------------------------------------------------

             Standard Nuclear Orientation (Angstroms)
    I     Atom           X                Y                Z
 ----------------------------------------------------------------
    1      C       1.7703109382     4.2675450296     1.2147438605
    2      C       0.9480845791     4.1318332327     2.3251523991
    3      N       1.3871885572     3.8847261045    -0.0191203589
    4      C      -0.3537748748     3.6667960473     2.1615205604
    5      C       0.1021943890     3.4449847910    -0.1382361218
    6      C      -0.8014483978     3.3461177482     0.9070968499
    7      C      -2.2813247925     2.8506689520     0.7074913725
    8      C      -3.3519541521     3.4026653530     1.4383338642
    9      C      -2.5991633870     1.8266442238    -0.2264176080
   10      N      -4.6434781855     3.1349629583     1.1835200125
   11      N      -1.6213648261     1.1742647344    -0.9025181746
   12      C      -3.9049145883     1.4904497019    -0.4756264436
   13      C      -4.9468401148     2.1540131492     0.2860524577
   14      S      -2.4506227626     0.2591272740    -1.9872078553
   15      N      -4.0044548738     0.5670452118    -1.5156081161
   16      C      -6.3854960633     1.9250263111     0.0819860714
   17      S      -7.6709040469     3.1266572416    -0.0048034572
   18      C      -6.9158886849     0.6602415872     0.0131582489
   19      C      -8.8811103871     1.8021280096    -0.2475562690
   20      S      -6.1398124994    -0.8657483157    -0.0514139629
   21      C      -8.3066422781     0.6110724937    -0.2018599909
   22      C     -10.2843682933     2.0064855217    -0.4635244516
   23      C      -7.7764223855    -1.5650654501    -0.1133302491
   24      C      -8.7854336464    -0.6706595314    -0.3273543787
   25      N     -10.6014488224     3.2840595138    -0.2983862283
   26      S     -11.2092231461     1.0949594148    -1.5966928670
   27      C     -11.8076791389     3.4729129937    -0.8579322825
   28      C     -12.2434269277     2.4597985562    -1.6145438084
   29      C       3.2240667088     4.7426366170     1.3096340236
   30      H       1.3968361382     4.3295399747     3.2942520236
   31      H      -1.0573364541     3.6327064063     2.9867526492
   32      H      -0.1305881200     3.1714997173    -1.1666738778
   33      H      -3.1094138199     4.2872292449     2.0275069359
   34      H      -7.8015559406    -2.6461710852    -0.1004496384
   35      H      -9.7984973599    -1.0049819056    -0.5199458182
   36      H     -12.2651003721     4.4262566504    -0.6297926593
   37      H     -13.2007939450     2.4157483424    -2.1152942181
   38      H       3.4492797313     5.6364630555     0.7144916941
   39      C       4.1401219843     3.4850424501     0.9830645156
   40      H       3.3648365470     5.0600661926     2.3503416277
   41      H       4.0500014380     3.2073990339    -0.0739437250
   42      H       3.6703043944     2.6517287143     1.5205109314
   43      C       5.6030893411     3.6509236898     1.2577187116
   44      H       6.0299935364     4.4502952560     0.6406458574
   45      C       6.3822569256     2.3660550681     1.0994610099
   46      H       5.6054420744     3.9719456964     2.3064137749
   47      H       7.4532600761     2.5311524311     1.2714874976
   48      H       6.1750126081     2.0247905029     0.0770847145
   49      C       6.0016353693     1.2453276142     2.0639231423
   50      H       4.9706351136     0.9072484152     1.8974691610
   51      C       6.2427084609     1.6972668963     3.5220937941
   52      H       6.5243547905     0.3303381010     1.7592387197
   53      H       6.2386009238     0.8074129134     4.1628714601
   54      H       5.3638965290     2.2232727140     3.9151796219
   55      H       7.2416796293     2.1259248924     3.6734276210
   56      C       8.8759815814    -0.6123857991    -0.4304384448
   57      C       8.1007892038    -0.2396079801    -1.4817193185
   58      N       8.4517540547    -1.5209819385     0.4942263924
   59      C       6.7358910236    -0.5706355922    -1.4366562765
   60      C       7.2179854872    -2.0128264360     0.4739751632
   61      C       6.2628851900    -1.5445824994    -0.5048532375
   62      C       4.8297548695    -1.9821179164    -0.5601817415
   63      C       4.5096842779    -3.3119511515    -0.3621100794
   64      C       3.7518347230    -1.1385657428    -0.9353935323
   65      N       3.2710423851    -3.8524691381    -0.3024479670
   66      N       3.9314277170     0.1619305483    -1.2472825405
   67      C       2.4716183357    -1.6364479848    -0.8629347530
   68      C       2.2137053899    -2.9761740636    -0.5567910839
   69      S       2.3659175648     0.7218892312    -1.3282840013
   70      N       1.5553140973    -0.6955236244    -1.0828276605
   71      C       0.8119441608    -3.4676749489    -0.3972970836
   72      S      -0.6293809535    -2.4450930257    -0.2262294786
   73      C       0.4712921492    -4.7952226547    -0.1668034919
   74      C      -1.6084210636    -3.8489950854     0.2324299481
   75      S       1.4176456496    -6.2468962950    -0.3893337019
   76      C      -0.8963499556    -5.0199063679     0.1659806756
   77      C      -2.8899701408    -3.7971138304     0.9231761373
   78      C      -0.1028146788    -7.1417924195     0.0036743342
   79      C      -1.2059224620    -6.3745909660     0.3032559566
   80      N      -3.4017733116    -2.5650147231     1.0217626686
   81      S      -3.5463941589    -5.0195496625     2.0012666460
   82      C      -4.3846389005    -2.5560414921     1.9607790237
   83      C      -4.5693171725    -3.7798835987     2.6310718210
   84      C      10.2833128434    -0.2041443500    -0.2879476094
   85      H       8.3771805796     0.5109976246    -2.2150194164
   86      H       6.1186082880    -0.1897272787    -2.2450329715
   87      H       7.0408375174    -2.7620654421     1.2435916316
   88      H       5.2824377626    -4.0499221393    -0.1516038492
   89      H      -0.1180859879    -8.2213429044     0.0575588180
   90      H      -2.1768215899    -6.7864601151     0.5544703816
   91      H      -4.9364130467    -1.6576429710     2.2023559038
   92      H      -5.1829209410    -4.0075595329     3.4930045819
   93      H      10.8481892577    -0.9588978650     0.2736775043
   94      C      10.3849755756     1.1258887873     0.4011086600
   95      H      10.8111807980    -0.0890578304    -1.2428803377
   96      H       9.9438072253     1.0397548676     1.4014498191
   97      H       9.6511056041     1.8539046533     0.0325930379
   98      C      11.8248055163     1.7196358549     0.3891019182
   99      H      11.9095097366     2.6588695481     0.9507799972
  100      C      12.4049991306     1.9206899237    -1.0303171994
  101      H      12.4681478063     1.0179948736     0.9352297706
  102      H      11.5897762192     2.2860093054    -1.6672130733
  103      H      12.7021840922     0.9168206411    -1.3573532250
  104      C      13.4865333891     2.9377022588    -1.2041779418
  105      H      13.1586860283     3.9580720079    -0.9679689600
  106      C      14.0747407543     3.0243857872    -2.6195772005
  107      H      14.3174545793     2.6866163822    -0.5336625742
  108      H      14.3323058579     2.0083838256    -2.9419158911
  109      H      14.8961597739     3.7514824262    -2.6353020785
  110      H      13.2674861586     3.3460565961    -3.2888042982
 ----------------------------------------------------------------

   10   -5663.4967341180      4.38E-06 Convergence criterion met
 Total energy in the final basis set = -5663.4967341180

                    Orbital Energies (a.u.)
 --------------------------------------------------------------

 Alpha MOs
 -- Occupied --
-88.988 -88.984 -88.933 -88.931 -88.925 -88.917 -88.916 -88.903
-14.387 -14.385 -14.382 -14.381 -14.351 -14.350 -14.345 -14.336
-14.330 -14.324 -10.269 -10.264 -10.263 -10.257 -10.256 -10.250
-10.249 -10.247 -10.241 -10.238 -10.235 -10.232 -10.232 -10.231
-10.230 -10.230 -10.229 -10.228 -10.227 -10.227 -10.226 -10.224
-10.223 -10.221 -10.221 -10.219 -10.218 -10.218 -10.217 -10.215
-10.209 -10.207 -10.207 -10.206 -10.199 -10.198 -10.193 -10.192
-10.187 -10.179 -10.177 -10.176 -10.175 -10.175 -10.174 -10.172
-10.167 -10.166 -10.165 -10.164  -8.042  -8.038  -7.994  -7.993
 -7.982  -7.976  -7.974  -7.965  -6.007  -6.003  -6.002  -6.001
 -5.998  -5.996  -5.958  -5.957  -5.955  -5.953  -5.951  -5.949
 -5.947  -5.943  -5.940  -5.939  -5.938  -5.937  -5.934  -5.932
 -5.930  -5.929  -5.925  -5.921  -1.034  -1.027  -0.982  -0.970
 -0.951  -0.946  -0.939  -0.936  -0.916  -0.911  -0.903  -0.892
 -0.842  -0.842  -0.828  -0.826  -0.818  -0.813  -0.813  -0.809
 -0.805  -0.804  -0.802  -0.794  -0.790  -0.782  -0.769  -0.763
 -0.751  -0.746  -0.743  -0.741  -0.722  -0.718  -0.711  -0.705
 -0.693  -0.691  -0.673  -0.669  -0.655  -0.653  -0.642  -0.641
 -0.635  -0.634  -0.628  -0.622  -0.608  -0.607  -0.602  -0.601
 -0.596  -0.595  -0.587  -0.587  -0.580  -0.577  -0.563  -0.544
 -0.543  -0.542  -0.541  -0.537  -0.526  -0.522  -0.519  -0.515
 -0.506  -0.505  -0.501  -0.499  -0.487  -0.485  -0.476  -0.472
 -0.470  -0.469  -0.466  -0.465  -0.464  -0.459  -0.451  -0.447
 -0.445  -0.443  -0.440  -0.436  -0.435  -0.434  -0.432  -0.428
 -0.427  -0.425  -0.424  -0.419  -0.416  -0.415  -0.413  -0.413
 -0.407  -0.407  -0.405  -0.402  -0.401  -0.398  -0.396  -0.392
 -0.391  -0.390  -0.389  -0.388  -0.386  -0.385  -0.384  -0.382
 -0.380  -0.378  -0.377  -0.368  -0.365  -0.363  -0.359  -0.354
 -0.353  -0.351  -0.348  -0.347  -0.345  -0.343  -0.339  -0.338
 -0.337  -0.334  -0.332  -0.326  -0.326  -0.323  -0.319  -0.313
 -0.311  -0.310  -0.306  -0.305  -0.303  -0.301  -0.300  -0.298
 -0.297  -0.296  -0.296  -0.293  -0.290  -0.286  -0.284  -0.279
 -0.278  -0.276  -0.268  -0.267  -0.256  -0.255  -0.252  -0.247
 -0.244  -0.238  -0.234  -0.231  -0.193  -0.191

          Ground-State Mulliken Net Atomic Charges

     Atom                 Charge (a.u.)
  ----------------------------------------
      1 C                     0.255652
      2 C                    -0.118780
      3 N                    -0.484418
      4 C                    -0.080589
      5 C                     0.072878
      6 C                     0.065560
      7 C                     0.023492
      8 C                     0.053858
      9 C                     0.227883
     10 N                    -0.489281
     11 N                    -0.557643
     12 C                     0.238650
     13 C                     0.210754
     14 S                     0.638888
     15 N                    -0.547485
     16 C                    -0.201894
     17 S                     0.330377
     18 C                    -0.124288
     19 C                    -0.248626
     20 S                     0.286561
     21 C                     0.190264
     22 C                     0.034526
     23 C                    -0.312973
     24 C                    -0.072062
     25 N                    -0.414004
     26 S                     0.292290
     27 C                     0.134226
     28 C                    -0.319373
     29 C                    -0.220846
     30 H                     0.091652
     31 H                     0.101738
     32 H                     0.110340
     33 H                     0.110057
     34 H                     0.123393
     35 H                     0.114502
     36 H                     0.111348
     37 H                     0.129310
     38 H                     0.114090
     39 C                    -0.172209
     40 H                     0.087596
     41 H                     0.113819
     42 H                     0.095580
     43 C                    -0.172322
     44 H                     0.085916
     45 C                    -0.177443
     46 H                     0.086977
     47 H                     0.085040
     48 H                     0.096028
     49 C                    -0.187443
     50 H                     0.087522
     51 C                    -0.319052
     52 H                     0.104961
     53 H                     0.095386
     54 H                     0.105579
     55 H                     0.105610
     56 C                     0.270975
     57 C                    -0.111225
     58 N                    -0.473063
     59 C                    -0.059189
     60 C                     0.069556
     61 C                     0.007970
     62 C                     0.055747
     63 C                     0.046760
     64 C                     0.219384
     65 N                    -0.522153
     66 N                    -0.579220
     67 C                     0.254397
     68 C                     0.291719
     69 S                     0.626151
     70 N                    -0.581652
     71 C                    -0.238267
     72 S                     0.374434
     73 C                    -0.120763
     74 C                    -0.243045
     75 S                     0.295849
     76 C                     0.152084
     77 C                     0.049330
     78 C                    -0.311714
     79 C                    -0.070868
     80 N                    -0.431849
     81 S                     0.286232
     82 C                     0.123979
     83 C                    -0.330611
     84 C                    -0.216875
     85 H                     0.093177
     86 H                     0.114143
     87 H                     0.108632
     88 H                     0.109211
     89 H                     0.122140
     90 H                     0.120290
     91 H                     0.135150
     92 H                     0.137889
     93 H                     0.115841
     94 C                    -0.194445
     95 H                     0.102873
     96 H                     0.103853
     97 H                     0.097183
     98 C                    -0.185887
     99 H                     0.089254
    100 C                    -0.161786
    101 H                     0.093836
    102 H                     0.087952
    103 H                     0.094955
    104 C                    -0.184088
    105 H                     0.092987
    106 C                    -0.312930
    107 H                     0.089973
    108 H                     0.101684
    109 H                     0.103441
    110 H                     0.099028
  ----------------------------------------
  Sum of atomic charges =     0.000000

                    Cartesian Multipole Moments
 -----------------------------------------------------------------
    Charge (ESU x 10^10)
                 0.0000
    Dipole Moment (Debye)
         X      -2.8200      Y      -2.2554      Z      -0.2499
       Tot       3.6197
    Quadrupole Moments (Debye-Ang)
        XX    -406.1871     XY      31.8948     YY    -429.3583
        XZ      -0.2277     YZ      -3.5163     ZZ    -437.8586

 Total job time:  103.00s(wall), 1150.84s(cpu)
        *  Thank you very much for using Q-Chem.  Have a nice day.  *
