 Q-Chem 4.4, Q-Chem, Inc., Pleasanton, CA (2016)
 Q-Chem 4.4.2 for Intel X86 Linux

User input:
--------------------------------------------------------------
$comment
SP
$end

$rem
MEM_STATIC 5000
MEM_TOTAL 20000
JOBTYPE SP
EXCHANGE B3LYP
BASIS 6-31g(d,p)
$end

$molecule
0 1
C           3.608000    -17.980000     -5.512000
C           2.907000    -18.600000     -4.379000
N           3.025000    -17.019000     -6.266000
C           1.611000    -18.138000     -4.090000
C           1.749000    -16.649000     -5.984000
C           0.996000    -17.187000     -4.923000
C          -0.341000    -16.688000     -4.646000
C          -0.680000    -15.269000     -4.724000
C          -1.385000    -17.590000     -4.264000
N          -1.884000    -14.777000     -4.383000
N          -1.270000    -18.937000     -4.235000
C          -2.616000    -17.067000     -3.815000
C          -2.797000    -15.649000     -3.906000
S          -2.710000    -19.399000     -3.634000
N          -3.530000    -17.971000     -3.424000
C          -3.974000    -14.927000     -3.344000
S          -4.971000    -15.524000     -2.036000
C          -4.405000    -13.623000     -3.497000
C          -5.912000    -14.050000     -1.728000
S          -3.809000    -12.490000     -4.652000
C          -5.483000    -13.171000     -2.725000
C          -6.800000    -13.772000     -0.682000
C          -5.155000    -11.344000     -4.171000
C          -5.985000    -11.900000     -3.178000
N          -7.190000    -12.517000     -0.560000
S          -7.041000    -14.841000      0.727000
C          -7.655000    -12.310000      0.682000
C          -7.715000    -13.401000      1.528000
C           5.038000    -18.339000     -5.879000
H           3.434000    -19.246000     -3.684000
H           1.079000    -18.617000     -3.274000
H           1.317000    -15.819000     -6.540000
H           0.091000    -14.573000     -5.052000
H          -5.295000    -10.437000     -4.743000
H          -6.911000    -11.422000     -2.881000
H          -7.819000    -11.266000      0.915000
H          -7.952000    -13.441000      2.583000
H           5.229000    -19.379000     -5.590000
C           6.058000    -17.358000     -5.217000
H           5.057000    -18.393000     -6.974000
H           7.019000    -17.885000     -5.263000
H           5.775000    -17.276000     -4.160000
C           6.163000    -15.956000     -5.858000
H           6.770000    -15.990000     -6.771000
C           6.837000    -14.934000     -4.893000
H           5.160000    -15.557000     -6.053000
H           7.893000    -15.227000     -4.842000
H           6.426000    -15.127000     -3.895000
C           6.628000    -13.461000     -5.312000
H           5.580000    -13.325000     -5.605000
C           7.513000    -13.067000     -6.523000
H           6.870000    -12.791000     -4.478000
H           7.201000    -12.167000     -7.068000
H           7.727000    -13.886000     -7.221000
H           8.542000    -12.865000     -6.200000
C         -10.221000    -20.019000     10.752000
C         -11.272000    -19.565000     10.021000
N          -8.999000    -20.253000     10.193000
C         -11.171000    -19.631000      8.621000
C          -8.799000    -20.148000      8.884000
C          -9.901000    -19.839000      8.001000
C          -9.791000    -19.774000      6.507000
C          -8.692000    -19.171000      5.925000
C         -10.815000    -20.182000      5.613000
N          -8.405000    -19.099000      4.605000
N         -11.982000    -20.703000      6.046000
C         -10.558000    -20.153000      4.262000
C          -9.375000    -19.617000      3.744000
S         -12.668000    -21.249000      4.631000
N         -11.537000    -20.713000      3.554000
C          -9.084000    -19.680000      2.280000
S          -9.948000    -20.682000      1.096000
C          -7.969000    -19.107000      1.680000
C          -8.715000    -20.348000     -0.132000
S          -6.875000    -17.888000      2.288000
C          -7.768000    -19.461000      0.314000
C          -8.488000    -21.133000     -1.338000
C          -6.144000    -17.906000      0.635000
C          -6.687000    -18.794000     -0.266000
N          -9.435000    -22.048000     -1.574000
S          -6.960000    -21.334000     -2.182000
C          -8.979000    -22.948000     -2.485000
C          -7.645000    -22.752000     -2.889000
C         -10.257000    -20.138000     12.219000
H         -12.272000    -19.408000     10.412000
H         -12.054000    -19.343000      8.058000
H          -7.764000    -20.317000      8.592000
H          -7.893000    -18.752000      6.535000
H          -5.287000    -17.292000      0.396000
H          -6.342000    -18.903000     -1.288000
H          -9.586000    -23.777000     -2.823000
H          -7.008000    -23.385000     -3.493000
H          -9.251000    -20.016000     12.640000
C         -10.825000    -21.465000     12.632000
H         -10.878000    -19.379000     12.711000
H         -10.186000    -22.262000     12.233000
H         -11.711000    -21.749000     12.050000
C         -11.096000    -21.572000     14.162000
H         -11.448000    -22.565000     14.470000
C         -12.069000    -20.497000     14.700000
H         -10.130000    -21.457000     14.670000
H         -12.858000    -20.366000     13.949000
H         -11.469000    -19.581000     14.763000
C         -12.813000    -20.798000     15.961000
H         -13.487000    -21.659000     15.867000
C         -13.695000    -19.655000     16.483000
H         -12.088000    -21.022000     16.753000
H         -13.088000    -18.742000     16.505000
H         -14.152000    -19.946000     17.437000
H         -14.470000    -19.471000     15.729000
$end

--------------------------------------------------------------

             Standard Nuclear Orientation (Angstroms)
    I     Atom           X                Y                Z
 ----------------------------------------------------------------
    1      C     -10.4826443145     2.6652005591    -2.6357311858
    2      C      -9.0616185663     2.8733901987    -2.9469110323
    3      N     -10.8808604367     1.7552022954    -1.7163547232
    4      C      -8.1246429803     2.1062694776    -2.2326396897
    5      C      -9.9409378744     0.9959590243    -1.0961166785
    6      C      -8.5580710187     1.1197399494    -1.3296365748
    7      C      -7.6120508594     0.3149571361    -0.5742098864
    8      C      -7.7744281429     0.0474968080     0.8529076948
    9      C      -6.4584745238    -0.2384683169    -1.2164294019
   10      N      -6.8650116461    -0.6154817666     1.5886943792
   11      N      -6.2049795659    -0.1693050759    -2.5428651344
   12      C      -5.4595571141    -0.8493523853    -0.4293616389
   13      C      -5.7324112462    -1.0070878768     0.9679343703
   14      S      -4.7370518292    -0.8625930534    -2.6559356435
   15      N      -4.3821587673    -1.2994922090    -1.0942525635
   16      C      -4.7303322239    -1.4973791280     1.9568272472
   17      S      -2.9965880116    -1.3944671407     1.7451148737
   18      C      -4.8627282935    -1.8864887269     3.2761645812
   19      C      -2.5027517056    -1.8559028417     3.3871330820
   20      S      -6.3491490844    -2.1741170535     4.1012422613
   21      C      -3.7086301271    -2.1708682453     4.0174861792
   22      C      -1.2297332109    -1.8212618814     3.9686551505
   23      C      -5.3945741818    -2.8332326223     5.5192501675
   24      C      -4.0082181892    -2.8126258789     5.2709007686
   25      N      -1.1754555566    -1.9989466197     5.2753651680
   26      S       0.2012456277    -1.0978589007     3.1843652227
   27      C      -0.0133266360    -1.5196099491     5.7458231663
   28      C       0.8936183176    -1.0338732475     4.8232681772
   29      C     -11.5860420463     3.4838363258    -3.2844367640
   30      H      -8.7423650192     3.7108463246    -3.5591319155
   31      H      -7.0764594008     2.2350140474    -2.4837512572
   32      H     -10.2607962247     0.3266155761    -0.2996683224
   33      H      -8.6668080164     0.4266308240     1.3492508819
   34      H      -5.9306188878    -3.2923636149     6.3385717190
   35      H      -3.3059087326    -3.2968571730     5.9390702688
   36      H       0.0256103760    -1.4601936521     6.8256725135
   37      H       1.8286229413    -0.5141565368     4.9859177836
   38      H     -11.2601229095     3.7902754213    -4.2851733912
   39      C     -11.9760853025     4.7124502654    -2.4016122935
   40      H     -12.3894747785     2.7718158917    -3.5076513384
   41      H     -12.5054909369     5.3877257736    -3.0850584598
   42      H     -11.0378611725     5.2023092605    -2.1120684334
   43      C     -12.8320254958     4.4044693525    -1.1526030289
   44      H     -13.8829297249     4.2539221573    -1.4284831536
   45      C     -12.7874948584     5.5755602623    -0.1247177711
   46      H     -12.4235143725     3.5347712668    -0.6234727028
   47      H     -13.3596784459     6.3924907057    -0.5816823134
   48      H     -11.7481691553     5.9230960458    -0.0901495479
   49      C     -13.2956009522     5.1812174844     1.2807333916
   50      H     -12.8704750409     4.2058782920     1.5464972328
   51      C     -14.8403609267     5.0531611512     1.3286937585
   52      H     -12.9906748290     5.9325346174     2.0193555041
   53      H     -15.2448749746     4.4828700424     2.1745693027
   54      H     -15.3036243459     4.7294496188     0.3882902024
   55      H     -15.3080524872     6.0432032962     1.3997933743
   56      C      10.7695465982     3.0167059072     0.2168612142
   57      C      10.8029776403     1.7577392341     0.7257455640
   58      N       9.6300523169     3.5557989422    -0.3041498053
   59      C       9.7259527304     0.9049363839     0.4302770511
   60      C       8.5175900628     2.8419838033    -0.4360652359
   61      C       8.5050587192     1.4403070432    -0.0829091435
   62      C       7.3235480418     0.5355439459    -0.2667494470
   63      C       6.0558832983     0.9897547904     0.0444620676
   64      C       7.4158031257    -0.8342420978    -0.6265427125
   65      N       4.8871375758     0.3329432758    -0.1360512848
   66      N       8.5990496310    -1.4358150128    -0.8691467841
   67      C       6.2532809936    -1.5352008354    -0.8485565423
   68      C       4.9940097795    -0.9775027962    -0.6070655355
   69      S       8.1239057610    -2.9009746730    -1.5004014657
   70      N       6.4877259853    -2.7522429680    -1.3355360010
   71      C       3.7476862032    -1.7302603484    -0.9416990829
   72      S       3.6595619819    -3.1881022916    -1.9512965225
   73      C       2.4633800128    -1.2767843355    -0.6651649711
   74      C       1.8931330210    -3.0683384797    -2.0235070182
   75      S       1.9322902458    -0.0220889581     0.4285187899
   76      C       1.4126693878    -2.0399078017    -1.2528066628
   77      C       1.0410474749    -3.7176541923    -3.0106895380
   78      C       0.2553344943    -0.5691400185     0.0339956034
   79      C       0.1434656389    -1.5961378558    -0.8759246137
   80      N       1.6819700786    -4.6078336164    -3.7765412266
   81      S      -0.5110030571    -3.1370997579    -3.5951693880
   82      C       0.9258476660    -4.8934292636    -4.8695055552
   83      C      -0.2692512892    -4.1562911067    -4.9672492243
   84      C      11.8961246048     3.9575796717     0.3314236612
   85      H      11.6945320251     1.2716740802     1.1083699817
   86      H       9.8127893130    -0.1214385490     0.7746836498
   87      H       7.6789983393     3.4194750259    -0.8211857483
   88      H       5.8967899218     2.0033050019     0.4097937885
   89      H      -0.6081811472    -0.0688754864     0.4494978714
   90      H      -0.8026417599    -2.0171110577    -1.1969422973
   91      H       1.2546987627    -5.5941232089    -5.6250311677
   92      H      -0.9766073074    -4.0959202294    -5.7841193613
   93      H      11.5332380651     4.9931122193     0.3435357286
   94      C      12.8641752448     3.7698271430    -0.8007198573
   95      H      12.4824394929     3.8384433380     1.2511124053
   96      H      12.3432083849     3.9629851299    -1.7462432694
   97      H      13.0688670903     2.7132655002    -1.0155564074
   98      C      14.1847248548     4.5766873881    -0.6248924638
   99      H      14.8615870301     4.4902079282    -1.4846574891
  100      C      14.9584237786     4.2328059531     0.6692997684
  101      H      13.9128809244     5.6396552919    -0.5994933896
  102      H      14.8827646370     3.1481879530     0.8161414797
  103      H      14.4125012382     4.7485648076     1.4686660072
  104      C      16.4284786676     4.5020782110     0.6955499993
  105      H      16.9865454936     3.9118441637    -0.0424325121
  106      C      17.1167311077     4.2175998570     2.0380244477
  107      H      16.5963185619     5.5633951882     0.4753204744
  108      H      16.5369213216     4.7113830493     2.8270116282
  109      H      18.1754734451     4.4989207615     1.9782815682
  110      H      17.0178725422     3.1429068842     2.2336235233
 ----------------------------------------------------------------

   10   -5663.5283690123      5.88E-06 Convergence criterion met
 Total energy in the final basis set = -5663.5283690123

                    Orbital Energies (a.u.)
 --------------------------------------------------------------

 Alpha MOs
 -- Occupied --
-88.994 -88.988 -88.934 -88.925 -88.924 -88.920 -88.917 -88.904
-14.402 -14.396 -14.390 -14.386 -14.359 -14.354 -14.345 -14.340
-14.335 -14.324 -10.273 -10.269 -10.268 -10.266 -10.266 -10.264
-10.253 -10.252 -10.249 -10.244 -10.243 -10.242 -10.239 -10.239
-10.234 -10.233 -10.232 -10.232 -10.231 -10.231 -10.230 -10.230
-10.230 -10.228 -10.228 -10.227 -10.222 -10.219 -10.218 -10.214
-10.213 -10.211 -10.208 -10.207 -10.207 -10.206 -10.201 -10.192
-10.189 -10.187 -10.179 -10.179 -10.178 -10.176 -10.176 -10.176
-10.174 -10.173 -10.172 -10.169  -8.049  -8.044  -7.995  -7.985
 -7.982  -7.980  -7.976  -7.963  -6.015  -6.009  -6.009  -6.007
 -6.003  -6.001  -5.959  -5.955  -5.952  -5.949  -5.947  -5.946
 -5.944  -5.943  -5.942  -5.940  -5.940  -5.938  -5.937  -5.937
 -5.932  -5.928  -5.924  -5.920  -1.047  -1.039  -0.975  -0.970
 -0.963  -0.948  -0.937  -0.935  -0.921  -0.913  -0.911  -0.907
 -0.842  -0.840  -0.836  -0.829  -0.814  -0.814  -0.810  -0.806
 -0.802  -0.800  -0.798  -0.795  -0.791  -0.781  -0.770  -0.767
 -0.747  -0.746  -0.744  -0.736  -0.722  -0.714  -0.712  -0.709
 -0.694  -0.690  -0.677  -0.676  -0.659  -0.656  -0.651  -0.643
 -0.638  -0.636  -0.628  -0.623  -0.614  -0.608  -0.602  -0.601
 -0.596  -0.591  -0.588  -0.581  -0.580  -0.578  -0.564  -0.562
 -0.553  -0.544  -0.540  -0.539  -0.530  -0.524  -0.518  -0.511
 -0.507  -0.507  -0.506  -0.501  -0.492  -0.488  -0.480  -0.479
 -0.475  -0.473  -0.472  -0.471  -0.467  -0.459  -0.449  -0.448
 -0.443  -0.441  -0.440  -0.437  -0.436  -0.434  -0.433  -0.429
 -0.428  -0.425  -0.424  -0.424  -0.423  -0.417  -0.414  -0.414
 -0.409  -0.408  -0.407  -0.402  -0.401  -0.401  -0.398  -0.397
 -0.394  -0.393  -0.392  -0.389  -0.388  -0.387  -0.386  -0.386
 -0.379  -0.378  -0.377  -0.374  -0.365  -0.365  -0.359  -0.355
 -0.354  -0.353  -0.350  -0.349  -0.348  -0.345  -0.341  -0.340
 -0.340  -0.337  -0.332  -0.331  -0.331  -0.327  -0.324  -0.323
 -0.318  -0.315  -0.315  -0.310  -0.310  -0.305  -0.304  -0.303
 -0.302  -0.298  -0.297  -0.293  -0.291  -0.290  -0.286  -0.281
 -0.280  -0.280  -0.270  -0.268  -0.254  -0.252  -0.248  -0.247
 -0.243  -0.240  -0.233  -0.232  -0.193  -0.192

          Ground-State Mulliken Net Atomic Charges

     Atom                 Charge (a.u.)
  ----------------------------------------
      1 C                     0.254374
      2 C                    -0.122678
      3 N                    -0.470046
      4 C                    -0.058652
      5 C                     0.066568
      6 C                     0.047544
      7 C                    -0.007504
      8 C                     0.076647
      9 C                     0.220426
     10 N                    -0.506189
     11 N                    -0.534337
     12 C                     0.223849
     13 C                     0.294736
     14 S                     0.595880
     15 N                    -0.555382
     16 C                    -0.218120
     17 S                     0.288903
     18 C                    -0.121123
     19 C                    -0.241239
     20 S                     0.262533
     21 C                     0.160259
     22 C                     0.043727
     23 C                    -0.312760
     24 C                    -0.041569
     25 N                    -0.422802
     26 S                     0.296642
     27 C                     0.136528
     28 C                    -0.332494
     29 C                    -0.226530
     30 H                     0.096349
     31 H                     0.108523
     32 H                     0.101947
     33 H                     0.119723
     34 H                     0.127922
     35 H                     0.127452
     36 H                     0.112039
     37 H                     0.138599
     38 H                     0.093927
     39 C                    -0.179851
     40 H                     0.119575
     41 H                     0.095386
     42 H                     0.093877
     43 C                    -0.170601
     44 H                     0.094998
     45 C                    -0.182099
     46 H                     0.119893
     47 H                     0.086885
     48 H                     0.084159
     49 C                    -0.171135
     50 H                     0.098229
     51 C                    -0.325741
     52 H                     0.094504
     53 H                     0.100848
     54 H                     0.103428
     55 H                     0.098966
     56 C                     0.269683
     57 C                    -0.115066
     58 N                    -0.475597
     59 C                    -0.057217
     60 C                     0.079217
     61 C                     0.002220
     62 C                     0.053423
     63 C                     0.046188
     64 C                     0.219644
     65 N                    -0.521075
     66 N                    -0.568132
     67 C                     0.256591
     68 C                     0.291361
     69 S                     0.594557
     70 N                    -0.574294
     71 C                    -0.234125
     72 S                     0.370295
     73 C                    -0.113865
     74 C                    -0.229760
     75 S                     0.289451
     76 C                     0.146200
     77 C                     0.046777
     78 C                    -0.323687
     79 C                    -0.074962
     80 N                    -0.421660
     81 S                     0.290272
     82 C                     0.124617
     83 C                    -0.323114
     84 C                    -0.216981
     85 H                     0.091604
     86 H                     0.112043
     87 H                     0.107789
     88 H                     0.109860
     89 H                     0.139090
     90 H                     0.136398
     91 H                     0.116860
     92 H                     0.137209
     93 H                     0.115943
     94 C                    -0.187289
     95 H                     0.103017
     96 H                     0.102458
     97 H                     0.090387
     98 C                    -0.185377
     99 H                     0.089259
    100 C                    -0.161972
    101 H                     0.094012
    102 H                     0.087421
    103 H                     0.095073
    104 C                    -0.183427
    105 H                     0.092772
    106 C                    -0.313210
    107 H                     0.089973
    108 H                     0.101767
    109 H                     0.103586
    110 H                     0.098804
  ----------------------------------------
  Sum of atomic charges =     0.000000

                    Cartesian Multipole Moments
 -----------------------------------------------------------------
    Charge (ESU x 10^10)
                 0.0000
    Dipole Moment (Debye)
         X       0.9798      Y       0.3609      Z      -1.2447
       Tot       1.6246
    Quadrupole Moments (Debye-Ang)
        XX    -437.0944     XY     -16.4867     YY    -449.6554
        XZ      21.5246     YZ       1.4968     ZZ    -420.3015

 Total job time:  91.89s(wall), 1013.05s(cpu)
        *  Thank you very much for using Q-Chem.  Have a nice day.  *
