 Q-Chem 4.4, Q-Chem, Inc., Pleasanton, CA (2016)
 Q-Chem 4.4.2 for Intel X86 Linux

User input:
--------------------------------------------------------------
$comment
SP
$end

$rem
MEM_STATIC 5000
MEM_TOTAL 20000
JOBTYPE SP
EXCHANGE B3LYP
BASIS 6-31g(d,p)
$end

$molecule
0 1
C         -12.141000      7.171000     -2.720000
C         -12.167000      6.546000     -1.418000
N         -11.069000      7.207000     -3.554000
C         -11.053000      5.877000     -1.029000
C          -9.955000      6.623000     -3.102000
C          -9.892000      5.857000     -1.893000
C          -8.705000      5.008000     -1.470000
C          -8.929000      3.777000     -0.838000
C          -7.359000      5.310000     -1.795000
N          -7.983000      2.943000     -0.400000
N          -6.837000      6.453000     -2.355000
C          -6.384000      4.365000     -1.429000
C          -6.728000      3.181000     -0.746000
S          -5.222000      6.194000     -2.518000
N          -5.128000      4.686000     -1.848000
C          -5.683000      2.150000     -0.392000
S          -4.094000      1.811000     -1.210000
C          -5.923000      1.208000      0.555000
C          -3.860000      0.347000     -0.193000
S          -7.180000      1.124000      1.845000
C          -4.959000      0.211000      0.691000
C          -2.517000     -0.117000      0.045000
C          -6.196000     -0.024000      2.746000
C          -5.170000     -0.504000      1.949000
N          -2.361000     -1.111000      0.835000
S          -1.298000      0.054000     -1.160000
C          -1.074000     -1.589000      0.711000
C          -0.290000     -1.017000     -0.248000
C         -13.427000      7.852000     -3.227000
H         -13.036000      6.509000     -0.769000
H         -11.126000      5.388000     -0.062000
H          -9.172000      6.666000     -3.858000
H          -9.982000      3.601000     -0.621000
H          -6.320000     -0.259000      3.794000
H          -4.556000     -1.313000      2.329000
H          -0.765000     -2.332000      1.435000
H           0.751000     -1.149000     -0.510000
H         -13.428000      8.922000     -2.986000
C         -14.766000      7.207000     -2.924000
H         -13.425000      7.760000     -4.320000
H         -15.505000      7.737000     -3.537000
H         -15.084000      7.338000     -1.882000
C         -14.810000      5.751000     -3.369000
H         -14.361000      5.574000     -4.354000
C         -16.327000      5.229000     -3.187000
H         -14.164000      5.172000     -2.697000
H         -17.099000      5.787000     -3.730000
H         -16.558000      5.172000     -2.116000
C         -16.307000      3.855000     -3.852000
H         -16.133000      3.994000     -4.926000
C         -17.679000      3.146000     -3.610000
H         -15.447000      3.197000     -3.677000
H         -18.433000      3.923000     -3.787000
H         -17.802000      2.790000     -2.579000
H         -17.827000      2.310000     -4.305000
C         -10.686000      8.942000      0.256000
C          -9.909000      9.117000     -0.878000
N         -10.220000      8.472000      1.444000
C          -8.524000      8.785000     -0.808000
C          -8.920000      8.099000      1.486000
C          -8.001000      8.297000      0.439000
C          -6.565000      7.937000      0.667000
C          -5.575000      8.783000      0.173000
C          -6.104000      6.755000      1.385000
N          -4.281000      8.473000      0.167000
N          -6.867000      5.830000      2.027000
C          -4.780000      6.433000      1.374000
C          -3.825000      7.285000      0.687000
S          -5.891000      4.759000      2.610000
N          -4.494000      5.313000      2.083000
C          -2.356000      7.129000      0.481000
S          -1.142000      8.460000      0.292000
C          -1.706000      5.910000      0.409000
C           0.193000      7.279000      0.096000
S          -2.302000      4.322000      0.507000
C          -0.337000      6.039000      0.179000
C           1.547000      7.654000      0.043000
C          -0.652000      3.758000      0.132000
C           0.348000      4.748000      0.050000
N           2.472000      6.862000     -0.478000
S           2.025000      9.281000      0.448000
C           3.639000      7.575000     -0.661000
C           3.511000      8.854000     -0.254000
C         -12.134000      9.483000      0.213000
H         -10.136000      9.675000     -1.782000
H          -7.797000      9.001000     -1.585000
H          -8.516000      7.953000      2.486000
H          -5.696000      9.705000     -0.395000
H          -0.478000      2.719000     -0.116000
H           1.386000      4.537000     -0.176000
H           4.513000      7.086000     -1.072000
H           4.246000      9.648000     -0.257000
H         -12.209000     10.555000      0.433000
C         -13.153000      8.760000      1.156000
H         -12.576000      9.434000     -0.790000
H         -12.989000      9.032000      2.206000
H         -12.938000      7.687000      1.077000
C         -14.613000      8.987000      0.814000
H         -14.862000     10.052000      0.906000
C         -15.516000      8.362000      1.893000
H         -14.844000      8.631000     -0.198000
H         -15.108000      8.637000      2.873000
H         -15.379000      7.275000      1.846000
C         -17.024000      8.758000      1.731000
H         -17.216000      9.810000      1.974000
C         -17.944000      7.864000      2.628000
H         -17.279000      8.602000      0.675000
H         -18.916000      8.363000      2.732000
H         -17.515000      8.083000      3.613000
H         -17.936000      6.855000      2.199000
$end

--------------------------------------------------------------

             Standard Nuclear Orientation (Angstroms)
    I     Atom           X                Y                Z
 ----------------------------------------------------------------
    1      C      -5.9343798001    -0.7885588809     2.0423117399
    2      C      -5.7525820384    -0.2151606698     0.7290451769
    3      N      -4.9530692928    -0.9691348886     2.9645145341
    4      C      -4.5156563438     0.2482724654     0.4206257303
    5      C      -3.7252255050    -0.5917783046     2.5952481786
    6      C      -3.4399656878     0.1094436227     1.3789749177
    7      C      -2.0987221564     0.7371775902     1.0388060542
    8      C      -2.0643825133     1.9645906051     0.3626114964
    9      C      -0.8516766367     0.2311840190     1.4830953493
   10      N      -0.9613178970     2.6163841865    -0.0125279171
   11      N      -0.5727737558    -0.9607776021     2.1107685738
   12      C       0.2925706653     0.9902725801     1.1796342014
   13      C       0.2052245946     2.1891195917     0.4435516606
   14      S       1.0446330094    -0.9635045606     2.4037923265
   15      N       1.4405155086     0.4836526195     1.7103854164
   16      C       1.4315859637     3.0219872454     0.1560255513
   17      S       2.9845450568     3.1260422403     1.0975438004
   18      C       1.4273475357     3.9557137932    -0.8288144203
   19      C       3.5383725266     4.4944031625     0.0712862691
   20      S       0.3084710120     4.1973771041    -2.2219831714
   21      C       2.5510917402     4.7761750606    -0.9052557147
   22      C       4.9543602459     4.7237547982    -0.0627495690
   23      C       1.5378411426     5.1358043065    -3.0622000886
   24      C       2.5624723412     5.4701299385    -2.1923482170
   25      N       5.3354833752     5.6496955800    -0.8588970609
   26      S       6.0282238761     4.3994592748     1.2444903926
   27      C       6.6699213642     5.9150793589    -0.6373666940
   28      C       7.2692882671     5.2576528569     0.3970755278
   29      C      -7.3517563419    -1.2314478427     2.4540144316
   30      H      -6.5489250426    -0.0600948480     0.0082654529
   31      H      -4.4292922872     0.7073728136    -0.5598369768
   32      H      -3.0229304213    -0.7348380938     3.4154856516
   33      H      -3.0529306472     2.3023743785     0.0535019538
   34      H       1.5383954551     5.3498978796    -4.1219494150
   35      H       3.3304396098     6.1536346069    -2.5372027409
   36      H       7.1545430626     6.5709388116    -1.3491926473
   37      H       8.2935455890     5.2271104499     0.7430713368
   38      H      -7.5110278488    -2.2948937766     2.2379187755
   39      C      -8.5367800046    -0.3876429871     2.0245178842
   40      H      -7.4215719059    -1.1015893528     3.5409272890
   41      H      -9.3998905030    -0.7672367497     2.5846418374
   42      H      -8.7880996868    -0.5024608261     0.9625836672
   43      C      -8.3739600752     1.0710811475     2.4313477868
   44      H      -7.9817077343     1.2077798442     3.4465357337
   45      C      -9.7639826022     1.8270852911     2.1101125004
   46      H      -7.5894356778     1.5120524963     1.8034889337
   47      H     -10.6585995704     1.4227515349     2.5983457374
   48      H      -9.8962946885     1.8823478264     1.0224128341
   49      C      -9.5693764494     3.2024532313     2.7433521662
   50      H      -9.5069314308     3.0757722629     3.8310679158
   51      C     -10.7810787905     4.1169523057     2.3703938851
   52      H      -8.6009807370     3.7042866747     2.6268964270
   53      H     -11.6651820233     3.4805450724     2.5004758097
   54      H     -10.7608251047     4.4507893698     1.3249424979
   55      H     -10.8432313876     4.9904530036     3.0314223152
   56      C      -4.5609816969    -2.8798867632    -0.7595032681
   57      C      -3.9165811537    -3.1384487003     0.4397480253
   58      N      -3.9303721204    -2.5355976698    -1.9141445900
   59      C      -2.4945840565    -3.0400305045     0.4795866295
   60      C      -2.5873529427    -2.3818537868    -1.8545181972
   61      C      -1.8002635007    -2.6894429479    -0.7294168159
   62      C      -0.3109103879    -2.5774629809    -0.8432930306
   63      C       0.4825215798    -3.5554905797    -0.2484991767
   64      C       0.3954552448    -1.5134239567    -1.5461710769
   65      N       1.8053709006    -3.4611432330    -0.1401467299
   66      N      -0.1499625547    -0.4999589232    -2.2709924686
   67      C       1.7493846355    -1.4119685965    -1.4305725693
   68      C       2.4920493175    -2.3832191189    -0.6463407205
   69      S       1.0334481424     0.3753495986    -2.7933717502
   70      N       2.2727374030    -0.3801271281    -2.1378787724
   71      C       3.9454398350    -2.4620768147    -0.3205026208
   72      S       4.9028893658    -3.9658907020     0.0002966751
   73      C       4.7808039181    -1.3639127467    -0.2212679062
   74      C       6.3953805823    -3.0126698092     0.2817960505
   75      S       4.4661849757     0.2955544675    -0.4049727947
   76      C       6.0867175942    -1.7065381140     0.1264379011
   77      C       7.6598418373    -3.6017666734     0.4574451870
   78      C       6.1517017828     0.5954620526     0.0953366429
   79      C       6.9638875324    -0.5410513391     0.2837925228
   80      N       8.6589281517    -2.9533054178     1.0368021896
   81      S       7.8920630579    -5.2985676381     0.1309826456
   82      C       9.6731654718    -3.8403734854     1.3337531990
   83      C       9.3676149181    -5.0951099300     0.9462621490
   84      C      -6.0774198292    -3.1750346238    -0.8268614997
   85      H      -4.3042512892    -3.6188183465     1.3336528688
   86      H      -1.8777007029    -3.3437380347     1.3199024416
   87      H      -2.0863981038    -2.3400686507    -2.8198317483
   88      H       0.1654225691    -4.4241872146     0.3278369873
   89      H       6.4753202427     1.6003225345     0.3337218445
   90      H       8.0011666614    -0.4945184751     0.5918959164
   91      H      10.5806238465    -3.4862752633     1.8060367444
   92      H       9.9581266987    -5.9979299644     1.0292189000
   93      H      -6.3114320134    -4.2275989333    -1.0282458880
   94      C      -6.8840023923    -2.3297513977    -1.8686195505
   95      H      -6.5836201852    -3.0182517691     0.1338436247
   96      H      -6.6843018389    -2.6626485575    -2.8946210953
   97      H      -6.5009859786    -1.3041767271    -1.7958870141
   98      C      -8.3839634974    -2.3025670817    -1.6461994608
   99      H      -8.7980372098    -3.3151671607    -1.7349352524
  100      C      -9.0819513665    -1.5777734589    -2.8114299698
  101      H      -8.6325609496    -1.8772770706    -0.6656033599
  102      H      -8.6484887181    -1.9509797904    -3.7470132994
  103      H      -8.7707327472    -0.5268036975    -2.7774810133
  104      C     -10.6427906006    -1.7158617639    -2.7685755064
  105      H     -10.9866562303    -2.7304162316    -3.0032085407
  106      C     -11.3273628826    -0.7165103424    -3.7599899137
  107      H     -10.9516562182    -1.4822378917    -1.7416777916
  108      H     -12.3572548512    -1.0533600025    -3.9345059287
  109      H     -10.8635718817    -1.0381196988    -4.7000390238
  110      H     -11.1863003919     0.2924434164    -3.3546509365
 ----------------------------------------------------------------

   10   -5663.4777673334      2.88E-06 Convergence criterion met
 Total energy in the final basis set = -5663.4777673334

                    Orbital Energies (a.u.)
 --------------------------------------------------------------

 Alpha MOs
 -- Occupied --
-88.993 -88.990 -88.927 -88.923 -88.922 -88.918 -88.908 -88.903
-14.389 -14.386 -14.376 -14.375 -14.355 -14.340 -14.340 -14.338
-14.336 -14.329 -10.266 -10.264 -10.263 -10.261 -10.259 -10.256
-10.255 -10.254 -10.246 -10.243 -10.240 -10.240 -10.239 -10.232
-10.232 -10.231 -10.231 -10.230 -10.230 -10.230 -10.229 -10.226
-10.225 -10.225 -10.225 -10.222 -10.220 -10.219 -10.218 -10.217
-10.212 -10.211 -10.210 -10.202 -10.201 -10.200 -10.196 -10.195
-10.185 -10.185 -10.184 -10.182 -10.181 -10.180 -10.177 -10.177
-10.175 -10.175 -10.174 -10.172  -8.047  -8.046  -7.985  -7.985
 -7.984  -7.976  -7.967  -7.963  -6.013  -6.011  -6.007  -6.005
 -6.005  -6.005  -5.949  -5.949  -5.948  -5.946  -5.945  -5.945
 -5.942  -5.942  -5.941  -5.941  -5.937  -5.933  -5.931  -5.928
 -5.928  -5.924  -5.923  -5.919  -1.055  -1.030  -0.987  -0.970
 -0.970  -0.950  -0.941  -0.930  -0.908  -0.906  -0.902  -0.896
 -0.838  -0.836  -0.834  -0.828  -0.815  -0.813  -0.811  -0.809
 -0.808  -0.803  -0.798  -0.792  -0.783  -0.780  -0.771  -0.762
 -0.748  -0.748  -0.738  -0.735  -0.727  -0.713  -0.708  -0.706
 -0.692  -0.689  -0.675  -0.672  -0.655  -0.649  -0.648  -0.640
 -0.635  -0.630  -0.622  -0.621  -0.616  -0.605  -0.600  -0.596
 -0.591  -0.587  -0.585  -0.578  -0.575  -0.575  -0.573  -0.571
 -0.549  -0.547  -0.542  -0.538  -0.525  -0.521  -0.515  -0.512
 -0.507  -0.504  -0.499  -0.498  -0.488  -0.484  -0.481  -0.476
 -0.474  -0.471  -0.469  -0.467  -0.465  -0.462  -0.455  -0.452
 -0.445  -0.443  -0.441  -0.441  -0.437  -0.436  -0.432  -0.428
 -0.424  -0.422  -0.421  -0.420  -0.417  -0.416  -0.415  -0.411
 -0.410  -0.407  -0.405  -0.403  -0.401  -0.398  -0.396  -0.394
 -0.394  -0.391  -0.389  -0.388  -0.387  -0.386  -0.383  -0.381
 -0.376  -0.375  -0.372  -0.370  -0.365  -0.362  -0.359  -0.356
 -0.354  -0.351  -0.347  -0.346  -0.345  -0.340  -0.340  -0.337
 -0.334  -0.333  -0.330  -0.328  -0.327  -0.326  -0.323  -0.320
 -0.317  -0.313  -0.312  -0.307  -0.304  -0.302  -0.301  -0.300
 -0.296  -0.295  -0.292  -0.288  -0.286  -0.282  -0.281  -0.281
 -0.278  -0.271  -0.269  -0.263  -0.260  -0.255  -0.251  -0.249
 -0.245  -0.238  -0.231  -0.230  -0.197  -0.187

          Ground-State Mulliken Net Atomic Charges

     Atom                 Charge (a.u.)
  ----------------------------------------
      1 C                     0.246441
      2 C                    -0.091919
      3 N                    -0.471932
      4 C                    -0.083216
      5 C                     0.082401
      6 C                     0.028010
      7 C                     0.044039
      8 C                     0.068672
      9 C                     0.251943
     10 N                    -0.516400
     11 N                    -0.577561
     12 C                     0.200486
     13 C                     0.293529
     14 S                     0.632337
     15 N                    -0.569180
     16 C                    -0.216883
     17 S                     0.319574
     18 C                    -0.109473
     19 C                    -0.249362
     20 S                     0.259932
     21 C                     0.145772
     22 C                     0.085938
     23 C                    -0.296647
     24 C                    -0.070501
     25 N                    -0.417196
     26 S                     0.258751
     27 C                     0.112694
     28 C                    -0.310597
     29 C                    -0.234729
     30 H                     0.104012
     31 H                     0.114734
     32 H                     0.113904
     33 H                     0.108293
     34 H                     0.138809
     35 H                     0.122142
     36 H                     0.111314
     37 H                     0.144956
     38 H                     0.111300
     39 C                    -0.192587
     40 H                     0.117064
     41 H                     0.098340
     42 H                     0.093673
     43 C                    -0.187857
     44 H                     0.099605
     45 C                    -0.168802
     46 H                     0.099934
     47 H                     0.099842
     48 H                     0.097185
     49 C                    -0.182519
     50 H                     0.093950
     51 C                    -0.319733
     52 H                     0.091535
     53 H                     0.097677
     54 H                     0.103411
     55 H                     0.097479
     56 C                     0.274356
     57 C                    -0.111630
     58 N                    -0.488085
     59 C                    -0.066037
     60 C                     0.083934
     61 C                     0.028488
     62 C                     0.023379
     63 C                     0.043706
     64 C                     0.214814
     65 N                    -0.496364
     66 N                    -0.539251
     67 C                     0.200619
     68 C                     0.250638
     69 S                     0.642798
     70 N                    -0.554605
     71 C                    -0.223317
     72 S                     0.287627
     73 C                    -0.093302
     74 C                    -0.216408
     75 S                     0.327534
     76 C                     0.127777
     77 C                     0.058226
     78 C                    -0.323358
     79 C                    -0.053209
     80 N                    -0.446037
     81 S                     0.274171
     82 C                     0.130800
     83 C                    -0.307658
     84 C                    -0.242371
     85 H                     0.105816
     86 H                     0.106550
     87 H                     0.105390
     88 H                     0.114941
     89 H                     0.127961
     90 H                     0.131630
     91 H                     0.115773
     92 H                     0.124927
     93 H                     0.114017
     94 C                    -0.167115
     95 H                     0.101488
     96 H                     0.108257
     97 H                     0.085416
     98 C                    -0.192041
     99 H                     0.090913
    100 C                    -0.170334
    101 H                     0.094074
    102 H                     0.092861
    103 H                     0.083752
    104 C                    -0.191381
    105 H                     0.093122
    106 C                    -0.313085
    107 H                     0.089965
    108 H                     0.099258
    109 H                     0.107824
    110 H                     0.110203
  ----------------------------------------
  Sum of atomic charges =     0.000000

                    Cartesian Multipole Moments
 -----------------------------------------------------------------
    Charge (ESU x 10^10)
                 0.0000
    Dipole Moment (Debye)
         X       1.3968      Y       0.2503      Z       0.2535
       Tot       1.4415
    Quadrupole Moments (Debye-Ang)
        XX    -390.0175     XY       7.3874     YY    -436.8677
        XZ       4.2225     YZ      -8.3885     ZZ    -445.2913

 Total job time:  115.34s(wall), 1253.09s(cpu)
        *  Thank you very much for using Q-Chem.  Have a nice day.  *
