 Q-Chem 4.4, Q-Chem, Inc., Pleasanton, CA (2016)
 Q-Chem 4.4.2 for Intel X86 Linux

User input:
--------------------------------------------------------------
$comment
SP
$end

$rem
MEM_STATIC 5000
MEM_TOTAL 20000
JOBTYPE SP
EXCHANGE B3LYP
BASIS 6-31g(d,p)
$end

$molecule
0 1
C           4.702000     12.722000     -0.640000
C           5.754000     13.660000     -0.607000
N           4.717000     11.685000     -1.457000
C           6.778000     13.553000     -1.542000
C           5.767000     11.482000     -2.338000
C           6.833000     12.406000     -2.369000
C           8.111000     12.099000     -3.206000
C           8.991000     13.107000     -3.533000
C           8.411000     10.847000     -3.906000
N          10.014000     13.068000     -4.403000
N           7.707000      9.755000     -3.754000
C           9.519000     10.757000     -4.716000
C          10.312000     11.915000     -4.969000
S           8.455000      8.669000     -4.664000
N           9.598000      9.545000     -5.348000
C          11.477000     11.863000     -5.861000
S          12.321000     10.368000     -6.340000
C          12.335000     12.961000     -6.180000
C          13.660000     11.283000     -6.974000
S          12.278000     14.617000     -5.705000
C          13.470000     12.638000     -6.815000
C          14.777000     10.633000     -7.620000
C          13.781000     14.801000     -6.459000
C          14.282000     13.733000     -7.141000
N          15.873000     11.333000     -7.728000
S          14.944000      8.930000     -8.036000
C          16.923000     10.574000     -8.174000
C          16.583000      9.314000     -8.504000
C           3.469000     12.707000      0.204000
H           5.599000     14.509000      0.052000
H           7.555000     14.302000     -1.423000
H           5.721000     10.551000     -2.901000
H           8.913000     14.142000     -3.206000
H          14.261000     15.761000     -6.328000
H          15.237000     13.796000     -7.650000
H          17.912000     10.998000     -8.293000
H          17.312000      8.592000     -8.849000
H           3.531000     11.906000      0.951000
C           2.124000     12.702000     -0.616000
H           3.367000     13.605000      0.825000
H           1.997000     11.712000     -1.069000
H           2.069000     13.380000     -1.476000
C           0.923000     13.075000      0.335000
H           1.084000     12.747000      1.369000
C          -0.309000     12.393000     -0.090000
H           0.812000     14.166000      0.295000
H          -0.229000     11.302000      0.001000
H          -0.459000     12.623000     -1.152000
C          -1.517000     12.820000      0.789000
H          -1.365000     12.577000      1.848000
C          -2.728000     12.146000      0.196000
H          -1.632000     13.910000      0.745000
H          -2.643000     11.112000     -0.158000
H          -2.997000     12.706000     -0.709000
H          -3.619000     12.042000      0.828000
C         -10.686000      8.942000      0.256000
C          -9.909000      9.117000     -0.878000
N         -10.220000      8.472000      1.444000
C          -8.524000      8.785000     -0.808000
C          -8.920000      8.099000      1.486000
C          -8.001000      8.297000      0.439000
C          -6.565000      7.937000      0.667000
C          -5.575000      8.783000      0.173000
C          -6.104000      6.755000      1.385000
N          -4.281000      8.473000      0.167000
N          -6.867000      5.830000      2.027000
C          -4.780000      6.433000      1.374000
C          -3.825000      7.285000      0.687000
S          -5.891000      4.759000      2.610000
N          -4.494000      5.313000      2.083000
C          -2.356000      7.129000      0.481000
S          -1.142000      8.460000      0.292000
C          -1.706000      5.910000      0.409000
C           0.193000      7.279000      0.096000
S          -2.302000      4.322000      0.507000
C          -0.337000      6.039000      0.179000
C           1.547000      7.654000      0.043000
C          -0.652000      3.758000      0.132000
C           0.348000      4.748000      0.050000
N           2.472000      6.862000     -0.478000
S           2.025000      9.281000      0.448000
C           3.639000      7.575000     -0.661000
C           3.511000      8.854000     -0.254000
C         -12.134000      9.483000      0.213000
H         -10.136000      9.675000     -1.782000
H          -7.797000      9.001000     -1.585000
H          -8.516000      7.953000      2.486000
H          -5.696000      9.705000     -0.395000
H          -0.478000      2.719000     -0.116000
H           1.386000      4.537000     -0.176000
H           4.513000      7.086000     -1.072000
H           4.246000      9.648000     -0.257000
H         -12.209000     10.555000      0.433000
C         -13.153000      8.760000      1.156000
H         -12.576000      9.434000     -0.790000
H         -12.989000      9.032000      2.206000
H         -12.938000      7.687000      1.077000
C         -14.613000      8.987000      0.814000
H         -14.862000     10.052000      0.906000
C         -15.516000      8.362000      1.893000
H         -14.844000      8.631000     -0.198000
H         -15.108000      8.637000      2.873000
H         -15.379000      7.275000      1.846000
C         -17.024000      8.758000      1.731000
H         -17.216000      9.810000      1.974000
C         -17.944000      7.864000      2.628000
H         -17.279000      8.602000      0.675000
H         -18.916000      8.363000      2.732000
H         -17.515000      8.083000      3.613000
H         -17.936000      6.855000      2.199000
$end

--------------------------------------------------------------

             Standard Nuclear Orientation (Angstroms)
    I     Atom           X                Y                Z
 ----------------------------------------------------------------
    1      C      -2.8916352877    -2.5005252595     2.2374016259
    2      C      -4.0156191547    -3.2284257656     2.6783756838
    3      N      -2.9946062927    -1.5255203395     1.3531814168
    4      C      -5.2473233371    -2.9897451934     2.0782203777
    5      C      -4.2191419959    -1.1848398972     0.8015301250
    6      C      -5.3737340527    -1.9000400808     1.1842818459
    7      C      -6.7825563972    -1.4133650775     0.7298931986
    8      C      -7.8665466357    -2.2614211774     0.7860983091
    9      C      -7.0835705903    -0.1689418425     0.0169378931
   10      N      -9.0879746536    -2.0860377635     0.2547751915
   11      N      -6.2054212335     0.7837484195    -0.1631147990
   12      C      -8.3584050215     0.0753184322    -0.4380325358
   13      C      -9.3614287859    -0.9316596043    -0.3207271133
   14      S      -7.0174229467     1.9348240164    -0.9264484012
   15      N      -8.4373160096     1.2441302199    -1.1467363250
   16      C     -10.7208887141    -0.7189468132    -0.8327964174
   17      S     -11.4267825521     0.8752718394    -1.2029082616
   18      C     -11.7958274152    -1.6589096868    -0.7656727627
   19      C     -13.0214157307     0.1847037118    -1.3140958820
   20      S     -11.8551323445    -3.2684258792    -0.1515469192
   21      C     -13.0058777826    -1.1711837780    -1.0717455419
   22      C     -14.1668676193     0.9895769611    -1.6713409286
   23      C     -13.5263897599    -3.2182601974    -0.4079900035
   24      C     -14.0393133181    -2.1169515210    -1.0250618169
   25      N     -15.3382777716     0.4954242286    -1.3772468414
   26      S     -14.1853705425     2.6685291605    -2.2023128242
   27      C     -16.3423924985     1.4063480202    -1.5759135503
   28      C     -15.9277226744     2.5630867906    -2.1255537544
   29      C      -1.4726116419    -2.6625061729     2.6767011551
   30      H      -3.8003686047    -4.0531546279     3.3511286135
   31      H      -6.0572123098    -3.5772369974     2.4999124836
   32      H      -4.2034105610    -0.3107446686     0.1522566438
   33      H      -7.8545810133    -3.2733790383     1.1861434460
   34      H     -14.0867341573    -4.0661916577    -0.0389542399
   35      H     -15.1019868185    -2.0338240412    -1.2222669227
   36      H     -17.3736188202     1.1631026864    -1.3535130537
   37      H     -16.6052542272     3.3850254910    -2.3182134748
   38      H      -1.1763218762    -1.8229765876     3.3176820051
   39      C      -0.4609599561    -2.9479398221     1.5034413805
   40      H      -1.3264388889    -3.5278419032     3.3341786072
   41      H      -0.3261942186    -2.0244710493     0.9285660708
   42      H      -0.7793065127    -3.6717764386     0.7438197493
   43      C       0.9002720172    -3.4790296980     2.0958281280
   44      H       1.1178659144    -3.0697941735     3.0897296228
   45      C       2.0328801520    -3.0571389973     1.2575083503
   46      H       0.8217778599    -4.5725361677     2.1436221432
   47      H       2.1561368091    -1.9664057727     1.2490923456
   48      H       1.8116696746    -3.3697335033     0.2296004752
   49      C       3.3701401212    -3.6465519693     1.7852981978
   50      H       3.5905824701    -3.3209994321     2.8095319193
   51      C       4.4301975412    -3.2381181395     0.7943864596
   52      H       3.2943290429    -4.7400276850     1.8280128292
   53      H       4.4032135244    -2.2273838641     0.3708476923
   54      H       4.3173644722    -3.8875117519    -0.0834191195
   55      H       5.4769620417    -3.2624699411     1.1227339437
   56      C      12.4199255155    -1.5350900862    -1.8253315301
   57      C      11.3149460342    -1.6292983532    -2.6562678383
   58      N      12.4206591653    -0.9223964275    -0.6112450660
   59      C      10.0880855544    -1.0477910963    -2.2203645540
   60      C      11.2714017233    -0.3176504593    -0.2312679011
   61      C      10.0562369731    -0.4037619093    -0.9354933254
   62      C       8.8343882622     0.2233583724    -0.3375920962
   63      C       7.6211570712    -0.4550295544    -0.4254095091
   64      C       8.8067118976     1.5078055166     0.3513190392
   65      N       6.4529525465     0.0840846679    -0.0859598901
   66      N       9.8646247773     2.3132927714     0.6376206656
   67      C       7.6106830002     2.0638711930     0.6934985832
   68      C       6.3701087425     1.3624137728     0.4127299973
   69      S       9.2946833280     3.5747666755     1.3610543763
   70      N       7.7348455041     3.2551492360     1.3293580778
   71      C       4.9521494311     1.7709208544     0.6300922650
   72      S       3.5465272529     0.6741780598     0.9501852744
   73      C       4.5102424821     3.0817438762     0.6197843104
   74      C       2.4175426142     2.0651999415     1.0266954703
   75      S       5.3478981260     4.5379805761     0.3662656800
   76      C       3.1342743162     3.1909359075     0.8159747965
   77      C       1.0715807034     1.9400773434     1.4133230302
   78      C       3.7718558823     5.3704557875     0.4318161843
   79      C       2.6532539074     4.5756090426     0.7539532264
   80      N       0.1669387222     2.8564833388     1.1032376591
   81      S       0.4930624555     0.4523116112     2.1143991766
   82      C      -1.0961853878     2.3582631188     1.3482705039
   83      C      -1.0508288679     1.1021570705     1.8361376800
   84      C      13.6815737780    -2.3317172572    -2.2313645488
   85      H      11.1633035600    -2.2690414380    -3.5210466224
   86      H       9.1332625768    -1.1713219786    -2.7223279019
   87      H      11.2220024867    -0.0448502135     0.8211919515
   88      H       7.4163193889    -1.4140363977    -0.9004846593
   89      H       3.6946499439     6.4082116941     0.1344898967
   90      H       1.6423597805     4.9586834007     0.8201959649
   91      H      -1.9665017091     2.9740974337     1.1606123108
   92      H      -1.8657798047     0.4560157888     2.1345106256
   93      H      13.6520877840    -3.3854536023    -1.9280836706
   94      C      15.0406883022    -1.7541828768    -1.7121336275
   95      H      13.7961849768    -2.4201473366    -3.3189390953
   96      H      15.1666576035    -1.9325592911    -0.6371017256
   97      H      14.9821968702    -0.6661236251    -1.8405891339
   98      C      16.2708374430    -2.2614810546    -2.4397837151
   99      H      16.3664889282    -3.3471348948    -2.3097970516
  100      C      17.5475060000    -1.7514585266    -1.7467689847
  101      H      16.2325559702    -2.0106799408    -3.5074326884
  102      H      17.4224492771    -1.8923722965    -0.6664944245
  103      H      17.5742524778    -0.6620324910    -1.8691721665
  104      C      18.8515899770    -2.4233036372    -2.2991394475
  105      H      18.9421280591    -3.4773730950    -2.0104225729
  106      C      20.1303506560    -1.6624804426    -1.8131721723
  107      H      18.7910880752    -2.3756810931    -3.3939310319
  108      H      20.9968371769    -2.3231486925    -1.9447760203
  109      H      19.9958621319    -1.7443200575    -0.7280721243
  110      H      20.1487180939    -0.6944847596    -2.3277914440
 ----------------------------------------------------------------

   10   -5663.4957047402      3.67E-06 Convergence criterion met
 Total energy in the final basis set = -5663.4957047402

                    Orbital Energies (a.u.)
 --------------------------------------------------------------

 Alpha MOs
 -- Occupied --
-88.992 -88.991 -88.930 -88.928 -88.917 -88.916 -88.910 -88.906
-14.393 -14.382 -14.378 -14.376 -14.346 -14.340 -14.340 -14.333
-14.331 -14.329 -10.270 -10.264 -10.262 -10.258 -10.257 -10.256
-10.255 -10.254 -10.244 -10.241 -10.239 -10.234 -10.232 -10.231
-10.230 -10.230 -10.229 -10.229 -10.229 -10.229 -10.228 -10.227
-10.225 -10.223 -10.222 -10.221 -10.219 -10.217 -10.215 -10.215
-10.213 -10.208 -10.204 -10.203 -10.201 -10.201 -10.197 -10.191
-10.188 -10.184 -10.179 -10.176 -10.171 -10.171 -10.171 -10.170
-10.170 -10.169 -10.164 -10.157  -8.048  -8.048  -7.991  -7.988
 -7.978  -7.975  -7.972  -7.967  -6.013  -6.013  -6.007  -6.007
 -6.007  -6.006  -5.955  -5.952  -5.952  -5.948  -5.948  -5.945
 -5.942  -5.940  -5.939  -5.936  -5.936  -5.935  -5.932  -5.932
 -5.931  -5.928  -5.928  -5.923  -1.062  -1.056  -0.978  -0.968
 -0.964  -0.949  -0.940  -0.932  -0.927  -0.919  -0.908  -0.902
 -0.859  -0.836  -0.832  -0.828  -0.814  -0.809  -0.809  -0.806
 -0.803  -0.799  -0.798  -0.792  -0.784  -0.780  -0.771  -0.760
 -0.755  -0.745  -0.745  -0.737  -0.732  -0.714  -0.713  -0.707
 -0.697  -0.688  -0.678  -0.671  -0.655  -0.648  -0.646  -0.640
 -0.637  -0.630  -0.629  -0.622  -0.609  -0.604  -0.596  -0.591
 -0.587  -0.587  -0.584  -0.580  -0.575  -0.570  -0.569  -0.567
 -0.557  -0.549  -0.548  -0.538  -0.526  -0.521  -0.514  -0.512
 -0.508  -0.506  -0.505  -0.499  -0.486  -0.486  -0.481  -0.478
 -0.475  -0.474  -0.473  -0.468  -0.464  -0.463  -0.449  -0.448
 -0.443  -0.443  -0.441  -0.432  -0.431  -0.429  -0.427  -0.426
 -0.422  -0.421  -0.420  -0.417  -0.416  -0.416  -0.413  -0.411
 -0.409  -0.407  -0.405  -0.405  -0.403  -0.401  -0.398  -0.398
 -0.395  -0.392  -0.391  -0.388  -0.387  -0.385  -0.384  -0.382
 -0.378  -0.374  -0.373  -0.366  -0.363  -0.361  -0.359  -0.357
 -0.355  -0.354  -0.352  -0.345  -0.344  -0.342  -0.341  -0.340
 -0.337  -0.332  -0.328  -0.326  -0.325  -0.324  -0.322  -0.319
 -0.318  -0.314  -0.309  -0.308  -0.305  -0.302  -0.301  -0.297
 -0.296  -0.296  -0.289  -0.284  -0.283  -0.282  -0.280  -0.279
 -0.276  -0.273  -0.269  -0.266  -0.258  -0.252  -0.252  -0.250
 -0.243  -0.240  -0.236  -0.231  -0.194  -0.186

          Ground-State Mulliken Net Atomic Charges

     Atom                 Charge (a.u.)
  ----------------------------------------
      1 C                     0.280358
      2 C                    -0.124048
      3 N                    -0.493570
      4 C                    -0.078489
      5 C                     0.062095
      6 C                     0.033981
      7 C                     0.080200
      8 C                     0.027014
      9 C                     0.210554
     10 N                    -0.533294
     11 N                    -0.548520
     12 C                     0.181981
     13 C                     0.327156
     14 S                     0.602396
     15 N                    -0.531631
     16 C                    -0.242982
     17 S                     0.325821
     18 C                    -0.118654
     19 C                    -0.241751
     20 S                     0.293782
     21 C                     0.178200
     22 C                     0.060188
     23 C                    -0.304541
     24 C                    -0.047609
     25 N                    -0.431480
     26 S                     0.262678
     27 C                     0.128215
     28 C                    -0.302583
     29 C                    -0.233550
     30 H                     0.093292
     31 H                     0.108783
     32 H                     0.140305
     33 H                     0.102608
     34 H                     0.123112
     35 H                     0.127904
     36 H                     0.116181
     37 H                     0.129572
     38 H                     0.116829
     39 C                    -0.180473
     40 H                     0.092725
     41 H                     0.126082
     42 H                     0.094074
     43 C                    -0.179009
     44 H                     0.089309
     45 C                    -0.180527
     46 H                     0.090188
     47 H                     0.114585
     48 H                     0.088068
     49 C                    -0.175359
     50 H                     0.091780
     51 C                    -0.335442
     52 H                     0.090174
     53 H                     0.131881
     54 H                     0.094937
     55 H                     0.087749
     56 C                     0.270546
     57 C                    -0.112137
     58 N                    -0.477785
     59 C                    -0.083056
     60 C                     0.089172
     61 C                     0.037437
     62 C                     0.012882
     63 C                     0.050026
     64 C                     0.229613
     65 N                    -0.501534
     66 N                    -0.530348
     67 C                     0.190819
     68 C                     0.265098
     69 S                     0.622529
     70 N                    -0.551784
     71 C                    -0.231634
     72 S                     0.316321
     73 C                    -0.083562
     74 C                    -0.228184
     75 S                     0.283613
     76 C                     0.129368
     77 C                     0.050137
     78 C                    -0.313739
     79 C                    -0.047365
     80 N                    -0.450000
     81 S                     0.279145
     82 C                     0.121274
     83 C                    -0.299278
     84 C                    -0.240812
     85 H                     0.099515
     86 H                     0.100006
     87 H                     0.106720
     88 H                     0.116702
     89 H                     0.120121
     90 H                     0.135482
     91 H                     0.111811
     92 H                     0.143827
     93 H                     0.115496
     94 C                    -0.168735
     95 H                     0.098718
     96 H                     0.106651
     97 H                     0.098034
     98 C                    -0.178315
     99 H                     0.087260
    100 C                    -0.171326
    101 H                     0.087574
    102 H                     0.090284
    103 H                     0.088908
    104 C                    -0.190737
    105 H                     0.091089
    106 C                    -0.313204
    107 H                     0.090469
    108 H                     0.097602
    109 H                     0.106941
    110 H                     0.111101
  ----------------------------------------
  Sum of atomic charges =     0.000000

                    Cartesian Multipole Moments
 -----------------------------------------------------------------
    Charge (ESU x 10^10)
                 0.0000
    Dipole Moment (Debye)
         X      -5.5720      Y      -0.0901      Z      -0.1248
       Tot       5.5742
    Quadrupole Moments (Debye-Ang)
        XX    -394.9404     XY     -16.1752     YY    -418.0791
        XZ     -11.2516     YZ      -7.3624     ZZ    -440.4791

 Total job time:  92.64s(wall), 1016.52s(cpu)
        *  Thank you very much for using Q-Chem.  Have a nice day.  *
