 Q-Chem 4.4, Q-Chem, Inc., Pleasanton, CA (2016)
 Q-Chem 4.4.2 for Intel X86 Linux

User input:
--------------------------------------------------------------
$comment
SP
$end

$rem
MEM_STATIC 5000
MEM_TOTAL 20000
JOBTYPE SP
EXCHANGE B3LYP
BASIS 6-31g(d,p)
$end

$molecule
0 1
C           8.567000     17.963000     -6.612000
C           7.163000     17.959000     -6.543000
N           9.304000     16.937000     -6.366000
C           6.449000     16.774000     -6.338000
C           8.688000     15.728000     -6.265000
C           7.278000     15.581000     -6.136000
C           6.688000     14.209000     -6.057000
C           5.381000     14.114000     -5.448000
C           7.224000     13.056000     -6.640000
N           4.864000     12.894000     -5.130000
N           8.358000     12.992000     -7.405000
C           6.488000     11.907000     -6.489000
C           5.381000     11.747000     -5.664000
S           8.411000     11.439000     -7.968000
N           7.102000     10.887000     -7.137000
C           4.640000     10.424000     -5.377000
S           5.230000      8.794000     -5.866000
C           3.492000     10.340000     -4.626000
C           3.995000      8.075000     -4.908000
S           2.471000     11.555000     -3.851000
C           3.237000      9.020000     -4.282000
C           3.915000      6.672000     -4.717000
C           1.535000     10.236000     -3.168000
C           2.075000      9.017000     -3.495000
N           4.636000      5.953000     -5.527000
S           2.882000      5.826000     -3.533000
C           4.335000      4.641000     -5.321000
C           3.382000      4.437000     -4.341000
C           9.265000     19.315000     -6.654000
H           6.566000     18.857000     -6.671000
H           5.369000     16.682000     -6.407000
H           9.456000     14.979000     -6.078000
H           4.936000     14.992000     -4.982000
H           0.560000     10.368000     -2.717000
H           1.488000      8.161000     -3.183000
H           4.747000      3.807000     -5.873000
H           3.049000      3.487000     -3.944000
H          10.339000     19.096000     -6.688000
C           8.979000     20.054000     -5.376000
H           8.975000     19.924000     -7.519000
H           9.281000     19.463000     -4.502000
H           7.900000     20.234000     -5.301000
C           9.635000     21.410000     -5.207000
H           9.679000     21.636000     -4.134000
C           9.029000     22.541000     -6.088000
H          10.680000     21.254000     -5.501000
H           7.958000     22.603000     -5.859000
H           9.076000     22.238000     -7.142000
C           9.856000     23.851000     -5.887000
H          10.893000     23.601000     -6.142000
C           9.670000     24.333000     -4.425000
H           9.540000     24.660000     -6.558000
H           8.645000     24.195000     -4.061000
H           9.811000     25.420000     -4.376000
H          10.400000     23.913000     -3.722000
C         -10.686000      8.942000      0.256000
C          -9.909000      9.117000     -0.878000
N         -10.220000      8.472000      1.444000
C          -8.524000      8.785000     -0.808000
C          -8.920000      8.099000      1.486000
C          -8.001000      8.297000      0.439000
C          -6.565000      7.937000      0.667000
C          -5.575000      8.783000      0.173000
C          -6.104000      6.755000      1.385000
N          -4.281000      8.473000      0.167000
N          -6.867000      5.830000      2.027000
C          -4.780000      6.433000      1.374000
C          -3.825000      7.285000      0.687000
S          -5.891000      4.759000      2.610000
N          -4.494000      5.313000      2.083000
C          -2.356000      7.129000      0.481000
S          -1.142000      8.460000      0.292000
C          -1.706000      5.910000      0.409000
C           0.193000      7.279000      0.096000
S          -2.302000      4.322000      0.507000
C          -0.337000      6.039000      0.179000
C           1.547000      7.654000      0.043000
C          -0.652000      3.758000      0.132000
C           0.348000      4.748000      0.050000
N           2.472000      6.862000     -0.478000
S           2.025000      9.281000      0.448000
C           3.639000      7.575000     -0.661000
C           3.511000      8.854000     -0.254000
C         -12.134000      9.483000      0.213000
H         -10.136000      9.675000     -1.782000
H          -7.797000      9.001000     -1.585000
H          -8.516000      7.953000      2.486000
H          -5.696000      9.705000     -0.395000
H          -0.478000      2.719000     -0.116000
H           1.386000      4.537000     -0.176000
H           4.513000      7.086000     -1.072000
H           4.246000      9.648000     -0.257000
H         -12.209000     10.555000      0.433000
C         -13.153000      8.760000      1.156000
H         -12.576000      9.434000     -0.790000
H         -12.989000      9.032000      2.206000
H         -12.938000      7.687000      1.077000
C         -14.613000      8.987000      0.814000
H         -14.862000     10.052000      0.906000
C         -15.516000      8.362000      1.893000
H         -14.844000      8.631000     -0.198000
H         -15.108000      8.637000      2.873000
H         -15.379000      7.275000      1.846000
C         -17.024000      8.758000      1.731000
H         -17.216000      9.810000      1.974000
C         -17.944000      7.864000      2.628000
H         -17.279000      8.602000      0.675000
H         -18.916000      8.363000      2.732000
H         -17.515000      8.083000      3.613000
H         -17.936000      6.855000      2.199000
$end

--------------------------------------------------------------

             Standard Nuclear Orientation (Angstroms)
    I     Atom           X                Y                Z
 ----------------------------------------------------------------
    1      C      11.6238006133     3.2157502412    -0.2737080836
    2      C      10.4220201147     3.8349605820    -0.6587992248
    3      N      11.7231503835     1.9750048263     0.0534637956
    4      C       9.2530119864     3.0929364595    -0.8559443430
    5      C      10.6621992332     1.1658906958    -0.2130976054
    6      C       9.3742677669     1.6608293732    -0.5632664841
    7      C       8.2739874523     0.6936139171    -0.8642689607
    8      C       6.9277370571     1.1997636205    -0.7243498722
    9      C       8.4390139078    -0.5896086309    -1.3959645137
   10      N       5.8697935884     0.3415761934    -0.7572581856
   11      N       9.6274071574    -1.1650478014    -1.7591011895
   12      C       7.2854934915    -1.2907676522    -1.6458938556
   13      C       6.0044334917    -0.9268202794    -1.2482739532
   14      S       9.2121840042    -2.5926952107    -2.4809042151
   15      N       7.5945039111    -2.4906527482    -2.1955194709
   16      C       4.7261582085    -1.7788737626    -1.3959091870
   17      S       4.7026414712    -3.5116294458    -1.8869547100
   18      C       3.4684775661    -1.3302170820    -1.0704747320
   19      C       3.0324607815    -3.5893578445    -1.4814861417
   20      S       2.8566924175     0.2272928316    -0.5055209276
   21      C       2.5788219219    -2.3934497644    -1.0087487420
   22      C       2.3074843493    -4.8076885017    -1.5184940130
   23      C       1.2793588281    -0.5264836107    -0.3437005867
   24      C       1.3310836368    -1.8652181535    -0.6430404742
   25      N       2.8892775192    -5.7885149910    -2.1449108912
   26      S       0.6745525386    -5.0838750574    -0.8537266191
   27      C       2.0123392738    -6.8271440594    -2.2262126255
   28      C       0.7879547925    -6.5675086535    -1.6399557724
   29      C      12.7932826724     4.1180252491     0.0938290212
   30      H      10.3450291810     4.9014996828    -0.8479122668
   31      H       8.3334176418     3.4869450796    -1.2787072180
   32      H      10.9248082690     0.1585049138     0.1062836410
   33      H       6.7635586805     2.1936980111    -0.3105807484
   34      H       0.3617813701     0.0328961307    -0.2148754593
   35      H       0.3700927606    -2.3662302231    -0.6545488147
   36      H       2.1972666090    -7.7688517477    -2.7252041190
   37      H      -0.0293893837    -7.2633959136    -1.5032538377
   38      H      13.6124269167     3.4456783094     0.3758667840
   39      C      12.4219604013     4.9341954806     1.3009689982
   40      H      13.1072886623     4.7739922136    -0.7273369668
   41      H      12.1224757093     4.2892456815     2.1368575530
   42      H      11.5679551849     5.5746609712     1.0504793864
   43      C      13.4847397609     5.8631163201     1.8534534835
   44      H      13.2446384517     6.0689986321     2.9043125773
   45      C      13.7597234148     7.1265590951     0.9870503762
   46      H      14.3963653146     5.2545707258     1.8909782698
   47      H      12.8092257186     7.6609623639     0.8674958873
   48      H      14.0369914808     6.8117777806    -0.0273307867
   49      C      14.9352503245     7.9392442542     1.6180094215
   50      H      15.7870002899     7.2507951941     1.6767792093
   51      C      14.4754761514     8.4846611789     2.9947781341
   52      H      15.2445149770     8.7901290730     0.9975834389
   53      H      13.4323290103     8.8222700924     2.9893685621
   54      H      15.0350184802     9.3977916917     3.2334327987
   55      H      14.6659784069     7.7999777338     3.8304972679
   56      C     -10.6920429302     3.7943819928    -1.2193222957
   57      C      -9.5738972463     3.5833715743    -2.0102298965
   58      N     -10.9120532224     3.1919871482    -0.0201075849
   59      C      -8.5779613561     2.6742937236    -1.5465078202
   60      C      -9.9948998621     2.2831757645     0.3845954946
   61      C      -8.7782827945     2.0317876060    -0.2761774655
   62      C      -7.8062493076     1.0783874798     0.3482095137
   63      C      -6.4487318122     1.3882306552     0.3166586601
   64      C      -8.1676581719    -0.1700629033     1.0084551298
   65      N      -5.4933821342     0.5375362204     0.6829890728
   66      N      -9.4196788885    -0.6480495884     1.2406853042
   67      C      -7.1905030684    -1.0448976378     1.3780672117
   68      C      -5.7928147470    -0.7182777718     1.1551662931
   69      S      -9.2560135175    -2.0277616351     1.9542077739
   70      N      -7.6692423592    -2.1605106582     1.9822967046
   71      C      -4.5565285090    -1.5125970803     1.4108734964
   72      S      -2.9126400073    -0.8606180789     1.8028326466
   73      C      -4.5011259976    -2.8946059126     1.3858305472
   74      C      -2.2243543804    -2.5143322643     1.8858645016
   75      S      -5.7041190734    -4.0524063578     1.0713948803
   76      C      -3.2200906155    -3.3896782312     1.6257341722
   77      C      -0.9135476223    -2.7784763113     2.3203337931
   78      C      -4.4296396667    -5.2961791464     1.1711570578
   79      C      -3.1459569473    -4.8529321600     1.5486683622
   80      N      -0.2919140923    -3.9088997644     2.0202595173
   81      S       0.0325288347    -1.5228291979     3.0739435490
   82      C       1.0498885809    -3.7900281888     2.3188932976
   83      C       1.3408514467    -2.5781366743     2.8332215661
   84      C     -11.6619801508     4.9192801345    -1.6495082544
   85      H      -9.2150926432     4.1649101586    -2.8547304185
   86      H      -7.6082700206     2.5297348591    -2.0131077007
   87      H     -10.0649810710     1.9946979115     1.4316872539
   88      H      -5.9641918797     2.2563066130    -0.1294513995
   89      H      -4.6360158158    -6.3098982046     0.8532206549
   90      H      -2.2869830719    -5.5062456739     1.6402452913
   91      H       1.7184198670    -4.6239118129     2.1467828067
   92      H       2.2924707038    -2.1916536045     3.1734003813
   93      H     -11.3490383513     5.9181779942    -1.3216675981
   94      C     -13.1476967733     4.7420579861    -1.1895327902
   95      H     -11.7049294257     5.0496944809    -2.7380492311
   96      H     -13.2598925697     4.9355860844    -0.1155965824
   97      H     -13.3926992978     3.6832963190    -1.3405046264
   98      C     -14.1563742496     5.5844286286    -1.9465495994
   99      H     -13.9477382580     6.6513404560    -1.7953537807
  100      C     -15.5507704280     5.4466108254    -1.3086306776
  101      H     -14.1489150462     5.3460509941    -3.0176991984
  102      H     -15.4330119414     5.5333634404    -0.2218483063
  103      H     -15.8781213922     4.4104951159    -1.4564568689
  104      C     -16.5908355178     6.4655471738    -1.8892831786
  105      H     -16.3923210030     7.4987804955    -1.5800294149
  106      C     -18.0497751566     6.0902371571    -1.4639803199
  107      H     -16.5038691547     6.4161569887    -2.9822124816
  108      H     -18.6896730333     6.9699471449    -1.6097268287
  109      H     -17.9397764375     6.1175985641    -0.3733939478
  110      H     -18.3197631110     5.1730385030    -2.0006730937
 ----------------------------------------------------------------

   10   -5663.4877336101      3.70E-06 Convergence criterion met
 Total energy in the final basis set = -5663.4877336101

                    Orbital Energies (a.u.)
 --------------------------------------------------------------

 Alpha MOs
 -- Occupied --
-88.998 -88.989 -88.926 -88.926 -88.924 -88.920 -88.914 -88.908
-14.384 -14.382 -14.379 -14.378 -14.349 -14.346 -14.345 -14.340
-14.335 -14.322 -10.271 -10.266 -10.263 -10.263 -10.261 -10.259
-10.251 -10.248 -10.247 -10.242 -10.241 -10.237 -10.237 -10.237
-10.232 -10.231 -10.230 -10.229 -10.228 -10.226 -10.224 -10.224
-10.224 -10.223 -10.222 -10.221 -10.220 -10.219 -10.219 -10.218
-10.218 -10.218 -10.211 -10.206 -10.205 -10.200 -10.198 -10.193
-10.187 -10.182 -10.179 -10.178 -10.177 -10.174 -10.174 -10.173
-10.173 -10.172 -10.172 -10.172  -8.054  -8.044  -7.989  -7.985
 -7.984  -7.979  -7.975  -7.967  -6.019  -6.013  -6.012  -6.009
 -6.004  -6.002  -5.952  -5.949  -5.949  -5.948  -5.946  -5.945
 -5.945  -5.943  -5.942  -5.941  -5.939  -5.939  -5.936  -5.936
 -5.932  -5.931  -5.928  -5.924  -1.062  -1.027  -0.977  -0.975
 -0.956  -0.948  -0.946  -0.936  -0.916  -0.914  -0.909  -0.889
 -0.845  -0.845  -0.834  -0.829  -0.816  -0.815  -0.814  -0.810
 -0.804  -0.802  -0.799  -0.791  -0.784  -0.781  -0.765  -0.763
 -0.752  -0.744  -0.744  -0.738  -0.725  -0.722  -0.712  -0.704
 -0.694  -0.688  -0.679  -0.673  -0.655  -0.653  -0.647  -0.645
 -0.635  -0.632  -0.627  -0.621  -0.613  -0.610  -0.598  -0.595
 -0.593  -0.592  -0.584  -0.584  -0.573  -0.572  -0.570  -0.561
 -0.557  -0.545  -0.540  -0.535  -0.528  -0.522  -0.518  -0.514
 -0.510  -0.506  -0.503  -0.498  -0.486  -0.483  -0.482  -0.477
 -0.474  -0.471  -0.470  -0.467  -0.465  -0.452  -0.450  -0.450
 -0.448  -0.444  -0.443  -0.440  -0.438  -0.435  -0.434  -0.428
 -0.425  -0.424  -0.420  -0.420  -0.418  -0.415  -0.414  -0.412
 -0.412  -0.409  -0.409  -0.407  -0.404  -0.400  -0.398  -0.397
 -0.395  -0.395  -0.391  -0.390  -0.389  -0.387  -0.383  -0.380
 -0.378  -0.376  -0.369  -0.368  -0.364  -0.361  -0.361  -0.358
 -0.354  -0.351  -0.347  -0.346  -0.344  -0.344  -0.341  -0.340
 -0.336  -0.334  -0.334  -0.330  -0.328  -0.327  -0.320  -0.315
 -0.313  -0.312  -0.311  -0.309  -0.304  -0.303  -0.301  -0.300
 -0.299  -0.298  -0.294  -0.291  -0.288  -0.287  -0.285  -0.283
 -0.275  -0.271  -0.268  -0.264  -0.256  -0.254  -0.250  -0.247
 -0.246  -0.242  -0.237  -0.227  -0.195  -0.188

          Ground-State Mulliken Net Atomic Charges

     Atom                 Charge (a.u.)
  ----------------------------------------
      1 C                     0.276809
      2 C                    -0.107898
      3 N                    -0.464850
      4 C                    -0.075455
      5 C                     0.073692
      6 C                     0.010271
      7 C                     0.000346
      8 C                     0.064085
      9 C                     0.268183
     10 N                    -0.530652
     11 N                    -0.571240
     12 C                     0.202435
     13 C                     0.307238
     14 S                     0.611795
     15 N                    -0.565836
     16 C                    -0.228227
     17 S                     0.359566
     18 C                    -0.121892
     19 C                    -0.224076
     20 S                     0.277200
     21 C                     0.149967
     22 C                     0.072415
     23 C                    -0.306908
     24 C                    -0.096657
     25 N                    -0.441549
     26 S                     0.314690
     27 C                     0.117967
     28 C                    -0.314138
     29 C                    -0.223793
     30 H                     0.089636
     31 H                     0.108278
     32 H                     0.115106
     33 H                     0.118950
     34 H                     0.137593
     35 H                     0.115932
     36 H                     0.112173
     37 H                     0.125009
     38 H                     0.113720
     39 C                    -0.178733
     40 H                     0.099984
     41 H                     0.099362
     42 H                     0.085242
     43 C                    -0.175952
     44 H                     0.095493
     45 C                    -0.178801
     46 H                     0.087191
     47 H                     0.087924
     48 H                     0.087078
     49 C                    -0.173851
     50 H                     0.099681
     51 C                    -0.318694
     52 H                     0.091077
     53 H                     0.105552
     54 H                     0.094655
     55 H                     0.108991
     56 C                     0.270345
     57 C                    -0.111589
     58 N                    -0.476727
     59 C                    -0.081716
     60 C                     0.090027
     61 C                     0.035939
     62 C                     0.014369
     63 C                     0.050943
     64 C                     0.229786
     65 N                    -0.495430
     66 N                    -0.529599
     67 C                     0.192034
     68 C                     0.261067
     69 S                     0.626169
     70 N                    -0.551868
     71 C                    -0.214983
     72 S                     0.287967
     73 C                    -0.083792
     74 C                    -0.222367
     75 S                     0.289125
     76 C                     0.130813
     77 C                     0.058819
     78 C                    -0.311966
     79 C                    -0.052687
     80 N                    -0.449031
     81 S                     0.275024
     82 C                     0.126793
     83 C                    -0.293899
     84 C                    -0.241209
     85 H                     0.100810
     86 H                     0.100240
     87 H                     0.107271
     88 H                     0.116402
     89 H                     0.121410
     90 H                     0.134863
     91 H                     0.125635
     92 H                     0.133910
     93 H                     0.116410
     94 C                    -0.168760
     95 H                     0.099503
     96 H                     0.106894
     97 H                     0.098062
     98 C                    -0.178927
     99 H                     0.087685
    100 C                    -0.171000
    101 H                     0.087912
    102 H                     0.090293
    103 H                     0.088909
    104 C                    -0.191068
    105 H                     0.091381
    106 C                    -0.313066
    107 H                     0.090654
    108 H                     0.098046
    109 H                     0.106946
    110 H                     0.111141
  ----------------------------------------
  Sum of atomic charges =     0.000000

                    Cartesian Multipole Moments
 -----------------------------------------------------------------
    Charge (ESU x 10^10)
                 0.0000
    Dipole Moment (Debye)
         X      -1.7152      Y       0.1866      Z      -0.4466
       Tot       1.7822
    Quadrupole Moments (Debye-Ang)
        XX    -469.2022     XY      21.1066     YY    -405.2103
        XZ      10.1492     YZ      -7.1503     ZZ    -444.4034

 Total job time:  93.44s(wall), 1020.18s(cpu)
        *  Thank you very much for using Q-Chem.  Have a nice day.  *
