 Q-Chem 4.4, Q-Chem, Inc., Pleasanton, CA (2016)
 Q-Chem 4.4.2 for Intel X86 Linux

User input:
--------------------------------------------------------------
$comment
SP
$end

$rem
MEM_STATIC 5000
MEM_TOTAL 20000
JOBTYPE SP
EXCHANGE B3LYP
BASIS 6-31g(d,p)
$end

$molecule
0 1
C           1.258000      6.866000      3.804000
C           0.080000      6.161000      3.629000
N           2.422000      6.277000      3.805000
C           0.126000      4.773000      3.405000
C           2.456000      4.950000      3.529000
C           1.308000      4.106000      3.401000
C           1.492000      2.683000      3.185000
C           2.103000      2.230000      2.003000
C           1.472000      1.745000      4.264000
N           2.617000      0.996000      1.735000
N           1.020000      1.916000      5.511000
C           1.869000      0.421000      4.003000
C           2.605000      0.200000      2.809000
S           1.046000      0.423000      6.153000
N           1.661000     -0.453000      4.974000
C           3.409000     -0.965000      2.586000
S           3.540000     -1.899000      1.081000
C           4.391000     -1.251000      3.497000
C           4.954000     -2.757000      1.765000
S           4.881000     -0.418000      4.924000
C           5.235000     -2.223000      3.020000
C           5.666000     -3.887000      1.182000
C           6.154000     -1.651000      5.092000
C           6.323000     -2.356000      3.939000
N           5.002000     -4.660000      0.391000
S           7.429000     -4.017000      1.298000
C           5.896000     -5.606000     -0.195000
C           7.237000     -5.317000      0.111000
C           1.313000      8.367000      4.209000
H          -0.859000      6.701000      3.545000
H          -0.807000      4.244000      3.240000
H           3.473000      4.590000      3.376000
H           2.052000      2.881000      1.131000
H           6.724000     -1.597000      6.011000
H           7.223000     -2.938000      3.781000
H           5.526000     -6.356000     -0.882000
H           8.126000     -5.885000     -0.128000
H           1.865000      9.046000      3.548000
C           1.811000      8.711000      5.648000
H           0.318000      8.809000      4.073000
H           2.591000      8.014000      5.979000
H           1.011000      8.457000      6.355000
C           2.260000     10.166000      5.879000
H           3.102000     10.386000      5.211000
C           2.775000     10.462000      7.349000
H           1.463000     10.870000      5.608000
H           3.198000     11.474000      7.345000
H           3.573000      9.744000      7.575000
C           1.684000     10.503000      8.436000
H           1.018000     11.322000      8.136000
C           2.264000     10.550000      9.829000
H           1.073000      9.594000      8.385000
H           2.911000      9.669000      9.919000
H           1.518000     10.435000     10.625000
H           2.909000     11.375000     10.158000
C         -10.686000      8.942000      0.256000
C          -9.909000      9.117000     -0.878000
N         -10.220000      8.472000      1.444000
C          -8.524000      8.785000     -0.808000
C          -8.920000      8.099000      1.486000
C          -8.001000      8.297000      0.439000
C          -6.565000      7.937000      0.667000
C          -5.575000      8.783000      0.173000
C          -6.104000      6.755000      1.385000
N          -4.281000      8.473000      0.167000
N          -6.867000      5.830000      2.027000
C          -4.780000      6.433000      1.374000
C          -3.825000      7.285000      0.687000
S          -5.891000      4.759000      2.610000
N          -4.494000      5.313000      2.083000
C          -2.356000      7.129000      0.481000
S          -1.142000      8.460000      0.292000
C          -1.706000      5.910000      0.409000
C           0.193000      7.279000      0.096000
S          -2.302000      4.322000      0.507000
C          -0.337000      6.039000      0.179000
C           1.547000      7.654000      0.043000
C          -0.652000      3.758000      0.132000
C           0.348000      4.748000      0.050000
N           2.472000      6.862000     -0.478000
S           2.025000      9.281000      0.448000
C           3.639000      7.575000     -0.661000
C           3.511000      8.854000     -0.254000
C         -12.134000      9.483000      0.213000
H         -10.136000      9.675000     -1.782000
H          -7.797000      9.001000     -1.585000
H          -8.516000      7.953000      2.486000
H          -5.696000      9.705000     -0.395000
H          -0.478000      2.719000     -0.116000
H           1.386000      4.537000     -0.176000
H           4.513000      7.086000     -1.072000
H           4.246000      9.648000     -0.257000
H         -12.209000     10.555000      0.433000
C         -13.153000      8.760000      1.156000
H         -12.576000      9.434000     -0.790000
H         -12.989000      9.032000      2.206000
H         -12.938000      7.687000      1.077000
C         -14.613000      8.987000      0.814000
H         -14.862000     10.052000      0.906000
C         -15.516000      8.362000      1.893000
H         -14.844000      8.631000     -0.198000
H         -15.108000      8.637000      2.873000
H         -15.379000      7.275000      1.846000
C         -17.024000      8.758000      1.731000
H         -17.216000      9.810000      1.974000
C         -17.944000      7.864000      2.628000
H         -17.279000      8.602000      0.675000
H         -18.916000      8.363000      2.732000
H         -17.515000      8.083000      3.613000
H         -17.936000      6.855000      2.199000
$end

--------------------------------------------------------------

             Standard Nuclear Orientation (Angstroms)
    I     Atom           X                Y                Z
 ----------------------------------------------------------------
    1      C       0.9028636624     3.4787314537     0.5077028562
    2      C       0.2570343311     2.2762418538     0.7363012748
    3      N       2.1989695041     3.5534359635     0.3798479255
    4      C       1.0034249169     1.0853521790     0.7956213885
    5      C       2.8992244259     2.3924432891     0.3796141152
    6      C       2.3551607070     1.1027397395     0.6750517970
    7      C       3.2376415208    -0.0482079977     0.7196378874
    8      C       3.9001733618    -0.4650261771    -0.4478243882
    9      C       3.7953581580    -0.5270955408     1.9460570139
   10      N       4.9600722172    -1.3149332642    -0.5620538054
   11      N       3.4202326767    -0.2484714287     3.1991346162
   12      C       4.8034633473    -1.5060305539     1.8818996491
   13      C       5.4500243903    -1.6738046405     0.6289097555
   14      S       4.2725364342    -1.2892070308     4.1114595098
   15      N       5.1596277293    -2.0534871640     3.0322992288
   16      C       6.7236728871    -2.3137104190     0.4815662749
   17      S       7.2044531450    -3.4526367213    -0.7936745734
   18      C       7.7784959672    -1.8167193099     1.2001684649
   19      C       8.9070139649    -3.2853267923    -0.2676422148
   20      S       7.8716536924    -0.4837542655     2.2886737834
   21      C       8.9653478753    -2.3498757483     0.7622463709
   22      C      10.0559702806    -4.0432572897    -0.7463631625
   23      C       9.6097923106    -0.8420662177     2.4284188678
   24      C      10.0308988235    -1.6727301398     1.4346071384
   25      N       9.8337058013    -5.2293510708    -1.2023083826
   26      S      11.6300198344    -3.2664599657    -0.9861107787
   27      C      11.0408694028    -5.7478911805    -1.7603587332
   28      C      12.0526747419    -4.7738116785    -1.8138103880
   29      C       0.1974421612     4.8635343374     0.5766410814
   30      H      -0.8289453455     2.2459720218     0.7467357891
   31      H       0.4744986954     0.1497569343     0.9454666100
   32      H       3.9388005807     2.5418931400     0.0893656694
   33      H       3.4483312806    -0.1990833861    -1.4027585040
   34      H      10.1378204642    -0.2602347057     3.1734258212
   35      H      11.0866800730    -1.7650248166     1.2098947761
   36      H      11.0644129080    -6.7433293047    -2.1845257336
   37      H      13.0854379183    -4.8829060382    -2.1164068884
   38      H       0.2595900841     5.5039828434    -0.3114069730
   39      C       0.5537340844     5.7988848258     1.7746546579
   40      H      -0.8889918704     4.7102594018     0.5693685899
   41      H       1.6061101085     5.6927517869     2.0662202286
   42      H       0.0626423726     5.4036838577     2.6729920808
   43      C       0.1932254121     7.2862906660     1.6024792713
   44      H       0.7408036734     7.6847343347     0.7393519976
   45      C       0.5914586666     8.1989392540     2.8362636242
   46      H      -0.8725268287     7.4071062439     1.3704410041
   47      H       0.4217773401     9.2400208728     2.5355206933
   48      H       1.6618356641     8.0541923814     3.0279545896
   49      C      -0.2709447880     8.0157471727     4.0996843550
   50      H      -1.2878014455     8.2867832392     3.7884625873
   51      C       0.3064807979     8.7316709062     5.2968021021
   52      H      -0.3190197986     6.9534904412     4.3670837374
   53      H       1.3230823523     8.3402864160     5.4241184815
   54      H      -0.2043608810     8.5030002218     6.2402571870
   55      H       0.4491457246     9.8200058840     5.3048454049
   56      C     -10.6023727078    -1.5812524040    -0.7505957672
   57      C     -10.1231070730    -1.3842385699    -2.0358194833
   58      N      -9.8678374332    -1.4068744976     0.3805321107
   59      C      -8.7681461050    -0.9703497580    -2.1974543390
   60      C      -8.5658401664    -1.0759604079     0.2186927381
   61      C      -7.9711720110    -0.7665385013    -1.0184822167
   62      C      -6.5458641423    -0.3061854110    -1.0343728293
   63      C      -6.1858901573     0.7316434952    -1.8906332404
   64      C      -5.4806423562    -0.8576849290    -0.2059286078
   65      N      -4.9256639326     1.0981478597    -2.1098965834
   66      N      -5.5949698150    -1.8091336904     0.7592825021
   67      C      -4.1890673859    -0.4880537935    -0.4339372035
   68      C      -3.8771142678     0.4828485893    -1.4683122879
   69      S      -4.1610231740    -2.0584869457     1.3259622926
   70      N      -3.3055343779    -1.0752919050     0.4106916050
   71      C      -2.5644377023     1.0043904343    -1.9474858873
   72      S      -2.2435960358     2.6388834072    -2.6592241443
   73      C      -1.3814869524     0.2884277171    -1.9066213426
   74      C      -0.5085750370     2.2498527054    -2.8910845481
   75      S      -1.0504830132    -1.2863490588    -1.3615722637
   76      C      -0.3044622154     0.9908222112    -2.4454735398
   77      C       0.4411399505     3.1991274560    -3.3078205441
   78      C       0.6156998564    -1.0633811313    -1.9576770768
   79      C       0.9413336692     0.2159036205    -2.4518603868
   80      N       1.5993029607     2.8415922138    -3.8418214733
   81      S       0.0290971811     4.8925344098    -3.3550608355
   82      C       2.2034794691     3.9433871228    -4.4117036764
   83      C       1.4587698358     5.0565673667    -4.2564255172
   84      C     -12.1178655965    -1.8448176835    -0.5923281210
   85      H     -10.6783401785    -1.2894124170    -2.9647076355
   86      H      -8.3246958908    -0.6618117148    -3.1392983725
   87      H      -8.0679467053    -0.7168158309     1.1173858304
   88      H      -6.8148214351     1.2747929804    -2.5954616483
   89      H       1.2866165263    -1.9103199475    -2.0198579708
   90      H       1.9151843098     0.4780680911    -2.8467346959
   91      H       3.1687280197     3.8434530167    -4.8915228194
   92      H       1.6679576387     6.0680983719    -4.5784744088
   93      H     -12.7241531402    -0.9307237125    -0.5848030704
   94      C     -12.5314205534    -2.6668702179     0.6739818443
   95      H     -12.5464163508    -2.3846300323    -1.4459796184
   96      H     -12.4517073995    -2.0632710849     1.5865024741
   97      H     -11.7946502269    -3.4740077258     0.7714165879
   98      C     -13.9166025944    -3.2814213287     0.6132311596
   99      H     -14.6770438129    -2.4936229989     0.5371197616
  100      C     -14.2721534441    -3.9275590929     1.9646617287
  101      H     -14.0063498803    -3.9761013940    -0.2315208936
  102      H     -13.9923177042    -3.2235891228     2.7575092802
  103      H     -13.5917893690    -4.7748385176     2.1122059655
  104      C     -15.7722150918    -4.3740682778     2.0516594352
  105      H     -16.4655989622    -3.5264825419     2.1102617267
  106      C     -16.0160090633    -5.3030086226     3.2877335977
  107      H     -15.9902568499    -4.9272734353     1.1292068102
  108      H     -17.0938223985    -5.3295954663     3.4931905375
  109      H     -15.6887003853    -4.6338412659     4.0922900457
  110      H     -15.5159426181    -6.2568448855     3.0820252268
 ----------------------------------------------------------------

   10   -5663.4699959357      3.96E-06 Convergence criterion met
 Total energy in the final basis set = -5663.4699959357

                    Orbital Energies (a.u.)
 --------------------------------------------------------------

 Alpha MOs
 -- Occupied --
-88.997 -88.987 -88.927 -88.927 -88.924 -88.924 -88.913 -88.910
-14.387 -14.384 -14.381 -14.379 -14.350 -14.345 -14.345 -14.341
-14.334 -14.320 -10.270 -10.267 -10.263 -10.262 -10.261 -10.255
-10.254 -10.252 -10.246 -10.238 -10.237 -10.236 -10.236 -10.235
-10.235 -10.234 -10.232 -10.231 -10.230 -10.229 -10.227 -10.226
-10.225 -10.222 -10.222 -10.221 -10.220 -10.219 -10.217 -10.217
-10.208 -10.207 -10.206 -10.204 -10.204 -10.203 -10.199 -10.189
-10.186 -10.179 -10.177 -10.177 -10.175 -10.175 -10.173 -10.173
-10.172 -10.172 -10.171 -10.169  -8.054  -8.044  -7.988  -7.987
 -7.985  -7.982  -7.974  -7.972  -6.018  -6.013  -6.012  -6.009
 -6.003  -6.002  -5.952  -5.950  -5.949  -5.949  -5.947  -5.946
 -5.946  -5.945  -5.944  -5.943  -5.941  -5.939  -5.938  -5.936
 -5.935  -5.933  -5.930  -5.927  -1.062  -1.054  -0.972  -0.965
 -0.962  -0.955  -0.941  -0.935  -0.920  -0.915  -0.914  -0.908
 -0.847  -0.843  -0.836  -0.833  -0.814  -0.813  -0.811  -0.803
 -0.801  -0.798  -0.796  -0.794  -0.783  -0.776  -0.764  -0.763
 -0.750  -0.746  -0.743  -0.739  -0.730  -0.720  -0.711  -0.709
 -0.693  -0.691  -0.677  -0.671  -0.652  -0.650  -0.646  -0.644
 -0.634  -0.634  -0.628  -0.626  -0.609  -0.609  -0.598  -0.596
 -0.593  -0.591  -0.584  -0.582  -0.574  -0.572  -0.569  -0.559
 -0.555  -0.547  -0.544  -0.541  -0.528  -0.526  -0.517  -0.516
 -0.509  -0.507  -0.505  -0.500  -0.488  -0.486  -0.482  -0.476
 -0.476  -0.474  -0.473  -0.469  -0.462  -0.458  -0.450  -0.448
 -0.447  -0.440  -0.438  -0.437  -0.433  -0.432  -0.431  -0.425
 -0.424  -0.422  -0.419  -0.418  -0.416  -0.415  -0.412  -0.411
 -0.410  -0.408  -0.403  -0.401  -0.400  -0.397  -0.396  -0.395
 -0.394  -0.393  -0.390  -0.389  -0.387  -0.385  -0.384  -0.378
 -0.377  -0.377  -0.371  -0.368  -0.363  -0.362  -0.360  -0.357
 -0.356  -0.355  -0.350  -0.347  -0.346  -0.343  -0.341  -0.338
 -0.334  -0.334  -0.331  -0.328  -0.327  -0.321  -0.320  -0.319
 -0.316  -0.311  -0.310  -0.309  -0.307  -0.303  -0.299  -0.299
 -0.298  -0.295  -0.292  -0.291  -0.287  -0.285  -0.285  -0.284
 -0.277  -0.274  -0.270  -0.259  -0.255  -0.252  -0.251  -0.247
 -0.247  -0.243  -0.238  -0.235  -0.197  -0.193

          Ground-State Mulliken Net Atomic Charges

     Atom                 Charge (a.u.)
  ----------------------------------------
      1 C                     0.273858
      2 C                    -0.120851
      3 N                    -0.467081
      4 C                    -0.072405
      5 C                     0.067905
      6 C                     0.055811
      7 C                    -0.018100
      8 C                     0.059415
      9 C                     0.253826
     10 N                    -0.475498
     11 N                    -0.541372
     12 C                     0.201221
     13 C                     0.213232
     14 S                     0.604676
     15 N                    -0.505467
     16 C                    -0.201170
     17 S                     0.347843
     18 C                    -0.107163
     19 C                    -0.219359
     20 S                     0.243347
     21 C                     0.153660
     22 C                     0.072339
     23 C                    -0.290423
     24 C                    -0.087190
     25 N                    -0.422369
     26 S                     0.263132
     27 C                     0.105251
     28 C                    -0.305390
     29 C                    -0.229253
     30 H                     0.097013
     31 H                     0.110568
     32 H                     0.099484
     33 H                     0.099122
     34 H                     0.134737
     35 H                     0.110675
     36 H                     0.122500
     37 H                     0.131241
     38 H                     0.113919
     39 C                    -0.168461
     40 H                     0.087606
     41 H                     0.109831
     42 H                     0.090424
     43 C                    -0.191050
     44 H                     0.092852
     45 C                    -0.177022
     46 H                     0.086882
     47 H                     0.089707
     48 H                     0.090481
     49 C                    -0.166117
     50 H                     0.090550
     51 C                    -0.319393
     52 H                     0.097556
     53 H                     0.102929
     54 H                     0.097456
     55 H                     0.100623
     56 C                     0.270525
     57 C                    -0.111722
     58 N                    -0.476863
     59 C                    -0.081917
     60 C                     0.089423
     61 C                     0.037030
     62 C                     0.013835
     63 C                     0.050498
     64 C                     0.229627
     65 N                    -0.493983
     66 N                    -0.528230
     67 C                     0.192939
     68 C                     0.258530
     69 S                     0.625640
     70 N                    -0.557332
     71 C                    -0.220243
     72 S                     0.290912
     73 C                    -0.084839
     74 C                    -0.214740
     75 S                     0.278878
     76 C                     0.135259
     77 C                     0.066164
     78 C                    -0.319905
     79 C                    -0.047711
     80 N                    -0.447831
     81 S                     0.278176
     82 C                     0.135231
     83 C                    -0.305214
     84 C                    -0.241169
     85 H                     0.100668
     86 H                     0.100502
     87 H                     0.106922
     88 H                     0.116857
     89 H                     0.127951
     90 H                     0.142585
     91 H                     0.119087
     92 H                     0.127401
     93 H                     0.116212
     94 C                    -0.168578
     95 H                     0.099404
     96 H                     0.106820
     97 H                     0.097991
     98 C                    -0.178908
     99 H                     0.087599
    100 C                    -0.171052
    101 H                     0.087932
    102 H                     0.090288
    103 H                     0.088973
    104 C                    -0.191158
    105 H                     0.091353
    106 C                    -0.313173
    107 H                     0.090657
    108 H                     0.097964
    109 H                     0.106975
    110 H                     0.111218
  ----------------------------------------
  Sum of atomic charges =     0.000000

                    Cartesian Multipole Moments
 -----------------------------------------------------------------
    Charge (ESU x 10^10)
                 0.0000
    Dipole Moment (Debye)
         X       1.8450      Y       0.4472      Z      -0.7982
       Tot       2.0594
    Quadrupole Moments (Debye-Ang)
        XX    -383.1661     XY      -5.0779     YY    -440.8017
        XZ      12.0781     YZ      -2.5362     ZZ    -436.8496

 Total job time:  98.28s(wall), 1070.08s(cpu)
        *  Thank you very much for using Q-Chem.  Have a nice day.  *
