 Q-Chem 4.4, Q-Chem, Inc., Pleasanton, CA (2016)
 Q-Chem 4.4.2 for Intel X86 Linux

User input:
--------------------------------------------------------------
$comment
SP
$end

$rem
MEM_STATIC 5000
MEM_TOTAL 20000
JOBTYPE SP
EXCHANGE B3LYP
BASIS 6-31g(d,p)
$end

$molecule
0 1
C          14.096000    -16.660000    -17.294000
C          13.737000    -17.079000    -16.061000
N          14.837000    -15.572000    -17.478000
C          14.004000    -16.242000    -14.979000
C          15.145000    -14.728000    -16.420000
C          14.670000    -14.998000    -15.086000
C          14.710000    -14.002000    -13.919000
C          13.547000    -13.951000    -13.132000
C          15.767000    -13.172000    -13.567000
N          13.396000    -12.939000    -12.209000
N          16.941000    -13.142000    -14.282000
C          15.637000    -12.133000    -12.607000
C          14.357000    -11.969000    -11.978000
S          17.859000    -12.100000    -13.496000
N          16.771000    -11.455000    -12.482000
C          13.935000    -10.980000    -10.966000
S          12.292000    -11.149000    -10.246000
C          14.431000     -9.732000    -10.668000
C          12.429000     -9.609000     -9.349000
S          15.977000     -8.952000    -11.034000
C          13.623000     -9.050000     -9.722000
C          11.304000     -8.901000     -8.726000
C          15.504000     -7.615000     -9.953000
C          14.243000     -7.812000     -9.386000
N          11.435000     -7.644000     -8.359000
S           9.753000     -9.719000     -8.634000
C          10.217000     -7.335000     -7.723000
C           9.201000     -8.208000     -7.807000
C          13.731000    -17.556000    -18.516000
H          13.171000    -17.994000    -15.922000
H          13.746000    -16.540000    -13.967000
H          15.829000    -13.955000    -16.766000
H          12.661000    -14.569000    -13.269000
H          16.255000     -6.869000     -9.727000
H          13.857000     -7.098000     -8.668000
H          10.315000     -6.392000     -7.201000
H           8.199000     -8.133000     -7.405000
H          14.330000    -17.315000    -19.403000
C          12.226000    -17.649000    -18.762000
H          14.144000    -18.528000    -18.221000
H          11.771000    -18.200000    -17.930000
H          12.195000    -18.277000    -19.661000
C          11.727000    -16.217000    -19.059000
H          11.956000    -15.499000    -18.262000
C          10.293000    -16.145000    -19.385000
H          12.308000    -15.840000    -19.910000
H           9.722000    -16.320000    -18.465000
H          10.095000    -16.954000    -20.099000
C           9.896000    -14.800000    -20.019000
H          10.425000    -13.986000    -19.508000
C           8.420000    -14.660000    -20.105000
H          10.299000    -14.784000    -21.039000
H           7.993000    -15.313000    -20.876000
H           8.176000    -13.640000    -20.427000
H           7.896000    -14.909000    -19.174000
C          11.355000     -1.576000      4.323000
C          10.731000     -2.386000      3.291000
N          12.622000     -1.180000      4.284000
C          11.511000     -2.591000      2.126000
C          13.344000     -1.388000      3.138000
C          12.885000     -2.180000      2.037000
C          13.851000     -2.466000      0.892000
C          13.289000     -2.697000     -0.368000
C          15.243000     -2.544000      0.977000
N          14.011000     -3.031000     -1.496000
N          15.926000     -2.365000      2.094000
C          16.033000     -2.809000     -0.175000
C          15.383000     -3.065000     -1.400000
S          17.398000     -2.923000      1.758000
N          17.294000     -3.156000      0.112000
C          15.964000     -3.466000     -2.666000
S          15.172000     -4.505000     -3.880000
C          17.072000     -2.846000     -3.230000
C          16.244000     -3.926000     -5.087000
S          17.984000     -1.506000     -2.538000
C          17.238000     -3.108000     -4.591000
C          16.106000     -4.276000     -6.497000
C          18.515000     -1.190000     -4.248000
C          18.043000     -2.086000     -5.222000
N          17.129000     -4.136000     -7.342000
S          14.526000     -4.504000     -7.310000
C          16.716000     -4.279000     -8.603000
C          15.354000     -4.463000     -8.850000
C          10.520000     -1.092000      5.499000
H           9.698000     -2.694000      3.422000
H          11.093000     -3.242000      1.364000
H          14.356000     -1.003000      3.258000
H          12.239000     -2.647000     -0.651000
H          19.276000     -0.428000     -4.356000
H          18.346000     -2.118000     -6.262000
H          17.470000     -4.212000     -9.376000
H          14.785000     -4.584000     -9.763000
H          10.739000     -0.021000      5.589000
C          10.823000     -1.838000      6.783000
H           9.456000     -1.148000      5.240000
H          11.908000     -1.987000      6.837000
H          10.426000     -2.858000      6.706000
C          10.311000     -1.115000      8.107000
H          10.803000     -0.138000      8.190000
C          10.678000     -1.846000      9.402000
H           9.227000     -0.944000      8.095000
H          11.728000     -2.151000      9.487000
H          10.069000     -2.758000      9.388000
C          10.308000     -1.066000     10.736000
H           9.256000     -0.767000     10.824000
C          11.199000      0.189000     10.797000
H          10.472000     -1.762000     11.568000
H          11.013000      0.702000     11.749000
H          10.898000      0.894000     10.012000
H          12.272000      0.012000     10.657000
$end

--------------------------------------------------------------

             Standard Nuclear Orientation (Angstroms)
    I     Atom           X                Y                Z
 ----------------------------------------------------------------
    1      C     -13.9494256505    -0.7788825542    -1.7824429901
    2      C     -13.1403821726    -1.5630410208    -2.5276108572
    3      N     -13.5145908963     0.3430405816    -1.2177411095
    4      C     -11.7775962296    -1.2713927904    -2.5459897365
    5      C     -12.1682038897     0.6797844594    -1.2379794170
    6      C     -11.1934199426    -0.1754291250    -1.8676515392
    7      C      -9.6728347391    -0.0458625033    -1.7047462618
    8      C      -8.9830931609    -1.2555869977    -1.5166978556
    9      C      -8.9277709444     1.1263010087    -1.7358210567
   10      N      -7.6587077216    -1.2297390913    -1.1369491309
   11      N      -9.5131025847     2.3591064878    -1.9030888705
   12      C      -7.5576718247     1.1720660047    -1.3633227781
   13      C      -6.9393263186    -0.0595383257    -0.9611578764
   14      S      -8.2883277175     3.3817778062    -1.9219010810
   15      N      -7.0858145996     2.4104880502    -1.4335124951
   16      C      -5.5524385082    -0.3056743636    -0.5180910051
   17      S      -5.0379413744    -2.0104531917    -0.2434424174
   18      C      -4.6256830355     0.5406389542     0.0451159389
   19      C      -3.4493009131    -1.5194848641     0.4124154832
   20      S      -4.5113591773     2.3059511703     0.1005671376
   21      C      -3.4604427024    -0.1504683116     0.4664112192
   22      C      -2.5411244631    -2.4031551907     1.1536039138
   23      C      -2.8777569465     2.1307741906     0.7937595910
   24      C      -2.5072705830     0.7930185588     0.9472806780
   25      N      -1.5512514295    -1.8953024870     1.8565519976
   26      S      -2.9062697462    -4.1199205382     1.2043450613
   27      C      -0.8484428057    -3.0178745305     2.3355019381
   28      C      -1.3916745494    -4.2361036961     2.1863108772
   29      C     -15.4617642967    -1.1458545275    -1.6959075064
   30      H     -13.5193433396    -2.4517949311    -3.0209737266
   31      H     -11.0887011942    -1.8647834182    -3.1399789561
   32      H     -12.0402519188     1.6701931060    -0.8045973615
   33      H      -9.4326762684    -2.2473040399    -1.5088660174
   34      H      -2.2838895586     3.0294344397     0.9001752021
   35      H      -1.5165511054     0.5460271402     1.3103043077
   36      H       0.1014213329    -2.6979534170     2.7438468894
   37      H      -1.0125183608    -5.1983895894     2.5048692617
   38      H     -16.0767854547    -0.3015970674    -1.3603045919
   39      C     -15.7178053140    -2.4604805147    -0.9607942422
   40      H     -15.7412633748    -1.2234843616    -2.7533723399
   41      H     -15.3171968972    -3.2818039561    -1.5672517435
   42      H     -16.8136709868    -2.5070834467    -0.9820684975
   43      C     -15.1904901634    -2.2826160769     0.4807802352
   44      H     -14.1316665160    -2.0001256601     0.5283790591
   45      C     -15.4243284504    -3.4510819664     1.3455479038
   46      H     -15.7015046506    -1.4111362772     0.9088902124
   47      H     -14.7458117876    -4.2532586320     1.0305975341
   48      H     -16.4627810311    -3.7613191727     1.1756946922
   49      C     -15.2274155332    -3.1326719993     2.8383407213
   50      H     -14.3570537067    -2.4758323978     2.9591299131
   51      C     -15.2226985250    -4.3716399391     3.6571863687
   52      H     -16.0760508332    -2.5163152797     3.1592574113
   53      H     -16.2242880140    -4.8118754867     3.7358639272
   54      H     -14.9399788045    -4.1185254776     4.6865660989
   55      H     -14.5750997019    -5.1630530110     3.2601736310
   56      C      12.3948110374    -2.7680150712     0.3054677272
   57      C      11.0889332651    -3.3794196309     0.4825770382
   58      N      12.5758627218    -1.4788431918     0.0430136302
   59      C       9.9983584028    -2.4764290762     0.5364707090
   60      C      11.4996669245    -0.6333146040     0.1119194575
   61      C      10.1454560619    -1.0739363401     0.2606185678
   62      C       9.0276296722    -0.0413564081     0.1595253116
   63      C       7.8441001661    -0.3194561871     0.8514237298
   64      C       9.0557522762     1.1468485878    -0.5741987556
   65      N       6.7147048626     0.4733453197     0.8174234471
   66      N      10.0908467792     1.5479848488    -1.2910586234
   67      C       7.9435580913     2.0325403155    -0.5760038771
   68      C       6.7759432022     1.6578982316     0.1204010194
   69      S       9.5049007136     2.7272496397    -2.2168262838
   70      N       7.9956336663     2.9512383811    -1.5487222323
   71      C       5.4943685391     2.3335414388     0.1672052868
   72      S       3.9115168559     1.5297087539     0.3375419055
   73      C       5.3558842610     3.6964802698     0.3982460788
   74      C       3.2105664967     3.0034359324     0.8648660918
   75      S       6.6632733185     4.8511954144     0.6503864906
   76      C       4.0701598695     4.0794161175     0.7839842357
   77      C       1.8361719966     3.0941297334     1.3470054830
   78      C       5.3974708858     5.8665964966     1.4705217499
   79      C       4.0935830326     5.3432310328     1.4860477765
   80      N       1.2013680565     4.2667373058     1.3935827148
   81      S       1.0305780042     1.8008126914     2.2891850563
   82      C       0.0646091906     4.1552385097     2.0838625851
   83      C      -0.2417195075     2.9332720152     2.6862491844
   84      C      13.6459553860    -3.6157497434     0.4799404889
   85      H      11.0327313420    -4.4492609540     0.6597630629
   86      H       9.0054089001    -2.9101061428     0.6081957886
   87      H      11.8085316848     0.3854542386    -0.1193414452
   88      H       7.6341857604    -1.1651473144     1.5039813590
   89      H       5.7193744946     6.8626450430     1.7456478302
   90      H       3.2021872869     5.8571107774     1.8263039045
   91      H      -0.5490899776     5.0426719048     2.1636704821
   92      H      -1.0740411478     2.6055376621     3.2960047755
   93      H      14.3021666012    -3.0325488054     1.1374855497
   94      C      14.3200586366    -3.9485402483    -0.8360444226
   95      H      13.3987378266    -4.5204442761     1.0480287575
   96      H      14.2838554386    -3.0531708267    -1.4679818620
   97      H      13.7025528902    -4.6738437599    -1.3806171626
   98      C      15.8249206037    -4.4536612228    -0.7015369474
   99      H      16.4240826564    -3.6617545906    -0.2353066175
  100      C      16.5163539887    -4.7264472340    -2.0407839993
  101      H      15.9083416957    -5.3500651760    -0.0738890570
  102      H      16.4216317834    -3.9296621036    -2.7883876107
  103      H      16.0104972249    -5.6146013208    -2.4384173136
  104      C      18.0604242876    -5.0857909816    -1.9331969035
  105      H      18.2972520289    -5.9293128245    -1.2727178945
  106      C      18.7915601201    -3.8267572011    -1.4303039387
  107      H      18.3819616792    -5.4116962749    -2.9301600149
  108      H      19.8697545914    -4.0304532344    -1.4217244302
  109      H      18.5144916469    -3.6309389928    -0.3868772328
  110      H      18.5771804064    -2.9049651336    -1.9840175132
 ----------------------------------------------------------------

    9   -5663.5028280422      7.17E-06 Convergence criterion met
 Total energy in the final basis set = -5663.5028280422

                    Orbital Energies (a.u.)
 --------------------------------------------------------------

 Alpha MOs
 -- Occupied --
-88.992 -88.989 -88.928 -88.928 -88.925 -88.919 -88.912 -88.910
-14.393 -14.386 -14.384 -14.383 -14.353 -14.350 -14.347 -14.346
-14.327 -14.324 -10.274 -10.274 -10.272 -10.263 -10.262 -10.261
-10.260 -10.259 -10.247 -10.245 -10.240 -10.240 -10.239 -10.238
-10.235 -10.235 -10.233 -10.233 -10.232 -10.231 -10.231 -10.231
-10.230 -10.230 -10.229 -10.227 -10.226 -10.225 -10.224 -10.221
-10.220 -10.211 -10.210 -10.210 -10.208 -10.207 -10.195 -10.193
-10.185 -10.183 -10.182 -10.182 -10.181 -10.179 -10.176 -10.172
-10.170 -10.170 -10.167 -10.167  -8.048  -8.045  -7.988  -7.987
 -7.986  -7.978  -7.972  -7.969  -6.013  -6.010  -6.007  -6.006
 -6.005  -6.003  -5.952  -5.952  -5.950  -5.949  -5.948  -5.947
 -5.946  -5.944  -5.943  -5.942  -5.938  -5.937  -5.934  -5.934
 -5.934  -5.930  -5.928  -5.925  -1.049  -1.048  -0.974  -0.967
 -0.950  -0.945  -0.933  -0.931  -0.919  -0.912  -0.911  -0.905
 -0.842  -0.839  -0.831  -0.828  -0.813  -0.807  -0.807  -0.806
 -0.802  -0.800  -0.795  -0.794  -0.787  -0.779  -0.768  -0.765
 -0.751  -0.746  -0.741  -0.738  -0.727  -0.720  -0.713  -0.709
 -0.696  -0.693  -0.675  -0.674  -0.652  -0.650  -0.647  -0.647
 -0.636  -0.631  -0.628  -0.625  -0.611  -0.610  -0.599  -0.595
 -0.591  -0.590  -0.584  -0.579  -0.577  -0.575  -0.571  -0.562
 -0.555  -0.553  -0.544  -0.541  -0.527  -0.525  -0.518  -0.516
 -0.507  -0.506  -0.502  -0.496  -0.486  -0.482  -0.480  -0.477
 -0.471  -0.471  -0.469  -0.466  -0.462  -0.459  -0.450  -0.445
 -0.442  -0.440  -0.439  -0.437  -0.436  -0.435  -0.432  -0.431
 -0.429  -0.428  -0.424  -0.421  -0.421  -0.420  -0.414  -0.413
 -0.410  -0.409  -0.402  -0.402  -0.400  -0.398  -0.396  -0.396
 -0.391  -0.391  -0.388  -0.387  -0.386  -0.386  -0.382  -0.380
 -0.373  -0.373  -0.371  -0.370  -0.369  -0.368  -0.366  -0.358
 -0.357  -0.356  -0.354  -0.349  -0.348  -0.344  -0.341  -0.339
 -0.339  -0.336  -0.332  -0.331  -0.329  -0.326  -0.325  -0.324
 -0.323  -0.313  -0.312  -0.307  -0.305  -0.302  -0.301  -0.300
 -0.298  -0.297  -0.295  -0.294  -0.289  -0.285  -0.284  -0.281
 -0.278  -0.272  -0.266  -0.266  -0.256  -0.255  -0.249  -0.246
 -0.246  -0.242  -0.236  -0.230  -0.197  -0.195

          Ground-State Mulliken Net Atomic Charges

     Atom                 Charge (a.u.)
  ----------------------------------------
      1 C                     0.287391
      2 C                    -0.098415
      3 N                    -0.489769
      4 C                    -0.097377
      5 C                     0.060128
      6 C                     0.037498
      7 C                     0.016672
      8 C                     0.068206
      9 C                     0.180771
     10 N                    -0.529185
     11 N                    -0.520370
     12 C                     0.255729
     13 C                     0.313603
     14 S                     0.616492
     15 N                    -0.570566
     16 C                    -0.233652
     17 S                     0.307045
     18 C                    -0.120216
     19 C                    -0.230409
     20 S                     0.284565
     21 C                     0.142672
     22 C                     0.085827
     23 C                    -0.320103
     24 C                    -0.065322
     25 N                    -0.442933
     26 S                     0.258692
     27 C                     0.131656
     28 C                    -0.309282
     29 C                    -0.236887
     30 H                     0.089347
     31 H                     0.095716
     32 H                     0.123312
     33 H                     0.127725
     34 H                     0.136851
     35 H                     0.128620
     36 H                     0.112779
     37 H                     0.134720
     38 H                     0.112392
     39 C                    -0.182153
     40 H                     0.095994
     41 H                     0.092310
     42 H                     0.100033
     43 C                    -0.170088
     44 H                     0.103701
     45 C                    -0.160577
     46 H                     0.096703
     47 H                     0.085058
     48 H                     0.086186
     49 C                    -0.177041
     50 H                     0.093608
     51 C                    -0.312732
     52 H                     0.093511
     53 H                     0.101872
     54 H                     0.096021
     55 H                     0.100273
     56 C                     0.257820
     57 C                    -0.114629
     58 N                    -0.470897
     59 C                    -0.094789
     60 C                     0.054503
     61 C                     0.044185
     62 C                     0.078537
     63 C                     0.027838
     64 C                     0.203296
     65 N                    -0.499209
     66 N                    -0.540536
     67 C                     0.212520
     68 C                     0.237675
     69 S                     0.603007
     70 N                    -0.518209
     71 C                    -0.193742
     72 S                     0.324977
     73 C                    -0.118415
     74 C                    -0.205822
     75 S                     0.256693
     76 C                     0.132540
     77 C                     0.042335
     78 C                    -0.299092
     79 C                    -0.054970
     80 N                    -0.411519
     81 S                     0.272112
     82 C                     0.112708
     83 C                    -0.316300
     84 C                    -0.211722
     85 H                     0.098456
     86 H                     0.096237
     87 H                     0.127342
     88 H                     0.117875
     89 H                     0.128702
     90 H                     0.129857
     91 H                     0.108614
     92 H                     0.154813
     93 H                     0.117787
     94 C                    -0.179554
     95 H                     0.089065
     96 H                     0.116803
     97 H                     0.089059
     98 C                    -0.176091
     99 H                     0.098011
    100 C                    -0.177021
    101 H                     0.089983
    102 H                     0.094401
    103 H                     0.082803
    104 C                    -0.181880
    105 H                     0.092020
    106 C                    -0.315169
    107 H                     0.092877
    108 H                     0.094947
    109 H                     0.107594
    110 H                     0.104973
  ----------------------------------------
  Sum of atomic charges =     0.000000

                    Cartesian Multipole Moments
 -----------------------------------------------------------------
    Charge (ESU x 10^10)
                 0.0000
    Dipole Moment (Debye)
         X      -0.0772      Y      -2.1815      Z       0.6733
       Tot       2.2843
    Quadrupole Moments (Debye-Ang)
        XX    -451.6215     XY       0.6173     YY    -411.5933
        XZ      11.9430     YZ       2.7473     ZZ    -441.5695

 Total job time:  81.24s(wall), 891.24s(cpu)
        *  Thank you very much for using Q-Chem.  Have a nice day.  *
