 Q-Chem 4.4, Q-Chem, Inc., Pleasanton, CA (2016)
 Q-Chem 4.4.2 for Intel X86 Linux

User input:
--------------------------------------------------------------
$comment
SP
$end

$rem
MEM_STATIC 5000
MEM_TOTAL 20000
JOBTYPE SP
EXCHANGE B3LYP
BASIS 6-31g(d,p)
$end

$molecule
0 1
C         -24.248000     19.644000     -8.901000
C         -23.033000     20.088000     -8.475000
N         -24.681000     18.393000     -8.604000
C         -22.215000     19.345000     -7.557000
C         -23.925000     17.597000     -7.779000
C         -22.704000     18.052000     -7.166000
C         -21.790000     17.166000     -6.219000
C         -21.685000     15.808000     -6.477000
C         -21.008000     17.661000     -5.173000
N         -20.869000     15.036000     -5.723000
N         -20.969000     18.941000     -4.809000
C         -20.197000     16.834000     -4.346000
C         -20.196000     15.479000     -4.691000
S         -19.922000     19.064000     -3.539000
N         -19.511000     17.517000     -3.383000
C         -19.448000     14.484000     -3.932000
S         -18.830000     12.939000     -4.584000
C         -19.649000     14.463000     -2.559000
C         -18.816000     12.273000     -2.946000
S         -20.403000     15.485000     -1.444000
C         -19.300000     13.211000     -2.070000
C         -18.702000     10.903000     -2.571000
C         -20.199000     14.292000     -0.146000
C         -19.628000     13.120000     -0.690000
N         -19.283000     10.097000     -3.413000
S         -17.596000     10.149000     -1.516000
C         -19.022000      8.793000     -3.083000
C         -18.154000      8.623000     -2.065000
C         -25.103000     20.440000     -9.838000
H         -22.700000     21.072000     -8.791000
H         -21.260000     19.672000     -7.158000
H         -24.216000     16.576000     -7.536000
H         -22.375000     15.269000     -7.123000
H         -20.639000     14.383000      0.839000
H         -19.691000     12.193000     -0.132000
H         -19.495000      8.015000     -3.668000
H         -17.777000      7.723000     -1.598000
H         -24.432000     21.242000    -10.169000
C         -26.448000     20.943000     -9.339000
H         -25.311000     19.808000    -10.711000
H         -26.214000     21.684000     -8.565000
H         -27.030000     20.113000     -8.921000
C         -27.304000     21.580000    -10.418000
H         -26.709000     22.374000    -10.885000
C         -28.564000     22.254000     -9.791000
H         -27.654000     20.939000    -11.237000
H         -28.402000     22.888000     -8.911000
H         -29.216000     21.421000     -9.501000
C         -29.259000     23.091000    -10.801000
H         -28.507000     23.665000    -11.358000
C         -30.432000     23.952000    -10.251000
H         -29.703000     22.386000    -11.514000
H         -30.973000     23.331000     -9.527000
H         -31.189000     24.194000    -11.007000
H         -30.024000     24.774000     -9.650000
C         -16.842000     26.331000     -0.110000
C         -17.889000     25.492000      0.311000
N         -15.616000     25.807000     -0.419000
C         -17.740000     24.057000      0.256000
C         -15.455000     24.480000     -0.429000
C         -16.502000     23.547000     -0.187000
C         -16.331000     22.038000     -0.500000
C         -16.991000     21.092000      0.337000
C         -15.418000     21.496000     -1.413000
N         -16.844000     19.726000      0.221000
N         -14.813000     22.227000     -2.386000
C         -15.232000     20.116000     -1.557000
C         -15.997000     19.264000     -0.730000
S         -13.978000     21.173000     -3.368000
N         -14.334000     19.787000     -2.543000
C         -16.064000     17.790000     -0.907000
S         -15.225000     16.955000     -2.198000
C         -16.699000     16.913000     -0.035000
C         -15.832000     15.444000     -1.568000
S         -17.583000     17.155000      1.492000
C         -16.489000     15.622000     -0.378000
C         -15.562000     14.106000     -2.142000
C         -17.543000     15.378000      1.682000
C         -16.948000     14.760000      0.600000
N         -15.290000     13.115000     -1.323000
S         -15.041000     13.999000     -3.777000
C         -14.916000     12.021000     -2.071000
C         -14.643000     12.361000     -3.376000
C         -16.888000     27.866000      0.041000
H         -18.809000     25.900000      0.721000
H         -18.611000     23.452000      0.488000
H         -14.526000     24.081000     -0.833000
H         -17.682000     21.487000      1.080000
H         -18.046000     14.859000      2.488000
H         -16.794000     13.688000      0.557000
H         -14.689000     11.118000     -1.519000
H         -14.422000     11.680000     -4.187000
H         -16.152000     28.195000     -0.703000
C         -16.449000     28.366000      1.430000
H         -17.903000     28.238000     -0.146000
H         -16.402000     29.462000      1.439000
H         -15.469000     27.938000      1.674000
C         -17.452000     27.857000      2.510000
H         -18.491000     28.088000      2.242000
C         -17.179000     28.456000      3.932000
H         -17.340000     26.770000      2.601000
H         -16.139000     28.208000      4.179000
H         -17.792000     27.896000      4.648000
C         -17.618000     29.928000      4.262000
H         -17.181000     30.232000      5.221000
C         -19.106000     30.099000      4.405000
H         -17.320000     30.627000      3.471000
H         -19.551000     29.476000      5.191000
H         -19.631000     29.771000      3.500000
H         -19.347000     31.126000      4.705000
$end

--------------------------------------------------------------

             Standard Nuclear Orientation (Angstroms)
    I     Atom           X                Y                Z
 ----------------------------------------------------------------
    1      C       0.9689481099     8.0365086946     1.0177444874
    2      C       0.3277553283     6.9848053274     1.5988028703
    3      N       2.1166336468     7.8575347350     0.3166844114
    4      C       0.7154153926     5.6201397261     1.3722979667
    5      C       2.5860422385     6.5841275793     0.1072404099
    6      C       1.8813482582     5.4124305072     0.5590892400
    7      C       2.3899817645     3.9236419541     0.3541463201
    8      C       3.7529110167     3.6744677487     0.3998526523
    9      C       1.5604816640     2.8101169192     0.2036252917
   10      N       4.2145120297     2.4078641251     0.2858536804
   11      N       0.2309087471     2.8672714938     0.1663934075
   12      C       2.0545914816     1.4874188529     0.0250075058
   13      C       3.4473734931     1.3703637551     0.0638324024
   14      S      -0.3268180669     1.3256615613    -0.0249638940
   15      N       1.0762381953     0.5432916487    -0.1010982813
   16      C       4.1262853665     0.0954452854    -0.1343381399
   17      S       5.7377674290    -0.3271897788     0.5126225736
   18      C       3.7769260261    -0.6308332848    -1.2641339134
   19      C       5.9137719964    -1.5382021683    -0.7638050134
   20      S       2.5465301095    -0.5304323406    -2.4183741565
   21      C       4.8092809983    -1.5055237074    -1.5765212944
   22      C       7.1097417212    -2.1974139482    -1.1707660024
   23      C       3.3068887183    -1.7959367178    -3.4032713376
   24      C       4.5350394695    -2.1602956863    -2.8079149112
   25      N       8.1633917115    -1.4372812286    -1.0803174169
   26      S       7.4464847995    -3.8628655748    -1.3036267523
   27      C       9.2971427764    -2.1596268745    -1.3453877672
   28      C       9.1046880866    -3.4827693586    -1.5211807111
   29      C       0.5388817124     9.4534403818     1.2412562044
   30      H      -0.5512443250     7.1832718052     2.2045847342
   31      H       0.2144493611     4.7474716591     1.7792850428
   32      H       3.5175756648     6.3918796894    -0.4232850133
   33      H       4.5048535135     4.4565379940     0.3168730586
   34      H       2.9784052364    -2.0736609478    -4.3967872429
   35      H       5.2700394171    -2.6959732730    -3.3973948515
   36      H      10.2432420576    -1.6344453267    -1.3632341117
   37      H       9.8043128548    -4.2771756681    -1.7440299861
   38      H      -0.1887941597     9.3683585619     2.0575005973
   39      C       0.0249789975    10.2492029869     0.0522646671
   40      H       1.4050565024    10.0023626042     1.6327183696
   41      H      -0.9197288670     9.7707438541    -0.2332469946
   42      H       0.7479101421    10.2070027687    -0.7711050566
   43      C      -0.2130633254    11.7174438233     0.3528485970
   44      H      -0.8888419310    11.7722123862     1.2147497983
   45      C      -0.9332378646    12.4120601796    -0.8445910677
   46      H       0.6578863433    12.3342107967     0.6081663892
   47      H      -1.7996213562    11.8929679851    -1.2718181022
   48      H      -0.1659164305    12.5014796716    -1.6232533636
   49      C      -1.3947873151    13.7678568618    -0.4541023208
   50      H      -1.8474012370    13.7099996484     0.5444076595
   51      C      -2.2791414006    14.4935032945    -1.5081920257
   52      H      -0.4848859860    14.3707569764    -0.3486460592
   53      H      -1.8452922349    14.2792248057    -2.4922436660
   54      H      -2.2379646749    15.5871940809    -1.4354325522
   55      H      -3.2666317654    14.0167751407    -1.5388848079
   56      C      -8.4858117827    -1.3100520994     0.7082243794
   57      C      -7.7180208022    -1.0150551945    -0.4323214707
   58      N      -7.9956743780    -2.1438560267     1.6765576564
   59      C      -6.3419478848    -1.4439676903    -0.5154382383
   60      C      -6.7364902531    -2.5833779317     1.5858612695
   61      C      -5.8285367413    -2.1983475520     0.5598817243
   62      C      -4.3110056482    -2.4984569309     0.6662994961
   63      C      -3.5885402652    -2.7771283313    -0.5301414848
   64      C      -3.6091062319    -2.7248371269     1.8566738978
   65      N      -2.2611772433    -3.1489431139    -0.5598429247
   66      N      -4.0833627413    -2.3728435242     3.0807230255
   67      C      -2.2636027140    -3.1110212687     1.8713057854
   68      C      -1.6198607598    -3.2830833621     0.6258946355
   69      S      -2.8661623584    -2.6247440485     4.1886193896
   70      N      -1.7437370361    -3.2276122699     3.1373970994
   71      C      -0.1550028904    -3.4858950912     0.4790858312
   72      S       0.9391679505    -3.4911654427     1.8467807513
   73      C       0.4896460969    -3.7880217394    -0.7150185075
   74      C       2.2559208875    -3.8172944938     0.7475666935
   75      S      -0.1000139850    -4.0454539768    -2.3756745920
   76      C       1.8039809289    -4.0439481596    -0.5267218883
   77      C       3.6752777567    -3.9827249667     1.1357404129
   78      C       1.5430773145    -4.6338072784    -2.7623532363
   79      C       2.3904829473    -4.5386187577    -1.6762980632
   80      N       4.3714898638    -4.9452232168     0.5738580227
   81      S       4.1950949772    -3.3571834750     2.6505350852
   82      C       5.5980263659    -5.0166598759     1.1957269902
   83      C       5.6174405349    -4.3074811007     2.3746428289
   84      C      -9.9926996794    -0.9927850982     0.8070804208
   85      H      -8.1499757464    -0.4984014437    -1.2852269919
   86      H      -5.7589449229    -1.1008056177    -1.3644596386
   87      H      -6.3155459206    -3.1082113931     2.4419066577
   88      H      -4.1198210703    -2.6424471843    -1.4709691496
   89      H       1.8533143610    -4.9026692522    -3.7640878389
   90      H       3.4155936456    -4.8891587249    -1.7082165144
   91      H       6.2886219785    -5.7554799381     0.8098972149
   92      H       6.4788526547    -4.1247755191     3.0030621398
   93      H     -10.1572034956    -0.9810893159     1.8916424075
   94      C     -10.8959198654    -2.0703074428     0.1784462726
   95      H     -10.2150319624    -0.0375963357     0.3153886638
   96      H     -11.9504739986    -1.8398682931     0.3741996340
   97      H     -10.6332370501    -3.0496946745     0.5966787305
   98      C     -10.6322887679    -2.1430386439    -1.3567080574
   99      H     -10.6951046323    -1.1538054159    -1.8280654460
  100      C     -11.6262211244    -3.0951460829    -2.1057099902
  101      H      -9.6271021901    -2.5512291248    -1.5160017327
  102      H     -11.5413293515    -4.0760254037    -1.6211667571
  103      H     -11.2427262613    -3.2364516779    -3.1230542873
  104      C     -13.0917572372    -2.6182117927    -2.4109026920
  105      H     -13.6866266601    -3.4706236724    -2.7610317497
  106      C     -13.1767590449    -1.5742407171    -3.4910568874
  107      H     -13.5620148259    -2.1639194967    -1.5302425362
  108      H     -12.7660619995    -1.8987029751    -4.4554230938
  109      H     -12.5670755607    -0.6973248498    -3.2429871173
  110      H     -14.2240434721    -1.3335444665    -3.7103070721
 ----------------------------------------------------------------

   11   -5663.4897442783      7.66E-06 Convergence criterion met
 Total energy in the final basis set = -5663.4897442783

                    Orbital Energies (a.u.)
 --------------------------------------------------------------

 Alpha MOs
 -- Occupied --
-88.992 -88.990 -88.928 -88.927 -88.926 -88.924 -88.908 -88.907
-14.390 -14.388 -14.380 -14.377 -14.353 -14.343 -14.338 -14.336
-14.330 -14.329 -10.266 -10.263 -10.258 -10.258 -10.255 -10.254
-10.254 -10.253 -10.244 -10.237 -10.236 -10.235 -10.233 -10.231
-10.230 -10.230 -10.230 -10.229 -10.228 -10.227 -10.226 -10.226
-10.224 -10.223 -10.222 -10.222 -10.222 -10.221 -10.220 -10.217
-10.216 -10.213 -10.203 -10.200 -10.198 -10.196 -10.192 -10.185
-10.185 -10.182 -10.180 -10.179 -10.179 -10.177 -10.177 -10.177
-10.172 -10.171 -10.171 -10.170  -8.046  -8.045  -7.990  -7.989
 -7.986  -7.982  -7.968  -7.966  -6.011  -6.011  -6.006  -6.005
 -6.004  -6.003  -5.954  -5.953  -5.951  -5.950  -5.949  -5.947
 -5.946  -5.946  -5.946  -5.943  -5.942  -5.938  -5.933  -5.931
 -5.929  -5.927  -5.924  -5.922  -1.038  -1.025  -0.982  -0.976
 -0.962  -0.951  -0.931  -0.927  -0.915  -0.914  -0.903  -0.893
 -0.844  -0.842  -0.826  -0.821  -0.814  -0.813  -0.811  -0.809
 -0.805  -0.802  -0.790  -0.790  -0.786  -0.780  -0.770  -0.764
 -0.751  -0.746  -0.743  -0.738  -0.726  -0.725  -0.707  -0.706
 -0.693  -0.692  -0.674  -0.671  -0.652  -0.651  -0.650  -0.643
 -0.638  -0.631  -0.626  -0.622  -0.611  -0.605  -0.599  -0.597
 -0.595  -0.591  -0.582  -0.575  -0.573  -0.571  -0.568  -0.554
 -0.551  -0.543  -0.541  -0.536  -0.526  -0.521  -0.520  -0.513
 -0.508  -0.504  -0.496  -0.496  -0.488  -0.478  -0.476  -0.474
 -0.472  -0.471  -0.469  -0.465  -0.461  -0.460  -0.450  -0.447
 -0.445  -0.444  -0.442  -0.441  -0.438  -0.437  -0.431  -0.428
 -0.426  -0.424  -0.424  -0.422  -0.418  -0.416  -0.412  -0.409
 -0.409  -0.406  -0.403  -0.403  -0.401  -0.400  -0.397  -0.396
 -0.395  -0.395  -0.392  -0.391  -0.388  -0.385  -0.381  -0.379
 -0.377  -0.375  -0.373  -0.372  -0.368  -0.363  -0.357  -0.356
 -0.353  -0.352  -0.349  -0.346  -0.344  -0.343  -0.342  -0.339
 -0.337  -0.333  -0.332  -0.331  -0.326  -0.325  -0.320  -0.319
 -0.313  -0.310  -0.309  -0.305  -0.304  -0.300  -0.300  -0.297
 -0.296  -0.294  -0.292  -0.290  -0.285  -0.282  -0.279  -0.278
 -0.274  -0.266  -0.265  -0.262  -0.256  -0.252  -0.249  -0.249
 -0.245  -0.241  -0.235  -0.227  -0.194  -0.189

          Ground-State Mulliken Net Atomic Charges

     Atom                 Charge (a.u.)
  ----------------------------------------
      1 C                     0.295639
      2 C                    -0.131677
      3 N                    -0.503696
      4 C                    -0.058341
      5 C                     0.077820
      6 C                     0.027742
      7 C                     0.039288
      8 C                     0.044942
      9 C                     0.235987
     10 N                    -0.509861
     11 N                    -0.571347
     12 C                     0.215455
     13 C                     0.265076
     14 S                     0.610792
     15 N                    -0.543300
     16 C                    -0.206079
     17 S                     0.344317
     18 C                    -0.110953
     19 C                    -0.199540
     20 S                     0.281410
     21 C                     0.145352
     22 C                     0.011024
     23 C                    -0.295800
     24 C                    -0.088768
     25 N                    -0.401475
     26 S                     0.281142
     27 C                     0.117348
     28 C                    -0.310732
     29 C                    -0.223010
     30 H                     0.084656
     31 H                     0.117871
     32 H                     0.102631
     33 H                     0.119330
     34 H                     0.130464
     35 H                     0.101327
     36 H                     0.112187
     37 H                     0.136316
     38 H                     0.087230
     39 C                    -0.164139
     40 H                     0.116284
     41 H                     0.093525
     42 H                     0.114404
     43 C                    -0.182160
     44 H                     0.087279
     45 C                    -0.170283
     46 H                     0.096880
     47 H                     0.087307
     48 H                     0.093328
     49 C                    -0.169985
     50 H                     0.089136
     51 C                    -0.327095
     52 H                     0.087968
     53 H                     0.101404
     54 H                     0.104153
     55 H                     0.104494
     56 C                     0.251159
     57 C                    -0.118579
     58 N                    -0.474708
     59 C                    -0.099597
     60 C                     0.087224
     61 C                     0.045258
     62 C                     0.037192
     63 C                     0.062995
     64 C                     0.206424
     65 N                    -0.534808
     66 N                    -0.556658
     67 C                     0.229699
     68 C                     0.314152
     69 S                     0.609247
     70 N                    -0.582080
     71 C                    -0.243967
     72 S                     0.345234
     73 C                    -0.108056
     74 C                    -0.242206
     75 S                     0.270588
     76 C                     0.195483
     77 C                     0.052043
     78 C                    -0.320613
     79 C                    -0.044136
     80 N                    -0.411009
     81 S                     0.290231
     82 C                     0.123112
     83 C                    -0.316153
     84 C                    -0.219333
     85 H                     0.092119
     86 H                     0.102176
     87 H                     0.118657
     88 H                     0.110786
     89 H                     0.119151
     90 H                     0.119411
     91 H                     0.119884
     92 H                     0.130614
     93 H                     0.115732
     94 C                    -0.165779
     95 H                     0.095323
     96 H                     0.098597
     97 H                     0.110879
     98 C                    -0.186500
     99 H                     0.082599
    100 C                    -0.181978
    101 H                     0.103929
    102 H                     0.088637
    103 H                     0.084874
    104 C                    -0.172503
    105 H                     0.095671
    106 C                    -0.316073
    107 H                     0.092951
    108 H                     0.097393
    109 H                     0.100755
    110 H                     0.101287
  ----------------------------------------
  Sum of atomic charges =     0.000000

                    Cartesian Multipole Moments
 -----------------------------------------------------------------
    Charge (ESU x 10^10)
                 0.0000
    Dipole Moment (Debye)
         X       1.7644      Y      -1.6979      Z      -0.9729
       Tot       2.6348
    Quadrupole Moments (Debye-Ang)
        XX    -417.4372     XY     -41.1571     YY    -452.2258
        XZ       9.6351     YZ      10.8466     ZZ    -427.2923

 Total job time:  115.85s(wall), 1259.70s(cpu)
        *  Thank you very much for using Q-Chem.  Have a nice day.  *
