 Q-Chem 4.4, Q-Chem, Inc., Pleasanton, CA (2016)
 Q-Chem 4.4.2 for Intel X86 Linux

User input:
--------------------------------------------------------------
$comment
SP
$end

$rem
MEM_STATIC 5000
MEM_TOTAL 20000
JOBTYPE SP
EXCHANGE B3LYP
BASIS 6-31g(d,p)
$end

$molecule
0 1
C          14.669000     -3.229000     12.206000
C          15.998000     -3.805000     12.153000
N          14.159000     -2.537000     11.134000
C          16.896000     -3.547000     11.068000
C          15.003000     -2.363000     10.145000
C          16.334000     -2.787000     10.030000
C          17.202000     -2.353000      8.885000
C          18.523000     -2.040000      9.128000
C          16.688000     -2.405000      7.553000
N          19.303000     -1.638000      8.173000
N          15.493000     -2.849000      7.210000
C          17.494000     -2.080000      6.539000
C          18.813000     -1.572000      6.868000
S          15.397000     -2.688000      5.598000
N          16.972000     -2.309000      5.284000
C          19.660000     -1.053000      5.745000
S          19.617000     -1.636000      4.132000
C          20.838000     -0.357000      5.899000
C          20.884000     -0.575000      3.582000
S          21.327000      0.403000      7.355000
C          21.478000     -0.049000      4.689000
C          21.346000     -0.480000      2.166000
C          22.627000      1.113000      6.329000
C          22.600000      0.791000      5.005000
N          20.955000     -1.530000      1.413000
S          22.575000      0.671000      1.449000
C          21.546000     -1.399000      0.139000
C          22.287000     -0.278000      0.001000
C          13.752000     -3.455000     13.428000
H          16.434000     -4.266000     13.035000
H          17.846000     -4.074000     11.079000
H          14.611000     -1.676000      9.396000
H          18.963000     -1.957000     10.120000
H          23.367000      1.768000      6.771000
H          23.367000      1.102000      4.306000
H          21.339000     -2.137000     -0.626000
H          22.723000      0.124000     -0.904000
H          14.164000     -3.212000     14.415000
C          13.376000     -4.910000     13.597000
H          12.865000     -2.811000     13.413000
H          12.869000     -5.005000     14.566000
H          14.301000     -5.477000     13.762000
C          12.519000     -5.356000     12.437000
H          11.486000     -4.996000     12.515000
C          12.483000     -6.906000     12.381000
H          12.877000     -5.007000     11.460000
H          13.485000     -7.332000     12.250000
H          11.858000     -7.202000     11.529000
C          11.913000     -7.609000     13.555000
H          11.949000     -8.693000     13.389000
C          10.459000     -7.265000     13.928000
H          12.600000     -7.442000     14.393000
H          10.388000     -6.465000     14.676000
H          10.021000     -8.091000     14.502000
H           9.862000     -6.990000     13.050000
C          11.355000     -1.576000      4.323000
C          10.731000     -2.386000      3.291000
N          12.622000     -1.180000      4.284000
C          11.511000     -2.591000      2.126000
C          13.344000     -1.388000      3.138000
C          12.885000     -2.180000      2.037000
C          13.851000     -2.466000      0.892000
C          13.289000     -2.697000     -0.368000
C          15.243000     -2.544000      0.977000
N          14.011000     -3.031000     -1.496000
N          15.926000     -2.365000      2.094000
C          16.033000     -2.809000     -0.175000
C          15.383000     -3.065000     -1.400000
S          17.398000     -2.923000      1.758000
N          17.294000     -3.156000      0.112000
C          15.964000     -3.466000     -2.666000
S          15.172000     -4.505000     -3.880000
C          17.072000     -2.846000     -3.230000
C          16.244000     -3.926000     -5.087000
S          17.984000     -1.506000     -2.538000
C          17.238000     -3.108000     -4.591000
C          16.106000     -4.276000     -6.497000
C          18.515000     -1.190000     -4.248000
C          18.043000     -2.086000     -5.222000
N          17.129000     -4.136000     -7.342000
S          14.526000     -4.504000     -7.310000
C          16.716000     -4.279000     -8.603000
C          15.354000     -4.463000     -8.850000
C          10.520000     -1.092000      5.499000
H           9.698000     -2.694000      3.422000
H          11.093000     -3.242000      1.364000
H          14.356000     -1.003000      3.258000
H          12.239000     -2.647000     -0.651000
H          19.276000     -0.428000     -4.356000
H          18.346000     -2.118000     -6.262000
H          17.470000     -4.212000     -9.376000
H          14.785000     -4.584000     -9.763000
H          10.739000     -0.021000      5.589000
C          10.823000     -1.838000      6.783000
H           9.456000     -1.148000      5.240000
H          11.908000     -1.987000      6.837000
H          10.426000     -2.858000      6.706000
C          10.311000     -1.115000      8.107000
H          10.803000     -0.138000      8.190000
C          10.678000     -1.846000      9.402000
H           9.227000     -0.944000      8.095000
H          11.728000     -2.151000      9.487000
H          10.069000     -2.758000      9.388000
C          10.308000     -1.066000     10.736000
H           9.256000     -0.767000     10.824000
C          11.199000      0.189000     10.797000
H          10.472000     -1.762000     11.568000
H          11.013000      0.702000     11.749000
H          10.898000      0.894000     10.012000
H          12.272000      0.012000     10.657000
$end

--------------------------------------------------------------

             Standard Nuclear Orientation (Angstroms)
    I     Atom           X                Y                Z
 ----------------------------------------------------------------
    1      C       8.6653904414     0.1066584332    -0.6739899579
    2      C       8.3487600912     1.1260719088    -1.6544833985
    3      N       7.7079045982    -0.3516731566     0.1985356944
    4      C       7.0937969772     1.8154596876    -1.6567357319
    5      C       6.5601037950     0.2797100711     0.1304068765
    6      C       6.1788230708     1.3389791781    -0.7045398094
    7      C       4.8672993435     2.0472082166    -0.5281251230
    8      C       4.8204742208     3.4168953242    -0.6824741925
    9      C       3.6742538872     1.2833728471    -0.3428629639
   10      N       3.7138832749     4.0725128543    -0.5161878951
   11      N       3.6000446877    -0.0346812578    -0.3488938368
   12      C       2.5063780966     1.9250799764    -0.2549135581
   13      C       2.5393843616     3.3757019409    -0.2289809078
   14      S       2.0406037578    -0.4003725379    -0.0879438923
   15      N       1.3944995308     1.1106031924    -0.2374887698
   16      C       1.2517392720     4.0975118730     0.0334301157
   17      S      -0.3020375884     3.5319573150    -0.4242078526
   18      C       1.1387529023     5.4452436761     0.2916336538
   19      C      -1.1305435919     4.9388222935     0.1822727609
   20      S       2.4413561183     6.4479472786     0.7758519385
   21      C      -0.1855118099     5.8883001389     0.4279712596
   22      C      -2.6137806640     5.1046916331     0.1867616371
   23      C       1.1490198439     7.6701963299     1.0635153016
   24      C      -0.1318417073     7.2658723421     0.8326369797
   25      N      -3.2428273283     4.2397232100    -0.6369615695
   26      S      -3.5997105739     6.4723439087     0.8986608334
   27      C      -4.6151581159     4.5654562558    -0.6481057193
   28      C      -4.9321152751     5.5930893485     0.1693747919
   29      C      10.0574893957    -0.5613818652    -0.6418704793
   30      H       9.1305214035     1.5544265254    -2.2756939690
   31      H       6.9179976825     2.5157170031    -2.4685758024
   32      H       5.8937346743    -0.0053864432     0.9436142132
   33      H       5.6959425853     4.0531628095    -0.7976776213
   34      H       1.4103373704     8.6604576508     1.4143495456
   35      H      -0.9832979639     7.9317330016     0.9051823115
   36      H      -5.3019459313     3.9714691076    -1.2382072057
   37      H      -5.9177272215     5.9425126600     0.4472190659
   38      H      10.9301218922     0.1015224523    -0.5967884221
   39      C      10.3362116382    -1.3583827706    -1.8964881375
   40      H      10.2133821385    -1.1654382337     0.2595413891
   41      H      11.3919407142    -1.6574715102    -1.8645970100
   42      H      10.3171410352    -0.6628458424    -2.7451362941
   43      C       9.3925901687    -2.5339849417    -1.9771296753
   44      H       9.6767681129    -3.3480764935    -1.2994344331
   45      C       9.3823767666    -3.0961391409    -3.4230931405
   46      H       8.3542123019    -2.2888045299    -1.7199294199
   47      H       9.0544640119    -2.3434902029    -4.1501652150
   48      H       8.6876165294    -3.9449591983    -3.4540402396
   49      C      10.6662033522    -3.6140809446    -3.9531031275
   50      H      10.5222559042    -3.9770005123    -4.9785184188
   51      C      11.3273679055    -4.7602185015    -3.1651874377
   52      H      11.3373608600    -2.7541714685    -4.0635806937
   53      H      12.0543293832    -4.4047700731    -2.4237507076
   54      H      11.9999641990    -5.3210448774    -3.8260081411
   55      H      10.5877007024    -5.3979683498    -2.6661027159
   56      C       1.6149921342    -4.0094558088     2.3601789987
   57      C       0.7563364201    -5.0659513784     1.8532002260
   58      N       1.3018518818    -2.7196608959     2.3154770401
   59      C      -0.5410464143    -4.6561437691     1.4575924602
   60      C       0.0352701389    -2.3603095228     1.9353438016
   61      C      -0.9258470659    -3.2731759689     1.3939801805
   62      C      -2.2407340727    -2.7151933400     0.8594668081
   63      C      -3.3490681811    -3.5681632554     0.8884983035
   64      C      -2.4475567438    -1.4431969109     0.3207438115
   65      N      -4.5950488566    -3.2471847552     0.3887694185
   66      N      -1.5031260268    -0.5256492437     0.2094967927
   67      C      -3.7328966938    -1.0415528290    -0.1353397821
   68      C      -4.7879767453    -1.9766366290    -0.1023947992
   69      S      -2.1267904665     0.5731950943    -0.7878134837
   70      N      -3.7083891716     0.0616065857    -0.8938499582
   71      C      -6.1376988505    -1.8360902946    -0.6119190543
   72      S      -7.1335813654    -3.1609856861    -1.2702891767
   73      C      -6.9360409723    -0.7256205686    -0.3676510779
   74      C      -8.5519287458    -2.2294070302    -1.0218421671
   75      S      -6.4827448412     0.7029434475     0.5596759785
   76      C      -8.2949551797    -0.9399598488    -0.6041502320
   77      C      -9.8929206289    -2.7628610244    -1.2382020650
   78      C      -8.2731009040     0.9456873286     0.7636798426
   79      C      -9.1048701077     0.0122246375     0.1225219868
   80      N     -10.9366703390    -1.9485778593    -1.4045855670
   81      S     -10.3510077917    -4.4595237088    -0.8905745536
   82      C     -12.0793126839    -2.6352971757    -1.3419433113
   83      C     -12.0308814539    -4.0004521179    -1.0522617628
   84      C       2.9279992154    -4.3744456093     3.0363829992
   85      H       1.1082590077    -6.0921956113     1.8988868423
   86      H      -1.1827506894    -5.4145769114     1.0192275529
   87      H      -0.0687366023    -1.2761150616     1.9571146100
   88      H      -3.4068065148    -4.5755560529     1.2970506704
   89      H      -8.5563601569     1.8780148745     1.2348046062
   90      H     -10.1842118090     0.0666533660     0.0419490053
   91      H     -12.9945572465    -2.0780664212    -1.4914601235
   92      H     -12.8011820041    -4.7518539585    -0.9339260694
   93      H       2.9445178338    -3.7968893925     3.9687230400
   94      C       4.1373906543    -4.0810268106     2.1713634873
   95      H       2.8991842261    -5.4251803327     3.3485355860
   96      H       3.9663084398    -3.1215312990     1.6689281789
   97      H       4.1696724503    -4.8026363930     1.3454243272
   98      C       5.5216622896    -4.0386687750     2.9586670098
   99      H       5.4763588629    -3.2427881670     3.7123271834
  100      C       6.7280335522    -3.6791047910     2.0860519067
  101      H       5.7330648015    -4.9812711989     3.4794842988
  102      H       6.5983117798    -2.7975269693     1.4467219402
  103      H       6.8637571639    -4.5467435806     1.4290868908
  104      C       8.0909562434    -3.4850269149     2.8795451429
  105      H       8.3903470017    -4.3349108775     3.5055734361
  106      C       7.9338827440    -2.2337808602     3.7640439990
  107      H       8.8864621976    -3.3956359251     2.1294014715
  108      H       8.8912051698    -2.0380493611     4.2633354502
  109      H       7.2128202641    -2.4365462803     4.5657958837
  110      H       7.5763498108    -1.3345246787     3.2485185179
 ----------------------------------------------------------------

    9   -5663.4853616261      9.90E-06 Convergence criterion met
 Total energy in the final basis set = -5663.4853616261

                    Orbital Energies (a.u.)
 --------------------------------------------------------------

 Alpha MOs
 -- Occupied --
-88.986 -88.981 -88.934 -88.925 -88.925 -88.915 -88.910 -88.908
-14.385 -14.383 -14.378 -14.375 -14.350 -14.349 -14.346 -14.343
-14.334 -14.330 -10.280 -10.270 -10.266 -10.257 -10.254 -10.254
-10.246 -10.243 -10.239 -10.237 -10.237 -10.236 -10.235 -10.232
-10.232 -10.231 -10.231 -10.231 -10.230 -10.229 -10.229 -10.228
-10.227 -10.226 -10.226 -10.223 -10.220 -10.220 -10.220 -10.218
-10.216 -10.212 -10.208 -10.208 -10.205 -10.205 -10.205 -10.202
-10.184 -10.181 -10.178 -10.178 -10.173 -10.171 -10.170 -10.170
-10.169 -10.166 -10.164 -10.159  -8.041  -8.036  -7.993  -7.985
 -7.984  -7.975  -7.970  -7.968  -6.006  -6.001  -6.000  -5.999
 -5.995  -5.994  -5.957  -5.954  -5.950  -5.949  -5.949  -5.945
 -5.945  -5.942  -5.941  -5.939  -5.935  -5.935  -5.933  -5.932
 -5.931  -5.930  -5.926  -5.925  -1.041  -1.039  -0.970  -0.958
 -0.955  -0.945  -0.941  -0.934  -0.918  -0.913  -0.908  -0.897
 -0.846  -0.840  -0.831  -0.828  -0.813  -0.812  -0.803  -0.803
 -0.802  -0.796  -0.794  -0.792  -0.782  -0.774  -0.763  -0.761
 -0.745  -0.742  -0.736  -0.735  -0.724  -0.719  -0.707  -0.703
 -0.694  -0.689  -0.677  -0.670  -0.655  -0.647  -0.642  -0.638
 -0.636  -0.631  -0.625  -0.619  -0.615  -0.607  -0.600  -0.594
 -0.589  -0.588  -0.584  -0.581  -0.576  -0.575  -0.552  -0.551
 -0.546  -0.542  -0.542  -0.540  -0.522  -0.520  -0.518  -0.514
 -0.509  -0.505  -0.500  -0.497  -0.485  -0.479  -0.476  -0.475
 -0.469  -0.468  -0.467  -0.466  -0.456  -0.454  -0.453  -0.445
 -0.442  -0.436  -0.433  -0.432  -0.430  -0.429  -0.428  -0.426
 -0.426  -0.425  -0.422  -0.421  -0.417  -0.413  -0.412  -0.411
 -0.407  -0.405  -0.402  -0.400  -0.398  -0.396  -0.396  -0.391
 -0.390  -0.389  -0.388  -0.387  -0.384  -0.383  -0.382  -0.380
 -0.378  -0.376  -0.369  -0.366  -0.365  -0.362  -0.361  -0.361
 -0.354  -0.351  -0.349  -0.346  -0.342  -0.341  -0.337  -0.336
 -0.335  -0.333  -0.330  -0.329  -0.326  -0.323  -0.318  -0.316
 -0.315  -0.312  -0.307  -0.301  -0.300  -0.297  -0.297  -0.293
 -0.293  -0.291  -0.291  -0.290  -0.289  -0.287  -0.285  -0.282
 -0.274  -0.273  -0.265  -0.265  -0.256  -0.253  -0.252  -0.249
 -0.246  -0.237  -0.230  -0.229  -0.195  -0.193

          Ground-State Mulliken Net Atomic Charges

     Atom                 Charge (a.u.)
  ----------------------------------------
      1 C                     0.260367
      2 C                    -0.129112
      3 N                    -0.469896
      4 C                    -0.084943
      5 C                     0.100641
      6 C                     0.041751
      7 C                     0.009379
      8 C                     0.073197
      9 C                     0.261123
     10 N                    -0.500465
     11 N                    -0.557775
     12 C                     0.212989
     13 C                     0.248933
     14 S                     0.649032
     15 N                    -0.582710
     16 C                    -0.215075
     17 S                     0.366869
     18 C                    -0.134309
     19 C                    -0.262285
     20 S                     0.282091
     21 C                     0.166769
     22 C                     0.064894
     23 C                    -0.296784
     24 C                    -0.079703
     25 N                    -0.435191
     26 S                     0.268245
     27 C                     0.129158
     28 C                    -0.304414
     29 C                    -0.236962
     30 H                     0.089328
     31 H                     0.113968
     32 H                     0.105014
     33 H                     0.115292
     34 H                     0.116774
     35 H                     0.109054
     36 H                     0.133258
     37 H                     0.130120
     38 H                     0.096773
     39 C                    -0.176188
     40 H                     0.117701
     41 H                     0.097023
     42 H                     0.093447
     43 C                    -0.169516
     44 H                     0.097467
     45 C                    -0.179793
     46 H                     0.113170
     47 H                     0.085813
     48 H                     0.079327
     49 C                    -0.167392
     50 H                     0.090200
     51 C                    -0.322219
     52 H                     0.086584
     53 H                     0.101280
     54 H                     0.099029
     55 H                     0.104528
     56 C                     0.255927
     57 C                    -0.114619
     58 N                    -0.476809
     59 C                    -0.094758
     60 C                     0.045927
     61 C                     0.045661
     62 C                     0.077590
     63 C                     0.026679
     64 C                     0.206682
     65 N                    -0.501441
     66 N                    -0.558510
     67 C                     0.209121
     68 C                     0.236576
     69 S                     0.653157
     70 N                    -0.528210
     71 C                    -0.194572
     72 S                     0.323442
     73 C                    -0.119080
     74 C                    -0.205320
     75 S                     0.256048
     76 C                     0.131945
     77 C                     0.039116
     78 C                    -0.301574
     79 C                    -0.054468
     80 N                    -0.412886
     81 S                     0.264559
     82 C                     0.122162
     83 C                    -0.311424
     84 C                    -0.210204
     85 H                     0.100656
     86 H                     0.098262
     87 H                     0.131293
     88 H                     0.116074
     89 H                     0.124572
     90 H                     0.128964
     91 H                     0.106812
     92 H                     0.142425
     93 H                     0.117784
     94 C                    -0.182517
     95 H                     0.089704
     96 H                     0.115893
     97 H                     0.088874
     98 C                    -0.176056
     99 H                     0.095910
    100 C                    -0.188981
    101 H                     0.087435
    102 H                     0.119563
    103 H                     0.076101
    104 C                    -0.177122
    105 H                     0.084622
    106 C                    -0.318516
    107 H                     0.094706
    108 H                     0.088697
    109 H                     0.099808
    110 H                     0.118462
  ----------------------------------------
  Sum of atomic charges =     0.000000

                    Cartesian Multipole Moments
 -----------------------------------------------------------------
    Charge (ESU x 10^10)
                 0.0000
    Dipole Moment (Debye)
         X      -1.5120      Y       0.6243      Z      -0.0140
       Tot       1.6359
    Quadrupole Moments (Debye-Ang)
        XX    -387.1570     XY       4.2438     YY    -405.6922
        XZ     -18.7501     YZ       4.2075     ZZ    -453.2648

 Total job time:  88.52s(wall), 981.18s(cpu)
        *  Thank you very much for using Q-Chem.  Have a nice day.  *
