 Q-Chem 4.4, Q-Chem, Inc., Pleasanton, CA (2016)
 Q-Chem 4.4.2 for Intel X86 Linux

User input:
--------------------------------------------------------------
$comment
SP
$end

$rem
MEM_STATIC 5000
MEM_TOTAL 20000
JOBTYPE SP
EXCHANGE B3LYP
BASIS 6-31g(d,p)
$end

$molecule
0 1
C           0.249000     14.535000     -4.178000
C           0.763000     14.896000     -5.439000
N           0.802000     14.992000     -3.035000
C           1.815000     15.752000     -5.544000
C           1.723000     15.898000     -3.104000
C           2.265000     16.360000     -4.382000
C           3.267000     17.475000     -4.489000
C           2.966000     18.596000     -5.342000
C           4.332000     17.647000     -3.537000
N           3.708000     19.764000     -5.299000
N           4.746000     16.708000     -2.666000
C           5.053000     18.871000     -3.537000
C           4.586000     19.991000     -4.356000
S           6.001000     17.349000     -1.863000
N           6.040000     18.806000     -2.631000
C           5.121000     21.360000     -4.407000
S           5.079000     22.438000     -5.852000
C           5.715000     22.054000     -3.376000
C           5.629000     23.810000     -4.913000
S           5.689000     21.689000     -1.665000
C           5.965000     23.440000     -3.635000
C           5.853000     25.085000     -5.546000
C           6.242000     23.337000     -1.353000
C           6.306000     24.160000     -2.467000
N           6.804000     25.863000     -5.135000
S           5.366000     25.210000     -7.225000
C           7.088000     26.835000     -6.036000
C           6.471000     26.584000     -7.243000
C          -0.740000     13.470000     -4.235000
H           0.396000     14.321000     -6.284000
H           2.151000     16.026000     -6.540000
H           1.994000     16.366000     -2.159000
H           2.246000     18.509000     -6.155000
H           6.511000     23.556000     -0.329000
H           6.641000     25.191000     -2.492000
H           7.696000     27.686000     -5.760000
H           6.450000     27.121000     -8.182000
H          -0.824000     12.922000     -5.181000
C          -2.136000     13.974000     -3.971000
H          -0.404000     12.689000     -3.542000
H          -2.455000     14.735000     -4.694000
H          -2.208000     14.401000     -2.963000
C          -3.106000     12.747000     -4.169000
H          -3.087000     12.308000     -5.174000
C          -4.536000     13.188000     -3.854000
H          -2.811000     11.957000     -3.468000
H          -4.800000     14.055000     -4.473000
H          -4.605000     13.538000     -2.816000
C          -5.629000     12.083000     -4.026000
H          -5.597000     11.696000     -5.052000
C          -6.971000     12.712000     -3.724000
H          -5.522000     11.227000     -3.348000
H          -7.814000     12.049000     -3.955000
H          -7.124000     13.686000     -4.204000
H          -7.093000     13.008000     -2.675000
C          -7.338000     26.442000    -12.963000
C          -6.325000     25.486000    -12.619000
N          -7.139000     27.732000    -12.799000
C          -5.146000     25.936000    -12.046000
C          -6.017000     28.196000    -12.263000
C          -4.939000     27.303000    -11.863000
C          -3.675000     27.778000    -11.211000
C          -2.472000     26.986000    -11.344000
C          -3.559000     29.019000    -10.492000
N          -1.309000     27.413000    -10.765000
N          -4.611000     29.761000    -10.169000
C          -2.381000     29.371000     -9.893000
C          -1.192000     28.556000    -10.053000
S          -3.983000     30.972000     -9.208000
N          -2.428000     30.458000     -9.170000
C           0.013000     28.853000     -9.321000
S           0.335000     29.845000     -7.875000
C           1.268000     28.302000     -9.653000
C           1.985000     29.234000     -7.653000
S           1.648000     27.284000    -10.999000
C           2.346000     28.525000     -8.778000
C           2.889000     29.538000     -6.596000
C           3.306000     27.099000    -10.394000
C           3.543000     27.844000     -9.222000
N           2.361000     30.022000     -5.490000
S           4.670000     29.359000     -6.589000
C           3.348000     30.261000     -4.557000
C           4.652000     29.980000     -4.960000
C          -8.578000     26.099000    -13.711000
H          -6.517000     24.447000    -12.872000
H          -4.323000     25.273000    -11.794000
H          -5.992000     29.248000    -11.984000
H          -2.417000     26.083000    -11.950000
H           3.896000     26.306000    -10.834000
H           4.507000     27.874000     -8.728000
H           2.979000     30.740000     -3.660000
H           5.574000     29.953000     -4.394000
H          -8.621000     25.009000    -13.592000
C          -8.588000     26.453000    -15.203000
H          -9.410000     26.595000    -13.196000
H          -7.739000     25.879000    -15.592000
H          -8.351000     27.518000    -15.318000
C          -9.949000     26.007000    -15.783000
H         -10.779000     26.304000    -15.129000
C          -9.985000     24.501000    -16.123000
H         -10.148000     26.473000    -16.756000
H          -9.914000     24.021000    -15.139000
H          -9.102000     24.256000    -16.726000
C         -11.239000     24.053000    -16.937000
H         -12.042000     24.317000    -16.238000
C         -11.230000     22.541000    -17.345000
H         -11.373000     24.644000    -17.852000
H         -10.500000     22.378000    -18.148000
H         -12.150000     22.410000    -17.929000
H         -10.994000     21.869000    -16.511000
$end

--------------------------------------------------------------

             Standard Nuclear Orientation (Angstroms)
    I     Atom           X                Y                Z
 ----------------------------------------------------------------
    1      C      -7.0753595241     6.4783148236    -0.2024285313
    2      C      -6.4267582339     6.0143890942    -1.3637757162
    3      N      -7.7879219619     5.6466918521     0.5860922392
    4      C      -6.4676054546     4.6986330316    -1.7066787466
    5      C      -7.7458904305     4.3746923418     0.3535226877
    6      C      -7.0446344695     3.8186481542    -0.8038652933
    7      C      -6.9051526594     2.3413251607    -1.0420660435
    8      C      -5.5865528425     1.7920504395    -1.2276537684
    9      C      -7.9645663372     1.4115612328    -0.7534578354
   10      N      -5.3550492090     0.4274388795    -1.1980166633
   11      N      -9.2521552421     1.7486356703    -0.5528247485
   12      C      -7.6635667928     0.0234382328    -0.7304184994
   13      C      -6.2706428759    -0.4207871162    -0.8057630496
   14      S     -10.0606089740     0.3599227030    -0.3323846028
   15      N      -8.7896931489    -0.6725013013    -0.5142297045
   16      C      -5.7496708133    -1.7908395877    -0.6852170614
   17      S      -4.2602617675    -2.4099894299    -1.4915589041
   18      C      -6.2827578841    -2.8144254597     0.0667956629
   19      C      -4.3204833527    -3.9033578810    -0.5789642349
   20      S      -7.4729674148    -2.7159368394     1.3455150476
   21      C      -5.4687461255    -3.9882221431     0.1676083749
   22      C      -3.3392294629    -4.9348787861    -0.8016645403
   23      C      -7.0105661856    -4.3478881308     1.8374267122
   24      C      -5.9219658109    -4.8819331634     1.1649937212
   25      N      -3.6672510526    -6.1843257865    -0.7022159119
   26      S      -2.0147504149    -4.5227307899    -1.8729834848
   27      C      -2.7409713345    -6.9974215614    -1.2662390893
   28      C      -1.8349581301    -6.2715047112    -2.0096930556
   29      C      -7.0980153029     7.9280862727    -0.0873439489
   30      H      -6.0617687574     6.7799127628    -2.0420788896
   31      H      -5.9218907196     4.3861398849    -2.5924165527
   32      H      -8.1764155977     3.7407494827     1.1269918414
   33      H      -4.7550149775     2.4176928461    -1.5502283461
   34      H      -7.6306339605    -4.8025552106     2.5974871052
   35      H      -5.4986845801    -5.8710005674     1.3006022380
   36      H      -2.7526665762    -8.0630655062    -1.0810170487
   37      H      -0.9658059971    -6.5552400979    -2.5881390772
   38      H      -6.8200512002     8.5003758516    -0.9803705977
   39      C      -6.1621763550     8.4294569353     0.9828714137
   40      H      -8.1459532569     8.2174090901     0.0583418495
   41      H      -5.1181583290     8.1474424031     0.7981955764
   42      H      -6.4575685631     8.0426058950     1.9660635191
   43      C      -6.2080951187    10.0042719340     0.9238613545
   44      H      -5.8912101796    10.4343113629    -0.0341350051
   45      C      -5.3191115610    10.5693309031     2.0324742696
   46      H      -7.2425370222    10.3261537997     1.0937083821
   47      H      -4.3051252093    10.1602571522     1.9374145775
   48      H      -5.6784119630    10.2349355228     3.0142012941
   49      C      -5.2390265728    12.1297858504     2.0943188480
   50      H      -4.8871192776    12.5146969915     1.1291900125
   51      C      -4.2833040709    12.4979103242     3.2073722480
   52      H      -6.1913436132    12.6262314857     2.3190475414
   53      H      -4.0543870182    13.5704798779     3.2351307717
   54      H      -3.3509984487    11.9206176530     3.2024327717
   55      H      -4.6501854139    12.2373215586     4.2075685165
   56      C       9.2732725709     3.4723416490     0.2467895617
   57      C       7.9400801201     3.4912697994    -0.2830034301
   58      N       9.8150929746     2.3562498954     0.6842445281
   59      C       7.1972874738     2.3212443916    -0.2699792268
   60      C       9.1344056061     1.2170040820     0.7003592091
   61      C       7.7683159690     1.1400237930     0.2029598337
   62      C       6.9457750150    -0.1130064363     0.2449910536
   63      C       5.8764207105    -0.2872762718    -0.7132747737
   64      C       7.1844021474    -1.2006595879     1.1563448343
   65      N       5.1258885951    -1.4302952471    -0.6946155703
   66      N       8.0283533749    -1.1085796322     2.1765725576
   67      C       6.3700862833    -2.2994155411     1.1600903437
   68      C       5.3109986184    -2.4442717847     0.1798373219
   69      S       7.8172452608    -2.5344078553     3.0173300983
   70      N       6.6097301303    -3.1657867180     2.1079715654
   71      C       4.3721310551    -3.5342924147     0.2600914475
   72      S       3.9266773589    -4.6509944136     1.5766064114
   73      C       3.5287846712    -3.9009110359    -0.8091174485
   74      C       2.5018236810    -5.2921443517     0.7376643673
   75      S       3.5009028774    -3.2331754727    -2.4046712154
   76      C       2.5363022485    -4.8687573733    -0.5731299319
   77      C       1.5500587647    -6.2279029756     1.2330231686
   78      C       2.0970878565    -4.2422708052    -2.8049760955
   79      C       1.7153780458    -5.0874533826    -1.7444375383
   80      N       1.4909195910    -6.3715372997     2.5415138025
   81      S       0.4265683391    -7.2543882009     0.2906069411
   82      C       0.5259703829    -7.2986393722     2.8748811269
   83      C      -0.1470523048    -7.8918045409     1.8085877600
   84      C      10.2146167262     4.6214768713     0.1567205765
   85      H       7.5919172865     4.4244524634    -0.7169927812
   86      H       6.1962298714     2.2543956369    -0.6868927919
   87      H       9.5702481820     0.3799156150     1.2430323588
   88      H       5.6713701994     0.4226542246    -1.5130391004
   89      H       1.5547253262    -3.9820107814    -3.7042294556
   90      H       0.8966647082    -5.7933854301    -1.8192734601
   91      H       0.4945404967    -7.5185879179     3.9335811786
   92      H      -1.0167541149    -8.5357009303     1.7949788975
   93      H       9.5360147401     5.4540624946    -0.0678023049
   94      C      11.2918884986     4.5300710803    -0.9307583933
   95      H      10.6786526751     4.7332821941     1.1444630571
   96      H      10.6996834028     4.4515609640    -1.8498488601
   97      H      11.8430324442     3.5894377365    -0.8080055368
   98      C      12.1448227900     5.8164242639    -0.8570319968
   99      H      12.4113103596     6.0606339748     0.1793902108
  100      C      11.4865426273     7.0082249472    -1.5858737895
  101      H      13.0938725429     5.7057280224    -1.3960467543
  102      H      10.5959361938     7.2115610014    -0.9782788342
  103      H      11.1905008082     6.6847394853    -2.5913783381
  104      C      12.4130799416     8.2526924175    -1.7551230750
  105      H      12.6188702914     8.4990211098    -0.7062768006
  106      C      11.7651090384     9.4273301356    -2.5632375098
  107      H      13.3641386440     7.9993369509    -2.2406746708
  108      H      11.7200273154     9.1644480154    -3.6277273543
  109      H      12.5522026721    10.1905135255    -2.6147324161
  110      H      10.7557790004     9.6841395182    -2.2195256894
 ----------------------------------------------------------------

    9   -5663.5103754342      8.13E-06 Convergence criterion met
 Total energy in the final basis set = -5663.5103754342

                    Orbital Energies (a.u.)
 --------------------------------------------------------------

 Alpha MOs
 -- Occupied --
-88.988 -88.984 -88.930 -88.926 -88.926 -88.922 -88.910 -88.907
-14.385 -14.382 -14.381 -14.380 -14.348 -14.348 -14.345 -14.343
-14.328 -14.320 -10.269 -10.267 -10.267 -10.265 -10.261 -10.257
-10.251 -10.249 -10.247 -10.245 -10.243 -10.242 -10.240 -10.238
-10.236 -10.235 -10.235 -10.234 -10.232 -10.230 -10.229 -10.229
-10.229 -10.229 -10.227 -10.224 -10.223 -10.223 -10.216 -10.214
-10.213 -10.212 -10.208 -10.207 -10.203 -10.200 -10.199 -10.190
-10.183 -10.182 -10.181 -10.180 -10.179 -10.179 -10.178 -10.177
-10.177 -10.176 -10.176 -10.168  -8.044  -8.040  -7.990  -7.987
 -7.984  -7.981  -7.970  -7.968  -6.009  -6.005  -6.003  -6.001
 -6.000  -5.997  -5.954  -5.951  -5.951  -5.949  -5.948  -5.947
 -5.946  -5.945  -5.944  -5.942  -5.940  -5.938  -5.934  -5.932
 -5.931  -5.929  -5.926  -5.924  -1.044  -1.035  -0.984  -0.968
 -0.957  -0.950  -0.948  -0.943  -0.913  -0.909  -0.908  -0.898
 -0.844  -0.842  -0.832  -0.828  -0.817  -0.809  -0.808  -0.807
 -0.807  -0.805  -0.800  -0.799  -0.788  -0.780  -0.768  -0.765
 -0.751  -0.746  -0.743  -0.739  -0.721  -0.721  -0.712  -0.712
 -0.693  -0.691  -0.675  -0.672  -0.655  -0.651  -0.646  -0.641
 -0.634  -0.632  -0.627  -0.626  -0.611  -0.608  -0.602  -0.601
 -0.593  -0.591  -0.585  -0.585  -0.581  -0.577  -0.577  -0.567
 -0.551  -0.543  -0.541  -0.539  -0.528  -0.524  -0.519  -0.516
 -0.508  -0.506  -0.505  -0.500  -0.490  -0.488  -0.481  -0.476
 -0.473  -0.473  -0.472  -0.471  -0.465  -0.459  -0.452  -0.449
 -0.445  -0.442  -0.442  -0.440  -0.437  -0.436  -0.433  -0.433
 -0.431  -0.430  -0.426  -0.423  -0.419  -0.415  -0.414  -0.414
 -0.411  -0.410  -0.409  -0.408  -0.401  -0.400  -0.399  -0.397
 -0.396  -0.393  -0.391  -0.390  -0.388  -0.386  -0.385  -0.383
 -0.381  -0.378  -0.377  -0.376  -0.370  -0.363  -0.356  -0.354
 -0.354  -0.352  -0.349  -0.347  -0.345  -0.344  -0.342  -0.339
 -0.337  -0.336  -0.334  -0.332  -0.332  -0.329  -0.328  -0.325
 -0.320  -0.313  -0.310  -0.308  -0.304  -0.303  -0.301  -0.297
 -0.296  -0.296  -0.294  -0.293  -0.291  -0.289  -0.287  -0.284
 -0.274  -0.270  -0.264  -0.261  -0.254  -0.250  -0.249  -0.244
 -0.243  -0.239  -0.227  -0.227  -0.193  -0.192

          Ground-State Mulliken Net Atomic Charges

     Atom                 Charge (a.u.)
  ----------------------------------------
      1 C                     0.279179
      2 C                    -0.114087
      3 N                    -0.470229
      4 C                    -0.070812
      5 C                     0.109763
      6 C                     0.017568
      7 C                     0.001475
      8 C                     0.059530
      9 C                     0.201489
     10 N                    -0.497018
     11 N                    -0.544993
     12 C                     0.238420
     13 C                     0.300153
     14 S                     0.605807
     15 N                    -0.564680
     16 C                    -0.217800
     17 S                     0.314493
     18 C                    -0.125127
     19 C                    -0.239228
     20 S                     0.273948
     21 C                     0.151132
     22 C                     0.073429
     23 C                    -0.314141
     24 C                    -0.044909
     25 N                    -0.416845
     26 S                     0.263305
     27 C                     0.133257
     28 C                    -0.315236
     29 C                    -0.233857
     30 H                     0.086303
     31 H                     0.096507
     32 H                     0.106727
     33 H                     0.115746
     34 H                     0.130242
     35 H                     0.121959
     36 H                     0.115972
     37 H                     0.131025
     38 H                     0.101096
     39 C                    -0.176225
     40 H                     0.115535
     41 H                     0.096934
     42 H                     0.115600
     43 C                    -0.184918
     44 H                     0.089826
     45 C                    -0.171640
     46 H                     0.096570
     47 H                     0.089042
     48 H                     0.092781
     49 C                    -0.173760
     50 H                     0.091179
     51 C                    -0.318790
     52 H                     0.095864
     53 H                     0.094625
     54 H                     0.098675
     55 H                     0.100826
     56 C                     0.255191
     57 C                    -0.126772
     58 N                    -0.470770
     59 C                    -0.073167
     60 C                     0.082591
     61 C                     0.027186
     62 C                     0.014285
     63 C                     0.061356
     64 C                     0.250155
     65 N                    -0.534448
     66 N                    -0.560300
     67 C                     0.210849
     68 C                     0.301264
     69 S                     0.584743
     70 N                    -0.562971
     71 C                    -0.179697
     72 S                     0.358468
     73 C                    -0.147843
     74 C                    -0.227646
     75 S                     0.292442
     76 C                     0.151389
     77 C                     0.054003
     78 C                    -0.317875
     79 C                    -0.061438
     80 N                    -0.423162
     81 S                     0.282581
     82 C                     0.120774
     83 C                    -0.320057
     84 C                    -0.210891
     85 H                     0.087765
     86 H                     0.093560
     87 H                     0.126996
     88 H                     0.123354
     89 H                     0.134999
     90 H                     0.087430
     91 H                     0.115587
     92 H                     0.139606
     93 H                     0.086516
     94 C                    -0.168680
     95 H                     0.115400
     96 H                     0.090419
     97 H                     0.114279
     98 C                    -0.178260
     99 H                     0.093154
    100 C                    -0.174581
    101 H                     0.086057
    102 H                     0.091006
    103 H                     0.088988
    104 C                    -0.177377
    105 H                     0.094264
    106 C                    -0.320611
    107 H                     0.092386
    108 H                     0.102795
    109 H                     0.104376
    110 H                     0.108645
  ----------------------------------------
  Sum of atomic charges =     0.000000

                    Cartesian Multipole Moments
 -----------------------------------------------------------------
    Charge (ESU x 10^10)
                 0.0000
    Dipole Moment (Debye)
         X      -1.3213      Y      -0.3631      Z      -2.2169
       Tot       2.6062
    Quadrupole Moments (Debye-Ang)
        XX    -464.9587     XY      14.7256     YY    -400.5817
        XZ     -10.2702     YZ     -14.5367     ZZ    -436.9380

 Total job time:  82.11s(wall), 894.68s(cpu)
        *  Thank you very much for using Q-Chem.  Have a nice day.  *
