 Q-Chem 4.4, Q-Chem, Inc., Pleasanton, CA (2016)
 Q-Chem 4.4.2 for Intel X86 Linux

User input:
--------------------------------------------------------------
$comment
SP
$end

$rem
MEM_STATIC 5000
MEM_TOTAL 20000
JOBTYPE SP
EXCHANGE B3LYP
BASIS 6-31g(d,p)
$end

$molecule
0 1
C          -3.804000    -19.633000      2.610000
C          -3.612000    -19.827000      1.235000
N          -3.437000    -18.484000      3.145000
C          -3.099000    -18.769000      0.473000
C          -2.935000    -17.485000      2.426000
C          -2.783000    -17.489000      1.008000
C          -2.206000    -16.345000      0.274000
C          -1.167000    -16.573000     -0.672000
C          -2.579000    -14.994000      0.405000
N          -0.549000    -15.554000     -1.340000
N          -3.457000    -14.532000      1.251000
C          -1.951000    -13.963000     -0.292000
C          -0.841000    -14.259000     -1.147000
S          -3.711000    -12.939000      0.958000
N          -2.470000    -12.734000     -0.003000
C           0.056000    -13.256000     -1.809000
S          -0.007000    -11.479000     -1.647000
C           1.309000    -13.543000     -2.272000
C           1.644000    -11.189000     -1.958000
S           2.046000    -15.056000     -2.505000
C           2.216000    -12.419000     -2.283000
C           2.292000     -9.980000     -1.603000
C           3.617000    -14.197000     -2.581000
C           3.573000    -12.876000     -2.509000
N           3.272000     -9.501000     -2.336000
S           1.976000     -9.125000     -0.052000
C           3.806000     -8.354000     -1.777000
C           3.199000     -7.923000     -0.563000
C          -4.525000    -20.621000      3.574000
H          -3.794000    -20.805000      0.800000
H          -2.985000    -18.975000     -0.587000
H          -2.542000    -16.645000      2.996000
H          -0.850000    -17.570000     -0.975000
H           4.493000    -14.776000     -2.841000
H           4.407000    -12.201000     -2.668000
H           4.536000     -7.898000     -2.432000
H           3.360000     -7.011000     -0.004000
H          -3.726000    -21.093000      4.159000
C          -5.763000    -21.512000      3.112000
H          -5.009000    -19.936000      4.281000
H          -5.346000    -22.199000      2.364000
H          -6.459000    -20.793000      2.664000
C          -6.407000    -22.316000      4.241000
H          -5.740000    -23.049000      4.712000
C          -7.676000    -23.095000      3.723000
H          -6.742000    -21.633000      5.031000
H          -7.341000    -24.060000      3.323000
H          -8.171000    -22.436000      2.999000
C          -8.770000    -23.264000      4.818000
H          -8.422000    -23.716000      5.755000
C         -10.015000    -24.036000      4.269000
H          -9.061000    -22.275000      5.193000
H         -10.926000    -23.906000      4.867000
H          -9.864000    -25.096000      4.034000
H         -10.321000    -23.692000      3.273000
C          -4.957000    -15.347000      7.093000
C          -4.911000    -16.397000      6.182000
N          -4.174000    -15.350000      8.224000
C          -4.030000    -17.452000      6.390000
C          -3.432000    -16.455000      8.460000
C          -3.290000    -17.566000      7.572000
C          -2.351000    -18.638000      7.861000
C          -1.077000    -18.276000      8.419000
C          -2.578000    -19.997000      7.525000
N          -0.107000    -19.169000      8.540000
N          -3.748000    -20.521000      7.174000
C          -1.562000    -20.918000      7.757000
C          -0.270000    -20.420000      8.187000
S          -3.427000    -22.151000      6.997000
N          -1.791000    -22.151000      7.344000
C           0.886000    -21.351000      8.131000
S           0.888000    -22.963000      7.484000
C           2.156000    -21.061000      8.587000
C           2.563000    -23.165000      7.811000
S           2.729000    -19.500000      9.236000
C           3.106000    -22.089000      8.394000
C           3.263000    -24.377000      7.487000
C           4.326000    -20.372000      9.441000
C           4.375000    -21.625000      8.903000
N           4.578000    -24.205000      7.344000
S           2.533000    -25.649000      6.538000
C           5.078000    -25.317000      6.617000
C           4.142000    -26.234000      6.274000
C          -5.874000    -14.135000      6.906000
H          -5.377000    -16.465000      5.203000
H          -4.008000    -18.344000      5.771000
H          -2.880000    -16.476000      9.399000
H          -0.876000    -17.278000      8.807000
H           5.179000    -19.796000      9.773000
H           5.216000    -22.308000      8.881000
H           6.148000    -25.443000      6.515000
H           4.360000    -27.183000      5.800000
H          -6.939000    -14.397000      6.880000
C          -5.311000    -13.243000      5.828000
H          -5.788000    -13.653000      7.888000
H          -5.046000    -13.803000      4.924000
H          -4.460000    -12.660000      6.202000
C          -6.456000    -12.323000      5.407000
H          -7.220000    -12.993000      4.993000
C          -6.023000    -11.207000      4.338000
H          -6.881000    -11.846000      6.298000
H          -5.500000    -11.778000      3.561000
H          -5.332000    -10.477000      4.777000
C          -7.184000    -10.334000      3.709000
H          -7.895000    -11.047000      3.273000
C          -6.729000     -9.422000      2.619000
H          -7.743000     -9.816000      4.498000
H          -6.209000     -9.927000      1.795000
H          -6.164000     -8.561000      2.998000
H          -7.627000     -8.879000      2.300000
$end

--------------------------------------------------------------

             Standard Nuclear Orientation (Angstroms)
    I     Atom           X                Y                Z
 ----------------------------------------------------------------
    1      C      -1.3023952287     2.0841207424    -2.6341176568
    2      C      -0.6603476665     1.7012505571    -3.8199972244
    3      N      -0.6695484519     1.9164172642    -1.4884756968
    4      C       0.6524570272     1.2171933330    -3.7464483289
    5      C       0.5700689525     1.4420569491    -1.4156953263
    6      C       1.3911338810     1.1142726203    -2.5347367987
    7      C       2.7589385440     0.5801384166    -2.3790703077
    8      C       3.1398964176    -0.5878947401    -3.0980909216
    9      C       3.7772008382     1.1138260265    -1.5667831446
   10      N       4.3683399162    -1.1680275482    -2.9535866110
   11      N       3.6477420812     2.1365064326    -0.7684040260
   12      C       5.0324044775     0.5215323342    -1.4371451640
   13      C       5.3064996133    -0.7126396769    -2.1097760461
   14      S       5.1109975207     2.5265842227    -0.1401231680
   15      N       5.8570930315     1.2054395500    -0.5912830540
   16      C       6.5234297251    -1.5688705786    -1.9231969855
   17      S       7.8764087025    -1.2897937198    -0.7920444787
   18      C       6.5802936297    -2.8939731849    -2.2512466449
   19      C       8.3224991571    -2.9244122269    -0.6032386458
   20      S       5.4956506632    -3.8172413691    -3.1773959284
   21      C       7.5188043545    -3.6651909030    -1.4698588725
   22      C       9.1135661129    -3.3850536018     0.4782568906
   23      C       6.2677909231    -5.2805921212    -2.4888452800
   24      C       7.3016897031    -5.0819848027    -1.6864928351
   25      N       9.9461451768    -4.3900028864     0.3232761255
   26      S       8.9059301506    -2.7847356901     2.1614050457
   27      C      10.5664496274    -4.7195763576     1.5148505946
   28      C      10.2033659306    -3.9214584990     2.6369843268
   29      C      -2.6789293829     2.8062845488    -2.5397028320
   30      H      -1.2084816707     1.7179977209    -4.7570680040
   31      H       1.1008151080     0.9493241947    -4.6984216248
   32      H       0.9313166432     1.2188980727    -0.4133734110
   33      H       2.5087422008    -1.0487149101    -3.8567714377
   34      H       5.9623445942    -6.2409064029    -2.8821848540
   35      H       7.9587808435    -5.8494498462    -1.2919163022
   36      H      11.3306128125    -5.4708230714     1.3680718440
   37      H      10.6254975129    -3.9092860768     3.6328772725
   38      H      -3.3881672474     2.0394921391    -2.2044103446
   39      C      -3.1594548991     3.8704377658    -3.6244342084
   40      H      -2.5390793205     3.4477886694    -1.6609284450
   41      H      -3.2783797708     3.2896388600    -4.5484967095
   42      H      -2.3264841251     4.5801641685    -3.6917329684
   43      C      -4.4802805270     4.5577014672    -3.2796425821
   44      H      -5.3385052143     3.8778965317    -3.2066039906
   45      C      -4.8376526560     5.6578065692    -4.3508941519
   46      H      -4.3874804539     5.0624670664    -2.3104089486
   47      H      -5.3862068138     5.1706407152    -5.1664968534
   48      H      -3.8900533106     6.1281729244    -4.6412266723
   49      C      -5.6294198387     6.8547738271    -3.7469106158
   50      H      -6.5343956324     6.5789120772    -3.1916664283
   51      C      -5.9626962942     7.9281110979    -4.8351587067
   52      H      -5.0460356993     7.2980855916    -2.9304765245
   53      H      -6.2195805774     8.9155404481    -4.4309078646
   54      H      -6.6875604165     7.6324952937    -5.6024978108
   55      H      -5.1107854959     8.1432248164    -5.4923969282
   56      C      -0.4281369601     4.2564034745     3.2236425134
   57      C      -0.7550550393     3.9808097217     1.9001208276
   58      N      -1.0718577999     3.6256350750     4.2628795925
   59      C      -1.7194387534     3.0214552307     1.6136718573
   60      C      -2.0956982635     2.8012969478     3.9474396502
   61      C      -2.4839274022     2.4271796105     2.6236785865
   62      C      -3.5080558943     1.4188968250     2.4024261153
   63      C      -3.5135590821     0.2727130064     3.2694418990
   64      C      -4.4248121438     1.4502315634     1.3208152273
   65      N      -4.2939349733    -0.7673485285     3.0198913593
   66      N      -4.6693865570     2.5018547356     0.5456061844
   67      C      -5.2914933665     0.3756103496     1.1523696713
   68      C      -5.1116914126    -0.7892879540     1.9966748291
   69      S      -5.8892686883     1.9827977814    -0.4711226212
   70      N      -6.0610011307     0.4132258278     0.0801094992
   71      C      -5.8171424328    -2.0390943961     1.6138488692
   72      S      -6.7557532814    -2.3004688540     0.1758467595
   73      C      -5.8222862756    -3.2020701455     2.3570829825
   74      C      -7.0797964233    -3.9333540761     0.6025080934
   75      S      -4.9160854095    -3.5130075219     3.8631935156
   76      C      -6.5310901477    -4.2766557715     1.7745061177
   77      C      -7.8671093567    -4.7982159788    -0.2318013422
   78      C      -5.7167821727    -5.1584174453     3.7973993112
   79      C      -6.4251782124    -5.4127529423     2.6592681650
   80      N      -7.6205327220    -6.0935913552    -0.0306531446
   81      S      -8.3668128460    -4.3380460124    -1.8411568109
   82      C      -8.0964448997    -6.8006360687    -1.1658484459
   83      C      -8.6616930430    -6.0222212912    -2.1193677014
   84      C       0.6513639774     5.2712577629     3.6103601098
   85      H      -0.2515762706     4.3102000452     0.9955589755
   86      H      -2.0872291563     2.8235592649     0.6112366193
   87      H      -2.6469801851     2.3722581632     4.7834300594
   88      H      -2.9215555666     0.2335640498     4.1831968972
   89      H      -5.4245088771    -5.8941191387     4.5342360225
   90      H      -6.9538943047    -6.3202820968     2.3926145930
   91      H      -8.1208376761    -7.8823077849    -1.1419467542
   92      H      -9.1564305729    -6.4015227692    -3.0048992736
   93      H       0.4338523005     6.2890335711     3.2634219675
   94      C       2.0128940485     4.6799788935     3.3432605701
   95      H       0.4766803569     5.3627246628     4.6897874760
   96      H       2.0851172571     4.2435751513     2.3405758829
   97      H       2.2865002641     3.9522806383     4.1175737420
   98      C       2.9859564048     5.8580206520     3.3374929081
   99      H       2.6661946409     6.4853058722     2.4959124503
  100      C       4.5224661660     5.4208341560     3.1835068006
  101      H       2.8507660289     6.4413613735     4.2559003150
  102      H       4.5167654879     4.7447350232     2.3197033131
  103      H       4.8753248117     4.8752928722     4.0672361052
  104      C       5.5774610195     6.5834153504     2.9808202800
  105      H       5.2363579855     7.1509326145     2.1058580664
  106      C       6.9603051165     6.0993300876     2.6974959751
  107      H       5.5323770147     7.2906440851     3.8181499339
  108      H       7.0355623223     5.4276113961     1.8328970203
  109      H       7.4524140723     5.6850076391     3.5865137951
  110      H       7.5714998790     7.0048822748     2.6003867664
 ----------------------------------------------------------------

    9   -5663.5107591460      8.55E-06 Convergence criterion met
 Total energy in the final basis set = -5663.5107591460

                    Orbital Energies (a.u.)
 --------------------------------------------------------------

 Alpha MOs
 -- Occupied --
-88.991 -88.983 -88.930 -88.927 -88.919 -88.917 -88.908 -88.904
-14.390 -14.385 -14.382 -14.369 -14.350 -14.347 -14.346 -14.344
-14.328 -14.324 -10.271 -10.271 -10.265 -10.259 -10.255 -10.252
-10.251 -10.250 -10.247 -10.242 -10.241 -10.239 -10.239 -10.238
-10.235 -10.231 -10.230 -10.229 -10.229 -10.229 -10.229 -10.228
-10.223 -10.222 -10.221 -10.219 -10.218 -10.218 -10.216 -10.216
-10.215 -10.202 -10.199 -10.198 -10.196 -10.195 -10.192 -10.191
-10.190 -10.188 -10.187 -10.186 -10.185 -10.180 -10.178 -10.177
-10.177 -10.177 -10.176 -10.172  -8.046  -8.038  -7.989  -7.989
 -7.980  -7.978  -7.968  -7.962  -6.012  -6.006  -6.004  -6.003
 -5.998  -5.995  -5.953  -5.953  -5.950  -5.950  -5.946  -5.946
 -5.944  -5.942  -5.940  -5.938  -5.936  -5.935  -5.933  -5.929
 -5.926  -5.925  -5.923  -5.918  -1.048  -1.036  -0.966  -0.965
 -0.964  -0.956  -0.949  -0.923  -0.915  -0.914  -0.907  -0.905
 -0.851  -0.835  -0.832  -0.828  -0.810  -0.810  -0.805  -0.805
 -0.801  -0.799  -0.797  -0.788  -0.784  -0.779  -0.769  -0.767
 -0.751  -0.748  -0.745  -0.734  -0.719  -0.718  -0.714  -0.707
 -0.698  -0.689  -0.678  -0.676  -0.658  -0.652  -0.646  -0.641
 -0.637  -0.631  -0.627  -0.616  -0.614  -0.604  -0.600  -0.593
 -0.589  -0.586  -0.585  -0.579  -0.579  -0.578  -0.574  -0.570
 -0.551  -0.549  -0.543  -0.537  -0.526  -0.519  -0.514  -0.509
 -0.507  -0.504  -0.496  -0.494  -0.489  -0.485  -0.481  -0.481
 -0.474  -0.472  -0.470  -0.466  -0.465  -0.459  -0.452  -0.449
 -0.448  -0.443  -0.440  -0.436  -0.435  -0.431  -0.430  -0.427
 -0.426  -0.426  -0.425  -0.422  -0.421  -0.418  -0.416  -0.415
 -0.409  -0.406  -0.405  -0.404  -0.398  -0.397  -0.395  -0.395
 -0.393  -0.393  -0.392  -0.390  -0.386  -0.385  -0.385  -0.378
 -0.376  -0.374  -0.373  -0.370  -0.367  -0.362  -0.358  -0.355
 -0.352  -0.351  -0.351  -0.348  -0.346  -0.344  -0.342  -0.340
 -0.338  -0.337  -0.333  -0.330  -0.329  -0.325  -0.323  -0.320
 -0.319  -0.314  -0.312  -0.308  -0.303  -0.303  -0.298  -0.297
 -0.296  -0.293  -0.291  -0.289  -0.289  -0.286  -0.285  -0.279
 -0.275  -0.265  -0.264  -0.259  -0.254  -0.252  -0.252  -0.245
 -0.241  -0.239  -0.233  -0.225  -0.203  -0.192

          Ground-State Mulliken Net Atomic Charges

     Atom                 Charge (a.u.)
  ----------------------------------------
      1 C                     0.266459
      2 C                    -0.124989
      3 N                    -0.480515
      4 C                    -0.090660
      5 C                     0.093668
      6 C                     0.039633
      7 C                     0.015850
      8 C                     0.063016
      9 C                     0.272903
     10 N                    -0.539596
     11 N                    -0.573844
     12 C                     0.165225
     13 C                     0.332528
     14 S                     0.608356
     15 N                    -0.544417
     16 C                    -0.214147
     17 S                     0.302134
     18 C                    -0.111074
     19 C                    -0.214209
     20 S                     0.289677
     21 C                     0.129383
     22 C                     0.037260
     23 C                    -0.314526
     24 C                    -0.033023
     25 N                    -0.400978
     26 S                     0.272898
     27 C                     0.112083
     28 C                    -0.309550
     29 C                    -0.245960
     30 H                     0.091954
     31 H                     0.094443
     32 H                     0.110837
     33 H                     0.120041
     34 H                     0.120862
     35 H                     0.123038
     36 H                     0.117706
     37 H                     0.141217
     38 H                     0.119312
     39 C                    -0.183555
     40 H                     0.131928
     41 H                     0.095353
     42 H                     0.106874
     43 C                    -0.188994
     44 H                     0.098649
     45 C                    -0.171769
     46 H                     0.100938
     47 H                     0.097998
     48 H                     0.099725
     49 C                    -0.182398
     50 H                     0.093921
     51 C                    -0.327198
     52 H                     0.096985
     53 H                     0.102086
     54 H                     0.104547
     55 H                     0.099286
     56 C                     0.233201
     57 C                    -0.115475
     58 N                    -0.477714
     59 C                    -0.069347
     60 C                     0.060499
     61 C                     0.050381
     62 C                    -0.002714
     63 C                     0.076338
     64 C                     0.250440
     65 N                    -0.524234
     66 N                    -0.552092
     67 C                     0.209387
     68 C                     0.330400
     69 S                     0.578278
     70 N                    -0.567303
     71 C                    -0.222409
     72 S                     0.334232
     73 C                    -0.142638
     74 C                    -0.264727
     75 S                     0.269508
     76 C                     0.205141
     77 C                     0.054310
     78 C                    -0.311674
     79 C                    -0.043012
     80 N                    -0.425977
     81 S                     0.276240
     82 C                     0.109836
     83 C                    -0.296732
     84 C                    -0.238078
     85 H                     0.098191
     86 H                     0.127228
     87 H                     0.092258
     88 H                     0.121946
     89 H                     0.121072
     90 H                     0.120811
     91 H                     0.117122
     92 H                     0.133989
     93 H                     0.107386
     94 C                    -0.170930
     95 H                     0.122833
     96 H                     0.103504
     97 H                     0.110598
     98 C                    -0.185943
     99 H                     0.091494
    100 C                    -0.182916
    101 H                     0.092551
    102 H                     0.084867
    103 H                     0.091853
    104 C                    -0.176271
    105 H                     0.090413
    106 C                    -0.312659
    107 H                     0.094161
    108 H                     0.102560
    109 H                     0.101896
    110 H                     0.100551
  ----------------------------------------
  Sum of atomic charges =     0.000000

                    Cartesian Multipole Moments
 -----------------------------------------------------------------
    Charge (ESU x 10^10)
                 0.0000
    Dipole Moment (Debye)
         X      -0.0910      Y      -0.8991      Z      -3.3640
       Tot       3.4833
    Quadrupole Moments (Debye-Ang)
        XX    -424.6538     XY       5.5055     YY    -414.8053
        XZ      47.0175     YZ      -6.5242     ZZ    -434.9926

 Total job time:  82.58s(wall), 915.42s(cpu)
        *  Thank you very much for using Q-Chem.  Have a nice day.  *
