 Q-Chem 4.4, Q-Chem, Inc., Pleasanton, CA (2016)
 Q-Chem 4.4.2 for Intel X86 Linux

User input:
--------------------------------------------------------------
$comment
SP
$end

$rem
MEM_STATIC 5000
MEM_TOTAL 20000
JOBTYPE SP
EXCHANGE B3LYP
BASIS 6-31g(d,p)
$end

$molecule
0 1
C          -3.919000    -25.799000      6.593000
C          -2.644000    -26.342000      6.295000
N          -4.142000    -25.112000      7.755000
C          -1.549000    -26.104000      7.110000
C          -3.109000    -25.030000      8.609000
C          -1.760000    -25.452000      8.355000
C          -0.636000    -25.287000      9.332000
C           0.264000    -26.379000      9.525000
C          -0.433000    -24.110000     10.192000
N           1.466000    -26.218000     10.118000
N          -1.233000    -22.999000     10.299000
C           0.745000    -23.979000     10.854000
C           1.713000    -25.005000     10.764000
S          -0.481000    -21.938000     11.321000
N           0.804000    -22.878000     11.629000
C           3.066000    -24.889000     11.264000
S           3.566000    -23.502000     12.262000
C           4.188000    -25.696000     11.015000
C           5.238000    -24.155000     12.393000
S           4.371000    -26.961000      9.851000
C           5.337000    -25.204000     11.558000
C           6.394000    -23.579000     13.078000
C           6.163000    -26.925000     10.196000
C           6.479000    -25.878000     11.091000
N           7.340000    -23.128000     12.243000
S           6.338000    -22.992000     14.722000
C           8.021000    -22.157000     12.874000
C           7.682000    -21.948000     14.193000
C          -4.977000    -26.121000      5.628000
H          -2.502000    -26.962000      5.414000
H          -0.605000    -26.566000      6.835000
H          -3.370000    -24.594000      9.572000
H           0.129000    -27.327000      9.008000
H           6.864000    -27.603000      9.727000
H           7.504000    -25.688000     11.387000
H           8.777000    -21.544000     12.401000
H           8.282000    -21.430000     14.929000
H          -5.946000    -25.656000      5.848000
C          -5.129000    -27.537000      5.156000
H          -4.591000    -25.533000      4.786000
H          -4.156000    -27.969000      4.891000
H          -5.829000    -27.524000      4.311000
C          -5.677000    -28.574000      6.284000
H          -5.768000    -29.589000      5.877000
C          -7.058000    -28.191000      6.833000
H          -5.010000    -28.616000      7.154000
H          -7.041000    -27.130000      7.109000
H          -7.214000    -28.826000      7.714000
C          -8.231000    -28.386000      5.899000
H          -8.299000    -27.628000      5.109000
C          -9.576000    -28.501000      6.727000
H          -8.142000    -29.330000      5.348000
H         -10.393000    -28.404000      6.002000
H          -9.622000    -27.711000      7.488000
H          -9.677000    -29.513000      7.139000
C          -4.957000    -15.347000      7.093000
C          -4.911000    -16.397000      6.182000
N          -4.174000    -15.350000      8.224000
C          -4.030000    -17.452000      6.390000
C          -3.432000    -16.455000      8.460000
C          -3.290000    -17.566000      7.572000
C          -2.351000    -18.638000      7.861000
C          -1.077000    -18.276000      8.419000
C          -2.578000    -19.997000      7.525000
N          -0.107000    -19.169000      8.540000
N          -3.748000    -20.521000      7.174000
C          -1.562000    -20.918000      7.757000
C          -0.270000    -20.420000      8.187000
S          -3.427000    -22.151000      6.997000
N          -1.791000    -22.151000      7.344000
C           0.886000    -21.351000      8.131000
S           0.888000    -22.963000      7.484000
C           2.156000    -21.061000      8.587000
C           2.563000    -23.165000      7.811000
S           2.729000    -19.500000      9.236000
C           3.106000    -22.089000      8.394000
C           3.263000    -24.377000      7.487000
C           4.326000    -20.372000      9.441000
C           4.375000    -21.625000      8.903000
N           4.578000    -24.205000      7.344000
S           2.533000    -25.649000      6.538000
C           5.078000    -25.317000      6.617000
C           4.142000    -26.234000      6.274000
C          -5.874000    -14.135000      6.906000
H          -5.377000    -16.465000      5.203000
H          -4.008000    -18.344000      5.771000
H          -2.880000    -16.476000      9.399000
H          -0.876000    -17.278000      8.807000
H           5.179000    -19.796000      9.773000
H           5.216000    -22.308000      8.881000
H           6.148000    -25.443000      6.515000
H           4.360000    -27.183000      5.800000
H          -6.939000    -14.397000      6.880000
C          -5.311000    -13.243000      5.828000
H          -5.788000    -13.653000      7.888000
H          -5.046000    -13.803000      4.924000
H          -4.460000    -12.660000      6.202000
C          -6.456000    -12.323000      5.407000
H          -7.220000    -12.993000      4.993000
C          -6.023000    -11.207000      4.338000
H          -6.881000    -11.846000      6.298000
H          -5.500000    -11.778000      3.561000
H          -5.332000    -10.477000      4.777000
C          -7.184000    -10.334000      3.709000
H          -7.895000    -11.047000      3.273000
C          -6.729000     -9.422000      2.619000
H          -7.743000     -9.816000      4.498000
H          -6.209000     -9.927000      1.795000
H          -6.164000     -8.561000      2.998000
H          -7.627000     -8.879000      2.300000
$end

--------------------------------------------------------------

             Standard Nuclear Orientation (Angstroms)
    I     Atom           X                Y                Z
 ----------------------------------------------------------------
    1      C       1.0530562921    -5.4299431442     0.2328188739
    2      C      -0.0705612757    -5.2002035156     1.0658742528
    3      N       1.2292060323    -4.7276015854    -0.9280556257
    4      C      -0.9720917733    -4.1825402848     0.7984825724
    5      C       0.2597843732    -3.8573068111    -1.2535362743
    6      C      -0.8553428651    -3.4796927961    -0.4311617257
    7      C      -1.8796298834    -2.4615116189    -0.8302521849
    8      C      -3.2571448305    -2.7506759782    -0.5882820554
    9      C      -1.5884299737    -1.2094217721    -1.5469192123
   10      N      -4.2033605131    -1.7880315701    -0.6074033924
   11      N      -0.3742395522    -0.7724718789    -2.0165854887
   12      C      -2.5608949692    -0.2664855745    -1.6378706266
   13      C      -3.8451477654    -0.5367458534    -1.1130333782
   14      S      -0.5953234566     0.7438442255    -2.6391739393
   15      N      -2.1868497626     0.8224825275    -2.3382602726
   16      C      -4.8920933320     0.4536013002    -0.9819513586
   17      S      -4.7253913992     2.0742717775    -1.6998724335
   18      C      -6.0910972305     0.4021689101    -0.2526514472
   19      C      -6.3453801449     2.5534747976    -1.0792639184
   20      S      -6.5996182362    -0.7747418804     0.9070456590
   21      C      -6.7760580146     1.5802674915    -0.2577950438
   22      C      -7.0326743571     3.8370188302    -1.2114697515
   23      C      -7.9482247994     0.3649685994     1.3695446968
   24      C      -7.8293260094     1.5890199806     0.6733756844
   25      N      -7.1173117358     4.5189522046    -0.0611022507
   26      S      -7.2048662816     4.6785317838    -2.7322086805
   27      C      -7.2076528143     5.8256494598    -0.3596717951
   28      C      -7.3043025245     6.1282019884    -1.7003745216
   29      C       1.9290443879    -6.5299187490     0.6534987103
   30      H      -0.2471423052    -5.8255641855     1.9367750351
   31      H      -1.8223521496    -4.0729873163     1.4657609548
   32      H       0.3756283688    -3.4228951757    -2.2452281114
   33      H      -3.5733157445    -3.6984819335    -0.1571001630
   34      H      -8.6957133299     0.1179814448     2.1120433447
   35      H      -8.5295911992     2.3980867880     0.8447832840
   36      H      -7.1858406256     6.6168710720     0.3782486538
   37      H      -7.6579635153     7.0614983603    -2.1173898520
   38      H       2.8179462141    -6.6653159470     0.0249232239
   39      C       1.3166382182    -7.8414042845     1.0483510541
   40      H       2.3229974343    -6.0629513019     1.5647870295
   41      H       0.4613725757    -7.6893278271     1.7184043593
   42      H       2.1099756571    -8.4448966259     1.5072701122
   43      C       0.6547377849    -8.6792324610    -0.1796508853
   44      H       0.2273729818    -9.6263976964     0.1730421003
   45      C       1.6641389414    -9.0310619050    -1.2808213297
   46      H      -0.1424820621    -8.1109280714    -0.6746495077
   47      H       2.2178873599    -8.1233858111    -1.5485390867
   48      H       1.0667125194    -9.3933792813    -2.1267112688
   49      C       2.6887514648   -10.0898114354    -0.9409263329
   50      H       3.4872369515    -9.7365467211    -0.2769135550
   51      C       3.2639694805   -10.7393270629    -2.2657235566
   52      H       2.2308007750   -10.9150270958    -0.3823940782
   53      H       4.1491897208   -11.3138201791    -1.9676199074
   54      H       3.5219420193    -9.9566941987    -2.9911702943
   55      H       2.5575862499   -11.4829726689    -2.6557273312
   56      C       8.1287404103     2.2619700023    -0.9251597119
   57      C       7.7611156490     1.2384839013    -0.0580580825
   58      N       7.1832351825     2.9929670628    -1.6062780289
   59      C       6.4146871485     0.9711296884     0.1612636400
   60      C       5.8926844012     2.6141914598    -1.4710274331
   61      C       5.4119247918     1.6037794514    -0.5816643064
   62      C       3.9859571690     1.3767744300    -0.4098764747
   63      C       3.1273555954     2.5286423635    -0.3713070379
   64      C       3.4136551984     0.1012640151    -0.1714448583
   65      N       1.8506055708     2.4166500437    -0.0391066540
   66      N       4.0257925942    -1.0653168810    -0.3476658036
   67      C       2.0483211561     0.0217524664     0.0812641970
   68      C       1.3070902625     1.2577394363     0.2396339310
   69      S       2.8461582216    -2.1989262309    -0.0090471553
   70      N       1.5831678820    -1.1759951848     0.3851260007
   71      C      -0.0609039256     1.1777031065     0.8127125357
   72      S      -0.8416129430    -0.2429525444     1.4367221124
   73      C      -0.9258295958     2.2453127841     0.9432849732
   74      C      -2.2509269477     0.6395370847     1.8707775129
   75      S      -0.5787066372     3.9553795783     0.5672155503
   76      C      -2.1625743799     1.9371812760     1.5532442445
   77      C      -3.3821767066     0.0117583940     2.4953476839
   78      C      -2.3091664221     4.2394450416     1.0941251679
   79      C      -2.9367649648     3.1534354348     1.6313003749
   80      N      -4.1416411165     0.8616624404     3.1882653718
   81      S      -3.3338686583    -1.6382497561     3.0668583461
   82      C      -4.9293007657     0.0958037022     4.0872234742
   83      C      -4.7286141714    -1.2417650943     4.0146383136
   84      C       9.5909453780     2.6366055274    -1.1828549893
   85      H       8.3877632219     0.6716843669     0.6247831195
   86      H       6.0598414796     0.1310253356     0.7508552170
   87      H       5.1645334941     3.1505760139    -2.0784431611
   88      H       3.4740625104     3.5206224190    -0.6589159471
   89      H      -2.6610595754     5.2605949550     1.1491984203
   90      H      -3.9421327445     3.0955012274     2.0314669092
   91      H      -5.7184080634     0.5833790183     4.6446819784
   92      H      -5.3067226190    -1.9776851816     4.5596275317
   93      H      10.1792420657     1.8166740026    -1.6131622074
   94      C      10.1342545271     3.3824503847     0.0101444311
   95      H       9.4868245824     3.3100990957    -2.0428603808
   96      H       9.9174427130     2.8684334506     0.9534472609
   97      H       9.7733655221     4.4185312328     0.0263185596
   98      C      11.6553655657     3.3396893786    -0.1279088360
   99      H      11.9153028272     2.2753264670    -0.0682748491
  100      C      12.4260719115     4.1883473273     0.9952551836
  101      H      11.9365032678     3.6941618662    -1.1265808782
  102      H      11.9778101656     3.8453202211     1.9358362867
  103      H      12.2457323800     5.2641299154     0.8800532889
  104      C      14.0020986547     4.0472057371     1.0389559427
  105      H      14.2059495186     2.9740178478     1.1423898813
  106      C      14.6374403982     4.7438898151     2.1956067821
  107      H      14.4381511822     4.3313109920     0.0733119103
  108      H      14.2490090796     4.4387953196     3.1756269143
  109      H      14.6478804624     5.8347441507     2.0768009586
  110      H      15.7149865013     4.5738087986     2.0816732776
 ----------------------------------------------------------------

   10   -5663.4783598225      8.68E-06 Convergence criterion met
 Total energy in the final basis set = -5663.4783598225

                    Orbital Energies (a.u.)
 --------------------------------------------------------------

 Alpha MOs
 -- Occupied --
-88.986 -88.975 -88.936 -88.924 -88.918 -88.916 -88.906 -88.902
-14.383 -14.377 -14.376 -14.370 -14.351 -14.346 -14.343 -14.342
-14.334 -14.328 -10.273 -10.262 -10.257 -10.257 -10.250 -10.246
-10.245 -10.244 -10.238 -10.236 -10.235 -10.234 -10.234 -10.233
-10.232 -10.229 -10.226 -10.226 -10.226 -10.225 -10.225 -10.224
-10.224 -10.222 -10.222 -10.222 -10.218 -10.216 -10.215 -10.210
-10.204 -10.199 -10.196 -10.196 -10.196 -10.194 -10.192 -10.192
-10.189 -10.187 -10.181 -10.179 -10.178 -10.178 -10.177 -10.176
-10.176 -10.173 -10.170 -10.170  -8.041  -8.030  -7.996  -7.985
 -7.976  -7.976  -7.965  -7.961  -6.006  -6.000  -5.999  -5.995
 -5.990  -5.987  -5.960  -5.957  -5.954  -5.949  -5.946  -5.942
 -5.941  -5.940  -5.937  -5.936  -5.933  -5.933  -5.930  -5.926
 -5.925  -5.922  -5.921  -5.917  -1.029  -1.027  -0.978  -0.964
 -0.961  -0.942  -0.936  -0.927  -0.911  -0.909  -0.902  -0.883
 -0.833  -0.832  -0.828  -0.823  -0.815  -0.810  -0.809  -0.807
 -0.805  -0.799  -0.795  -0.790  -0.786  -0.778  -0.766  -0.762
 -0.747  -0.745  -0.733  -0.733  -0.717  -0.716  -0.710  -0.706
 -0.691  -0.688  -0.672  -0.672  -0.655  -0.651  -0.640  -0.637
 -0.632  -0.629  -0.619  -0.617  -0.615  -0.604  -0.598  -0.591
 -0.589  -0.585  -0.583  -0.578  -0.575  -0.575  -0.568  -0.554
 -0.552  -0.546  -0.536  -0.534  -0.519  -0.516  -0.512  -0.506
 -0.502  -0.499  -0.496  -0.491  -0.490  -0.487  -0.476  -0.473
 -0.470  -0.468  -0.467  -0.464  -0.460  -0.459  -0.449  -0.448
 -0.446  -0.443  -0.442  -0.438  -0.433  -0.430  -0.429  -0.426
 -0.424  -0.422  -0.419  -0.418  -0.417  -0.414  -0.412  -0.410
 -0.408  -0.406  -0.404  -0.399  -0.395  -0.394  -0.393  -0.390
 -0.389  -0.389  -0.387  -0.384  -0.383  -0.382  -0.381  -0.380
 -0.379  -0.376  -0.373  -0.370  -0.368  -0.360  -0.357  -0.350
 -0.348  -0.348  -0.348  -0.347  -0.345  -0.343  -0.341  -0.339
 -0.333  -0.331  -0.328  -0.326  -0.325  -0.320  -0.319  -0.317
 -0.311  -0.310  -0.309  -0.303  -0.301  -0.296  -0.296  -0.295
 -0.295  -0.294  -0.289  -0.287  -0.286  -0.285  -0.280  -0.277
 -0.274  -0.266  -0.262  -0.258  -0.252  -0.250  -0.249  -0.247
 -0.239  -0.236  -0.227  -0.225  -0.191  -0.188

          Ground-State Mulliken Net Atomic Charges

     Atom                 Charge (a.u.)
  ----------------------------------------
      1 C                     0.276396
      2 C                    -0.109249
      3 N                    -0.488412
      4 C                    -0.091967
      5 C                     0.058701
      6 C                     0.065351
      7 C                    -0.013621
      8 C                     0.061386
      9 C                     0.252284
     10 N                    -0.513323
     11 N                    -0.578848
     12 C                     0.236816
     13 C                     0.300792
     14 S                     0.626287
     15 N                    -0.571317
     16 C                    -0.243397
     17 S                     0.343768
     18 C                    -0.106212
     19 C                    -0.221627
     20 S                     0.279879
     21 C                     0.188666
     22 C                    -0.024023
     23 C                    -0.322781
     24 C                    -0.051587
     25 N                    -0.384601
     26 S                     0.290120
     27 C                     0.129734
     28 C                    -0.307966
     29 C                    -0.236519
     30 H                     0.088805
     31 H                     0.104292
     32 H                     0.115464
     33 H                     0.111895
     34 H                     0.121004
     35 H                     0.112217
     36 H                     0.118631
     37 H                     0.132019
     38 H                     0.115118
     39 C                    -0.182323
     40 H                     0.116483
     41 H                     0.094251
     42 H                     0.102662
     43 C                    -0.187295
     44 H                     0.088316
     45 C                    -0.169044
     46 H                     0.097567
     47 H                     0.104496
     48 H                     0.089724
     49 C                    -0.176705
     50 H                     0.089857
     51 C                    -0.323082
     52 H                     0.086443
     53 H                     0.097405
     54 H                     0.108768
     55 H                     0.106671
     56 C                     0.233221
     57 C                    -0.098199
     58 N                    -0.475404
     59 C                    -0.077489
     60 C                     0.061573
     61 C                     0.059042
     62 C                    -0.005770
     63 C                     0.069275
     64 C                     0.237089
     65 N                    -0.524903
     66 N                    -0.552231
     67 C                     0.233065
     68 C                     0.312923
     69 S                     0.611541
     70 N                    -0.575781
     71 C                    -0.234625
     72 S                     0.347663
     73 C                    -0.145473
     74 C                    -0.278374
     75 S                     0.261614
     76 C                     0.209191
     77 C                     0.069110
     78 C                    -0.310527
     79 C                    -0.039782
     80 N                    -0.426860
     81 S                     0.270737
     82 C                     0.114873
     83 C                    -0.292399
     84 C                    -0.238843
     85 H                     0.090601
     86 H                     0.105601
     87 H                     0.094226
     88 H                     0.119673
     89 H                     0.119252
     90 H                     0.132590
     91 H                     0.115361
     92 H                     0.129494
     93 H                     0.109278
     94 C                    -0.168457
     95 H                     0.124189
     96 H                     0.097964
     97 H                     0.111730
     98 C                    -0.186116
     99 H                     0.090825
    100 C                    -0.177234
    101 H                     0.092162
    102 H                     0.085597
    103 H                     0.090581
    104 C                    -0.176722
    105 H                     0.090395
    106 C                    -0.311595
    107 H                     0.092530
    108 H                     0.106227
    109 H                     0.100344
    110 H                     0.098882
  ----------------------------------------
  Sum of atomic charges =     0.000000

                    Cartesian Multipole Moments
 -----------------------------------------------------------------
    Charge (ESU x 10^10)
                 0.0000
    Dipole Moment (Debye)
         X      -2.9311      Y      -0.7314      Z       2.8044
       Tot       4.1220
    Quadrupole Moments (Debye-Ang)
        XX    -412.2984     XY     -22.0670     YY    -411.9247
        XZ      -0.6592     YZ     -21.0644     ZZ    -438.5714

 Total job time:  119.26s(wall), 1284.20s(cpu)
        *  Thank you very much for using Q-Chem.  Have a nice day.  *
