 Q-Chem 4.4, Q-Chem, Inc., Pleasanton, CA (2016)
 Q-Chem 4.4.2 for Intel X86 Linux

User input:
--------------------------------------------------------------
$comment
SP
$end

$rem
MEM_STATIC 5000
MEM_TOTAL 20000
JOBTYPE SP
EXCHANGE B3LYP
BASIS 6-31g(d,p)
$end

$molecule
0 1
C           2.875000    -31.196000      0.969000
C           2.037000    -30.609000      1.979000
N           4.020000    -30.645000      0.580000
C           2.375000    -29.378000      2.513000
C           4.323000    -29.439000      1.054000
C           3.558000    -28.740000      2.006000
C           3.881000    -27.328000      2.493000
C           2.882000    -26.329000      2.681000
C           5.196000    -26.868000      2.760000
N           3.098000    -25.102000      3.131000
N           6.280000    -27.603000      2.607000
C           5.432000    -25.572000      3.209000
C           4.380000    -24.697000      3.445000
S           7.518000    -26.626000      3.033000
N           6.686000    -25.378000      3.560000
C           4.608000    -23.309000      3.999000
S           6.197000    -22.524000      4.381000
C           3.543000    -22.401000      4.252000
C           5.378000    -21.172000      5.112000
S           1.809000    -22.474000      4.066000
C           4.029000    -21.235000      4.864000
C           6.103000    -20.124000      5.766000
C           1.762000    -20.856000      4.870000
C           2.993000    -20.349000      5.249000
N           7.361000    -19.999000      5.608000
S           5.372000    -18.896000      6.692000
C           7.862000    -18.881000      6.204000
C           6.912000    -18.093000      6.746000
C           2.453000    -32.440000      0.268000
H           1.083000    -31.034000      2.276000
H           1.798000    -28.921000      3.312000
H           5.235000    -29.020000      0.632000
H           1.856000    -26.603000      2.442000
H           0.810000    -20.355000      4.985000
H           3.020000    -19.377000      5.728000
H           8.910000    -18.714000      5.993000
H           7.027000    -17.041000      6.968000
H           1.359000    -32.485000      0.196000
C           3.139000    -33.723000      0.723000
H           2.741000    -32.281000     -0.779000
H           2.833000    -33.775000      1.776000
H           4.235000    -33.760000      0.716000
C           2.594000    -34.955000      0.018000
H           1.501000    -34.930000      0.113000
C           3.076000    -36.239000      0.661000
H           2.711000    -34.894000     -1.071000
H           2.831000    -36.275000      1.730000
H           4.165000    -36.141000      0.750000
C           2.677000    -37.503000     -0.118000
H           1.631000    -37.450000     -0.443000
C           2.917000    -38.794000      0.674000
H           3.313000    -37.502000     -1.012000
H           3.895000    -38.857000      1.167000
H           2.821000    -39.697000      0.058000
H           2.239000    -38.919000      1.527000
C          -4.957000    -15.347000      7.093000
C          -4.911000    -16.397000      6.182000
N          -4.174000    -15.350000      8.224000
C          -4.030000    -17.452000      6.390000
C          -3.432000    -16.455000      8.460000
C          -3.290000    -17.566000      7.572000
C          -2.351000    -18.638000      7.861000
C          -1.077000    -18.276000      8.419000
C          -2.578000    -19.997000      7.525000
N          -0.107000    -19.169000      8.540000
N          -3.748000    -20.521000      7.174000
C          -1.562000    -20.918000      7.757000
C          -0.270000    -20.420000      8.187000
S          -3.427000    -22.151000      6.997000
N          -1.791000    -22.151000      7.344000
C           0.886000    -21.351000      8.131000
S           0.888000    -22.963000      7.484000
C           2.156000    -21.061000      8.587000
C           2.563000    -23.165000      7.811000
S           2.729000    -19.500000      9.236000
C           3.106000    -22.089000      8.394000
C           3.263000    -24.377000      7.487000
C           4.326000    -20.372000      9.441000
C           4.375000    -21.625000      8.903000
N           4.578000    -24.205000      7.344000
S           2.533000    -25.649000      6.538000
C           5.078000    -25.317000      6.617000
C           4.142000    -26.234000      6.274000
C          -5.874000    -14.135000      6.906000
H          -5.377000    -16.465000      5.203000
H          -4.008000    -18.344000      5.771000
H          -2.880000    -16.476000      9.399000
H          -0.876000    -17.278000      8.807000
H           5.179000    -19.796000      9.773000
H           5.216000    -22.308000      8.881000
H           6.148000    -25.443000      6.515000
H           4.360000    -27.183000      5.800000
H          -6.939000    -14.397000      6.880000
C          -5.311000    -13.243000      5.828000
H          -5.788000    -13.653000      7.888000
H          -5.046000    -13.803000      4.924000
H          -4.460000    -12.660000      6.202000
C          -6.456000    -12.323000      5.407000
H          -7.220000    -12.993000      4.993000
C          -6.023000    -11.207000      4.338000
H          -6.881000    -11.846000      6.298000
H          -5.500000    -11.778000      3.561000
H          -5.332000    -10.477000      4.777000
C          -7.184000    -10.334000      3.709000
H          -7.895000    -11.047000      3.273000
C          -6.729000     -9.422000      2.619000
H          -7.743000     -9.816000      4.498000
H          -6.209000     -9.927000      1.795000
H          -6.164000     -8.561000      2.998000
H          -7.627000     -8.879000      2.300000
$end

--------------------------------------------------------------

             Standard Nuclear Orientation (Angstroms)
    I     Atom           X                Y                Z
 ----------------------------------------------------------------
    1      C      -8.9411710160    -2.9855566070     1.1125274744
    2      C      -7.8313203757    -3.2132156166     0.2274761022
    3      N      -9.0224628546    -1.9169760646     1.8983227794
    4      C      -6.7554976364    -2.3431654876     0.2469493283
    5      C      -7.9692573211    -1.1056185198     1.9564436775
    6      C      -6.8053899547    -1.2512534757     1.1790549633
    7      C      -5.5762668430    -0.3516726315     1.3025567079
    8      C      -4.2440619852    -0.8577168175     1.2802969070
    9      C      -5.6432125209     1.0524143791     1.4927459371
   10      N      -3.1428550830    -0.1247857614     1.3498700744
   11      N      -6.7696554913     1.7302843110     1.5942771628
   12      C      -4.4898537970     1.8249800275     1.5918366686
   13      C      -3.2328695555     1.2475834704     1.4708869592
   14      S      -6.3115803663     3.2838293784     1.8071477885
   15      N      -4.7444280261     3.1166847836     1.5984536894
   16      C      -1.9692712790     2.0767902154     1.5052318243
   17      S      -1.8341786788     3.8664161982     1.7622509501
   18      C      -0.6737611365     1.5039747873     1.3778192816
   19      C      -0.1301280111     3.8106762232     1.4071025625
   20      S      -0.0756192511    -0.1219417268     1.1649747981
   21      C       0.3039795652     2.5101340687     1.3335178062
   22      C       0.6568283881     5.0051081379     1.3317565146
   23      C       1.5646711037     0.6180485708     0.9964194325
   24      C       1.6012659616     1.9990130582     1.0838774281
   25      N       0.2130195907     6.1124687312     1.7789022040
   26      S       2.2647199650     5.0512564945     0.7728504347
   27      C       1.1384981337     7.1113300466     1.7352382706
   28      C       2.3537849289     6.6963026822     1.3253135308
   29      C     -10.0357537008    -3.9888521605     1.2234679029
   30      H      -7.7404301156    -4.1014155525    -0.3904153402
   31      H      -5.9190950967    -2.4492200218    -0.4381508304
   32      H      -8.0794452553    -0.2973925684     2.6775667119
   33      H      -4.1249474597    -1.9359261869     1.1900235140
   34      H       2.4222574975    -0.0300229460     0.8736233153
   35      H       2.5630861769     2.4913704589     0.9976216255
   36      H       0.8041566614     8.0281980461     2.2024457742
   37      H       3.2857369866     7.2089455213     1.5199302868
   38      H      -9.6461344617    -4.9995562077     1.0481990309
   39      C     -11.3288997955    -3.6430523603     0.4941492649
   40      H     -10.2751540783    -4.0225500590     2.2939752176
   41      H     -10.9867108582    -3.5890180107    -0.5475493577
   42      H     -11.8110390465    -2.6826454572     0.7127683929
   43      C     -12.3636786547    -4.7531667911     0.5877049329
   44      H     -11.8713391149    -5.6861108547     0.2851885669
   45      C     -13.5274156383    -4.5278769966    -0.3553696886
   46      H     -12.6297106185    -4.9840911141     1.6265658241
   47      H     -13.1921167221    -4.4092489771    -1.3934371381
   48      H     -13.8642204450    -3.4990503128    -0.1778191976
   49      C     -14.6684213567    -5.5425444408    -0.1756645740
   50      H     -14.2755228048    -6.5614441890    -0.0755444909
   51      C     -15.7022196378    -5.4861810810    -1.3068715779
   52      H     -15.1505668219    -5.2677606512     0.7707827934
   53      H     -16.0341814025    -4.4762626712    -1.5777372130
   54      H     -16.6094556318    -6.0623240299    -1.0853695381
   55      H     -15.3220008845    -5.8515133707    -2.2685804828
   56      C       9.7016767526    -2.8622496302    -0.4570022205
   57      C       8.5337381230    -3.4554176098     0.0105532364
   58      N       9.6612987733    -1.7987182003    -1.3285121266
   59      C       7.2994198140    -2.9433649378    -0.3724746650
   60      C       8.4468793345    -1.4172191380    -1.7834065012
   61      C       7.1918957871    -1.9371389080    -1.3387395151
   62      C       5.9391641326    -1.3526027585    -1.7897460469
   63      C       5.8755615997     0.0782768480    -1.9081617110
   64      C       4.7550198122    -2.1006214484    -2.0124033347
   65      N       4.7253788765     0.6932083927    -2.1360408427
   66      N       4.6855590121    -3.4236910666    -2.1188879948
   67      C       3.5891577325    -1.4176445869    -2.3419928034
   68      C       3.6056496579     0.0312744512    -2.2916973042
   69      S       3.0792291150    -3.7197490166    -2.4700630961
   70      N       2.4972298884    -2.1520169390    -2.4501123292
   71      C       2.3019211486     0.7417574361    -2.3333974525
   72      S       0.7244692294     0.0147984569    -2.3151468299
   73      C       2.1512898106     2.1127299618    -2.3851713221
   74      C      -0.0557948416     1.5457772367    -2.3406410468
   75      S       3.4494787235     3.3352467062    -2.3051128677
   76      C       0.8124033181     2.5642544473    -2.3787215816
   77      C      -1.4867372522     1.6732104429    -2.3314434657
   78      C       2.0824541398     4.5418135302    -2.4732148812
   79      C       0.8281613741     4.0075158967    -2.4172711898
   80      N      -1.9088361001     2.8512453597    -1.8695730321
   81      S      -2.5419188497     0.3062921411    -2.0676042102
   82      C      -3.2708251483     2.7017623809    -1.4984751051
   83      C      -3.7789336229     1.4630669893    -1.7036421220
   84      C      11.0937780485    -3.3490183333    -0.0447981305
   85      H       8.4201675239    -4.2103976001     0.7834231694
   86      H       6.3528681161    -3.4120222277    -0.1200677953
   87      H       8.4371885158    -0.6273941362    -2.5337054780
   88      H       6.7663875633     0.7040848068    -1.8664184323
   89      H       2.3223746592     5.5935287089    -2.3961283885
   90      H      -0.1206303100     4.5286715884    -2.4667189937
   91      H      -3.8441796586     3.5795150111    -1.2301564034
   92      H      -4.8194403067     1.1975866994    -1.5634028381
   93      H      11.2925215701    -4.3886997491    -0.3330836943
   94      C      11.3777539767    -2.9126969359     1.3707223781
   95      H      11.7268441660    -2.7979069912    -0.7515849296
   96      H      10.5522316963    -3.1513669555     2.0508625007
   97      H      11.6351185614    -1.8468356900     1.4115791404
   98      C      12.5482910788    -3.7722400962     1.8457954757
   99      H      12.1690121941    -4.8017243373     1.8284252406
  100      C      13.0842900780    -3.3765946872     3.3058899190
  101      H      13.3630919630    -3.7067522077     1.1151479167
  102      H      12.1753660698    -3.3480331644     3.9193557996
  103      H      13.5523151850    -2.3845998470     3.3067479503
  104      C      14.1681968059    -4.3331932251     3.9506817013
  105      H      13.7240181714    -5.3365319241     3.9490096543
  106      C      14.5108731193    -3.9903861051     5.3620375114
  107      H      15.0482993216    -4.4068930205     3.3000559241
  108      H      13.6493871542    -3.9585831802     6.0411777811
  109      H      15.1304226378    -3.0878653674     5.4382064826
  110      H      15.2749545393    -4.7182476070     5.6610545970
 ----------------------------------------------------------------

   10   -5663.5187560238      5.63E-06 Convergence criterion met
 Total energy in the final basis set = -5663.5187560238

                    Orbital Energies (a.u.)
 --------------------------------------------------------------

 Alpha MOs
 -- Occupied --
-88.988 -88.987 -88.926 -88.921 -88.919 -88.918 -88.914 -88.909
-14.396 -14.390 -14.381 -14.375 -14.349 -14.349 -14.345 -14.333
-14.329 -14.327 -10.265 -10.264 -10.263 -10.257 -10.256 -10.256
-10.249 -10.246 -10.246 -10.244 -10.239 -10.234 -10.233 -10.232
-10.232 -10.231 -10.231 -10.227 -10.227 -10.227 -10.227 -10.226
-10.225 -10.223 -10.223 -10.222 -10.221 -10.221 -10.219 -10.214
-10.210 -10.207 -10.204 -10.201 -10.201 -10.201 -10.197 -10.195
-10.183 -10.182 -10.182 -10.181 -10.180 -10.180 -10.180 -10.178
-10.175 -10.175 -10.172 -10.172  -8.044  -8.043  -7.987  -7.981
 -7.979  -7.979  -7.973  -7.967  -6.009  -6.009  -6.003  -6.003
 -6.001  -6.001  -5.951  -5.948  -5.945  -5.944  -5.944  -5.943
 -5.941  -5.940  -5.939  -5.938  -5.937  -5.936  -5.935  -5.934
 -5.931  -5.929  -5.928  -5.923  -1.056  -1.042  -0.984  -0.971
 -0.964  -0.953  -0.945  -0.932  -0.919  -0.916  -0.911  -0.906
 -0.840  -0.838  -0.836  -0.827  -0.813  -0.811  -0.810  -0.809
 -0.806  -0.805  -0.795  -0.795  -0.786  -0.782  -0.771  -0.769
 -0.751  -0.751  -0.743  -0.738  -0.722  -0.720  -0.713  -0.711
 -0.695  -0.692  -0.680  -0.677  -0.657  -0.655  -0.648  -0.644
 -0.634  -0.634  -0.624  -0.623  -0.610  -0.609  -0.604  -0.594
 -0.593  -0.585  -0.583  -0.582  -0.580  -0.580  -0.576  -0.571
 -0.552  -0.543  -0.542  -0.541  -0.523  -0.523  -0.520  -0.510
 -0.507  -0.505  -0.501  -0.497  -0.492  -0.488  -0.481  -0.479
 -0.477  -0.475  -0.470  -0.468  -0.468  -0.466  -0.453  -0.446
 -0.446  -0.444  -0.439  -0.438  -0.434  -0.433  -0.431  -0.430
 -0.429  -0.428  -0.427  -0.425  -0.420  -0.417  -0.415  -0.413
 -0.411  -0.405  -0.404  -0.402  -0.400  -0.398  -0.397  -0.396
 -0.396  -0.394  -0.391  -0.388  -0.387  -0.385  -0.385  -0.381
 -0.379  -0.377  -0.375  -0.373  -0.369  -0.364  -0.357  -0.357
 -0.355  -0.354  -0.353  -0.351  -0.349  -0.348  -0.344  -0.340
 -0.339  -0.337  -0.334  -0.334  -0.328  -0.325  -0.323  -0.320
 -0.319  -0.313  -0.312  -0.311  -0.307  -0.306  -0.303  -0.300
 -0.298  -0.298  -0.290  -0.288  -0.287  -0.284  -0.281  -0.274
 -0.273  -0.272  -0.269  -0.265  -0.260  -0.254  -0.253  -0.251
 -0.244  -0.238  -0.230  -0.229  -0.196  -0.192

          Ground-State Mulliken Net Atomic Charges

     Atom                 Charge (a.u.)
  ----------------------------------------
      1 C                     0.262780
      2 C                    -0.120010
      3 N                    -0.467915
      4 C                    -0.077715
      5 C                     0.088342
      6 C                     0.029661
      7 C                     0.016769
      8 C                     0.060998
      9 C                     0.220046
     10 N                    -0.529543
     11 N                    -0.558299
     12 C                     0.218925
     13 C                     0.298876
     14 S                     0.590719
     15 N                    -0.545800
     16 C                    -0.234425
     17 S                     0.350828
     18 C                    -0.097817
     19 C                    -0.194948
     20 S                     0.287077
     21 C                     0.120731
     22 C                     0.076569
     23 C                    -0.314337
     24 C                    -0.069015
     25 N                    -0.428267
     26 S                     0.278908
     27 C                     0.118811
     28 C                    -0.326069
     29 C                    -0.231289
     30 H                     0.089859
     31 H                     0.100990
     32 H                     0.112879
     33 H                     0.107165
     34 H                     0.121560
     35 H                     0.135742
     36 H                     0.112524
     37 H                     0.133425
     38 H                     0.096407
     39 C                    -0.169971
     40 H                     0.116687
     41 H                     0.091207
     42 H                     0.112450
     43 C                    -0.174455
     44 H                     0.086630
     45 C                    -0.173459
     46 H                     0.092690
     47 H                     0.089371
     48 H                     0.088883
     49 C                    -0.169947
     50 H                     0.095165
     51 C                    -0.325588
     52 H                     0.099657
     53 H                     0.101776
     54 H                     0.098511
     55 H                     0.101781
     56 C                     0.233834
     57 C                    -0.097800
     58 N                    -0.474206
     59 C                    -0.079407
     60 C                     0.061616
     61 C                     0.057951
     62 C                    -0.006555
     63 C                     0.072610
     64 C                     0.242235
     65 N                    -0.524533
     66 N                    -0.547135
     67 C                     0.209688
     68 C                     0.323486
     69 S                     0.580694
     70 N                    -0.565509
     71 C                    -0.216504
     72 S                     0.342155
     73 C                    -0.143200
     74 C                    -0.260451
     75 S                     0.256305
     76 C                     0.207575
     77 C                     0.052155
     78 C                    -0.307784
     79 C                    -0.046423
     80 N                    -0.426428
     81 S                     0.287574
     82 C                     0.114288
     83 C                    -0.306546
     84 C                    -0.238986
     85 H                     0.091950
     86 H                     0.103631
     87 H                     0.096295
     88 H                     0.122356
     89 H                     0.125347
     90 H                     0.126468
     91 H                     0.126652
     92 H                     0.136451
     93 H                     0.109981
     94 C                    -0.169069
     95 H                     0.125006
     96 H                     0.097867
     97 H                     0.112029
     98 C                    -0.185914
     99 H                     0.090930
    100 C                    -0.177534
    101 H                     0.092611
    102 H                     0.085502
    103 H                     0.090807
    104 C                    -0.176286
    105 H                     0.090450
    106 C                    -0.311654
    107 H                     0.092727
    108 H                     0.106301
    109 H                     0.100515
    110 H                     0.099354
  ----------------------------------------
  Sum of atomic charges =     0.000000

                    Cartesian Multipole Moments
 -----------------------------------------------------------------
    Charge (ESU x 10^10)
                 0.0000
    Dipole Moment (Debye)
         X       0.2561      Y      -1.5356      Z       0.2395
       Tot       1.5751
    Quadrupole Moments (Debye-Ang)
        XX    -444.7413     XY       6.2278     YY    -414.3207
        XZ      23.6266     YZ       3.8645     ZZ    -456.7840

 Total job time:  112.98s(wall), 1216.11s(cpu)
        *  Thank you very much for using Q-Chem.  Have a nice day.  *
