 Q-Chem 4.4, Q-Chem, Inc., Pleasanton, CA (2016)
 Q-Chem 4.4.2 for Intel X86 Linux

User input:
--------------------------------------------------------------
$comment
SP
$end

$rem
MEM_STATIC 5000
MEM_TOTAL 20000
JOBTYPE SP
EXCHANGE B3LYP
BASIS 6-31g(d,p)
$end

$molecule
0 1
C          -0.080000    -17.383000     12.694000
C           0.366000    -16.490000     13.663000
N           0.554000    -17.633000     11.598000
C           1.524000    -15.761000     13.426000
C           1.687000    -16.934000     11.368000
C           2.231000    -16.017000     12.272000
C           3.478000    -15.174000     11.918000
C           3.562000    -13.855000     12.354000
C           4.547000    -15.585000     11.028000
N           4.607000    -13.001000     12.069000
N           4.665000    -16.808000     10.491000
C           5.525000    -14.726000     10.638000
C           5.536000    -13.379000     11.192000
S           6.035000    -16.835000      9.669000
N           6.517000    -15.262000      9.811000
C           6.572000    -12.461000     10.836000
S           7.525000    -12.378000      9.430000
C           7.036000    -11.537000     11.806000
C           8.463000    -10.917000     10.094000
S           6.431000    -11.143000     13.443000
C           8.105000    -10.748000     11.382000
C           9.322000    -10.119000      9.337000
C           7.823000    -10.022000     13.544000
C           8.612000     -9.911000     12.395000
N           9.273000    -10.352000      8.067000
S          10.253000     -8.709000      9.880000
C          10.096000     -9.438000      7.404000
C          10.672000     -8.487000      8.217000
C          -1.348000    -18.165000     12.941000
H          -0.224000    -16.347000     14.564000
H           1.896000    -15.257000     14.313000
H           2.189000    -17.099000     10.415000
H           2.839000    -13.497000     13.086000
H           7.827000     -9.385000     14.418000
H           9.407000     -9.181000     12.298000
H          10.144000     -9.625000      6.340000
H          11.274000     -7.636000      7.927000
H          -1.007000    -19.165000     13.235000
C          -2.297000    -18.324000     11.741000
H          -1.871000    -17.760000     13.816000
H          -1.733000    -18.632000     10.852000
H          -2.696000    -17.337000     11.475000
C          -3.425000    -19.305000     12.071000
H          -3.045000    -20.316000     12.266000
C          -4.574000    -19.385000     11.006000
H          -3.724000    -19.085000     13.103000
H          -5.011000    -20.387000     11.101000
H          -4.253000    -19.267000      9.963000
C          -5.568000    -18.230000     11.065000
H          -4.998000    -17.329000     10.806000
C          -6.362000    -18.087000     12.458000
H          -6.266000    -18.423000     10.240000
H          -6.795000    -17.084000     12.556000
H          -5.678000    -18.068000     13.316000
H          -7.129000    -18.845000     12.658000
C          -4.957000    -15.347000      7.093000
C          -4.911000    -16.397000      6.182000
N          -4.174000    -15.350000      8.224000
C          -4.030000    -17.452000      6.390000
C          -3.432000    -16.455000      8.460000
C          -3.290000    -17.566000      7.572000
C          -2.351000    -18.638000      7.861000
C          -1.077000    -18.276000      8.419000
C          -2.578000    -19.997000      7.525000
N          -0.107000    -19.169000      8.540000
N          -3.748000    -20.521000      7.174000
C          -1.562000    -20.918000      7.757000
C          -0.270000    -20.420000      8.187000
S          -3.427000    -22.151000      6.997000
N          -1.791000    -22.151000      7.344000
C           0.886000    -21.351000      8.131000
S           0.888000    -22.963000      7.484000
C           2.156000    -21.061000      8.587000
C           2.563000    -23.165000      7.811000
S           2.729000    -19.500000      9.236000
C           3.106000    -22.089000      8.394000
C           3.263000    -24.377000      7.487000
C           4.326000    -20.372000      9.441000
C           4.375000    -21.625000      8.903000
N           4.578000    -24.205000      7.344000
S           2.533000    -25.649000      6.538000
C           5.078000    -25.317000      6.617000
C           4.142000    -26.234000      6.274000
C          -5.874000    -14.135000      6.906000
H          -5.377000    -16.465000      5.203000
H          -4.008000    -18.344000      5.771000
H          -2.880000    -16.476000      9.399000
H          -0.876000    -17.278000      8.807000
H           5.179000    -19.796000      9.773000
H           5.216000    -22.308000      8.881000
H           6.148000    -25.443000      6.515000
H           4.360000    -27.183000      5.800000
H          -6.939000    -14.397000      6.880000
C          -5.311000    -13.243000      5.828000
H          -5.788000    -13.653000      7.888000
H          -5.046000    -13.803000      4.924000
H          -4.460000    -12.660000      6.202000
C          -6.456000    -12.323000      5.407000
H          -7.220000    -12.993000      4.993000
C          -6.023000    -11.207000      4.338000
H          -6.881000    -11.846000      6.298000
H          -5.500000    -11.778000      3.561000
H          -5.332000    -10.477000      4.777000
C          -7.184000    -10.334000      3.709000
H          -7.895000    -11.047000      3.273000
C          -6.729000     -9.422000      2.619000
H          -7.743000     -9.816000      4.498000
H          -6.209000     -9.927000      1.795000
H          -6.164000     -8.561000      2.998000
H          -7.627000     -8.879000      2.300000
$end

--------------------------------------------------------------

             Standard Nuclear Orientation (Angstroms)
    I     Atom           X                Y                Z
 ----------------------------------------------------------------
    1      C      -0.9679570328     0.0923138764     3.8540622815
    2      C       0.1171252013     0.4348177824     4.6544457020
    3      N      -0.8605041729    -0.3752903312     2.6559503552
    4      C       1.3988892064     0.3423053035     4.1280461613
    5      C       0.3853232167    -0.4773122442     2.1434119230
    6      C       1.5466837702    -0.1679832336     2.8572734138
    7      C       2.9416578835    -0.2115832087     2.1916006224
    8      C       3.8970026149     0.7402728783     2.5354020680
    9      C       3.3278763923    -1.0889026418     1.1030566978
   10      N       5.1579738774     0.8196270842     1.9820302354
   11      N       2.5648359665    -2.0755687183     0.6108358509
   12      C       4.5187027174    -0.9547136393     0.4624390467
   13      C       5.4594989649     0.0511919526     0.9362558476
   14      S       3.4291453652    -2.8357612317    -0.4974915402
   15      N       4.7830449566    -1.8913939138    -0.5415740229
   16      C       6.7376830611     0.1939331234     0.3128567986
   17      S       7.2277035994    -0.1694437052    -1.2745219062
   18      C       7.8555968686     0.5501289165     1.1086992930
   19      C       8.9717450158     0.3594083692    -0.9086038538
   20      S       7.9699689417     1.0596690924     2.8199321346
   21      C       9.0667114203     0.5776158629     0.4176826430
   22      C       9.9581455807     0.5538675495    -1.8765571342
   23      C       9.7392600846     1.1034354403     2.5512327516
   24      C      10.1737346964     0.8346129615     1.2496916318
   25      N       9.5157959568     0.5273147981    -3.0903164850
   26      S      11.6407741583     1.0587378673    -1.6244122709
   27      C      10.5644661374     0.8258751215    -3.9640707900
   28      C      11.7521433230     1.1522123551    -3.3475702525
   29      C      -2.3642111086     0.2077764054     4.4175336295
   30      H      -0.0619407010     0.8109121252     5.6578591003
   31      H       2.1741111102     0.4289023109     4.8834936831
   32      H       0.4727358948    -0.8127706368     1.1103268875
   33      H       3.7113279611     1.3839265680     3.3944433072
   34      H      10.3101506545     1.5177320209     3.3710518174
   35      H      11.2066207411     0.9465378608     0.9415468029
   36      H      10.2671740459     0.7566959309    -5.0014717019
   37      H      12.6703608577     1.4955599502    -3.8054938137
   38      H      -2.6484991706    -0.8201378518     4.6730518826
   39      C      -3.4376698772     0.7729661293     3.4719497632
   40      H      -2.3382573117     0.7541763085     5.3682978202
   41      H      -3.3762009276     0.2803430461     2.4937754095
   42      H      -3.1999663308     1.8225325140     3.2573957418
   43      C      -4.8300672514     0.6380921657     4.0937886220
   44      H      -5.1116367124    -0.4119068819     4.2446747995
   45      C      -5.9810401127     1.3722893409     3.3211037054
   46      H      -4.7119657229     0.8873398102     5.1552746750
   47      H      -6.9047352821     0.8299032537     3.5590166438
   48      H      -5.8794147387     1.3791315086     2.2281995613
   49      C      -6.0305067290     2.8792513667     3.5494904534
   50      H      -5.1000689153     3.2783282771     3.1266369392
   51      C      -6.2640719031     3.3278373102     5.0777417288
   52      H      -6.8542568660     3.2287641158     2.9136016660
   53      H      -5.9672654484     4.3735568851     5.2242971761
   54      H      -5.5498189998     2.8453216959     5.7570078564
   55      H      -7.2711093047     3.1664377390     5.4810763917
   56      C      -4.6356920123     5.2031602028    -0.5876261304
   57      C      -5.4265367011     4.4349285063    -1.4355186582
   58      N      -3.8022222292     4.6160645494     0.3359028699
   59      C      -5.3477161905     3.0480245694    -1.3832233723
   60      C      -3.8545891653     3.2700682268     0.4492016059
   61      C      -4.6040277353     2.3934889245    -0.3951795619
   62      C      -4.4742269586     0.9500665149    -0.2763961214
   63      C      -3.1613363757     0.4160570164    -0.0384125659
   64      C      -5.5428292770     0.0421447320    -0.4887004343
   65      N      -2.9339542897    -0.8868952214    -0.0984363369
   66      N      -6.8313168551     0.3641935042    -0.5412489773
   67      C      -5.2741289737    -1.3218968793    -0.4498207506
   68      C      -3.8914331934    -1.7458114733    -0.3467829116
   69      S      -7.6109567935    -1.1037661956    -0.7101450582
   70      N      -6.2837647477    -2.1208315788    -0.7424603750
   71      C      -3.5811054263    -3.1725757037    -0.6193145753
   72      S      -4.6920372285    -4.3871003587    -1.1742176238
   73      C      -2.3361306838    -3.7509577984    -0.4763179205
   74      C      -3.4616606456    -5.5858127394    -1.2254044647
   75      S      -0.8145608486    -2.9221865155    -0.0471158736
   76      C      -2.2711351616    -5.1171474482    -0.8310494003
   77      C      -3.7273119062    -6.9346579483    -1.6424967927
   78      C      -0.0759436286    -4.5932966612    -0.1681674454
   79      C      -0.9103390086    -5.5622535882    -0.6443615482
   80      N      -2.6436327157    -7.5728709916    -2.0869982252
   81      S      -5.2561593650    -7.4094563568    -2.3415510962
   82      C      -3.0856138479    -8.6814389512    -2.8556351731
   83      C      -4.4314106500    -8.8124519106    -2.9350113165
   84      C      -4.6424978794     6.7341052052    -0.6186596539
   85      H      -6.0283551282     4.7600156120    -2.2795292947
   86      H      -6.0005372891     2.3899185952    -1.9489354369
   87      H      -3.2490938536     2.8268138073     1.2389907848
   88      H      -2.3209866082     1.0478793108     0.2471777992
   89      H       0.9969407857    -4.6819116328    -0.0648455191
   90      H      -0.6841396775    -6.6066532309    -0.8241315370
   91      H      -2.3622642158    -9.4132166890    -3.1909658341
   92      H      -4.9383739708    -9.6481299477    -3.4013067268
   93      H      -5.6240260240     7.1680267508    -0.3909326382
   94      C      -3.8927218571     7.2133722948    -1.8363853920
   95      H      -4.0803645898     6.9652469702     0.2949177371
   96      H      -4.2167099037     6.7017740820    -2.7498075366
   97      H      -2.8084145686     7.1272485012    -1.6920718571
   98      C      -4.3001969134     8.6732235757    -2.0299424015
   99      H      -5.3788462809     8.6421667498    -2.2287966585
  100      C      -3.5123555425     9.4073230498    -3.2199465766
  101      H      -4.1520378991     9.2163111897    -1.0891237421
  102      H      -3.6187313363     8.7192679521    -4.0676277508
  103      H      -2.4481188512     9.5272585416    -2.9830547394
  104      C      -4.0037616680    10.8605982571    -3.6100775694
  105      H      -5.0724043822    10.7658494174    -3.8403196307
  106      C      -3.3272003206    11.4217679300    -4.8159889846
  107      H      -3.9546839695    11.5269893522    -2.7401118874
  108      H      -3.4055692701    10.7926497031    -5.7117956402
  109      H      -2.2925777625    11.7273505996    -4.6150850411
  110      H      -3.7528080395    12.4239091233    -4.9485978015
 ----------------------------------------------------------------

   10   -5663.5078441498      4.27E-06 Convergence criterion met
 Total energy in the final basis set = -5663.5078441498

                    Orbital Energies (a.u.)
 --------------------------------------------------------------

 Alpha MOs
 -- Occupied --
-88.990 -88.982 -88.928 -88.926 -88.921 -88.916 -88.913 -88.901
-14.391 -14.390 -14.384 -14.382 -14.350 -14.345 -14.342 -14.337
-14.330 -14.323 -10.265 -10.261 -10.261 -10.258 -10.255 -10.254
-10.251 -10.249 -10.238 -10.238 -10.233 -10.233 -10.231 -10.230
-10.230 -10.229 -10.229 -10.228 -10.228 -10.228 -10.228 -10.227
-10.222 -10.221 -10.221 -10.219 -10.218 -10.217 -10.215 -10.206
-10.206 -10.205 -10.203 -10.200 -10.197 -10.193 -10.193 -10.191
-10.180 -10.179 -10.178 -10.178 -10.177 -10.176 -10.174 -10.171
-10.171 -10.170 -10.170 -10.167  -8.045  -8.037  -7.990  -7.988
 -7.979  -7.977  -7.972  -7.959  -6.010  -6.005  -6.003  -6.003
 -5.997  -5.995  -5.954  -5.952  -5.950  -5.949  -5.946  -5.945
 -5.944  -5.941  -5.940  -5.937  -5.936  -5.936  -5.933  -5.933
 -5.928  -5.923  -5.920  -5.915  -1.041  -1.036  -0.973  -0.965
 -0.963  -0.955  -0.952  -0.929  -0.914  -0.909  -0.906  -0.898
 -0.841  -0.834  -0.833  -0.830  -0.811  -0.809  -0.809  -0.806
 -0.804  -0.801  -0.799  -0.791  -0.779  -0.778  -0.768  -0.765
 -0.748  -0.745  -0.738  -0.734  -0.721  -0.718  -0.707  -0.704
 -0.689  -0.688  -0.675  -0.671  -0.657  -0.653  -0.644  -0.642
 -0.639  -0.631  -0.628  -0.619  -0.612  -0.605  -0.605  -0.594
 -0.590  -0.585  -0.584  -0.579  -0.578  -0.576  -0.569  -0.549
 -0.548  -0.543  -0.540  -0.538  -0.525  -0.520  -0.519  -0.511
 -0.508  -0.500  -0.497  -0.493  -0.488  -0.483  -0.475  -0.474
 -0.472  -0.468  -0.466  -0.462  -0.460  -0.453  -0.448  -0.444
 -0.443  -0.442  -0.437  -0.436  -0.433  -0.431  -0.429  -0.427
 -0.426  -0.424  -0.423  -0.418  -0.417  -0.416  -0.414  -0.412
 -0.409  -0.405  -0.401  -0.397  -0.396  -0.395  -0.394  -0.393
 -0.393  -0.391  -0.389  -0.387  -0.385  -0.385  -0.384  -0.382
 -0.379  -0.375  -0.372  -0.371  -0.362  -0.359  -0.357  -0.353
 -0.352  -0.349  -0.348  -0.347  -0.343  -0.342  -0.341  -0.339
 -0.336  -0.333  -0.332  -0.328  -0.325  -0.324  -0.320  -0.315
 -0.313  -0.311  -0.310  -0.305  -0.304  -0.302  -0.298  -0.297
 -0.295  -0.295  -0.292  -0.289  -0.288  -0.286  -0.285  -0.281
 -0.276  -0.268  -0.266  -0.259  -0.253  -0.251  -0.250  -0.247
 -0.241  -0.239  -0.233  -0.226  -0.192  -0.191

          Ground-State Mulliken Net Atomic Charges

     Atom                 Charge (a.u.)
  ----------------------------------------
      1 C                     0.295389
      2 C                    -0.124484
      3 N                    -0.488624
      4 C                    -0.094787
      5 C                     0.085728
      6 C                     0.052576
      7 C                     0.058061
      8 C                     0.041901
      9 C                     0.227399
     10 N                    -0.531728
     11 N                    -0.554927
     12 C                     0.174176
     13 C                     0.303433
     14 S                     0.617809
     15 N                    -0.552605
     16 C                    -0.198299
     17 S                     0.353264
     18 C                    -0.134829
     19 C                    -0.244884
     20 S                     0.283871
     21 C                     0.178337
     22 C                     0.071191
     23 C                    -0.309620
     24 C                    -0.076881
     25 N                    -0.431927
     26 S                     0.272229
     27 C                     0.118980
     28 C                    -0.319755
     29 C                    -0.232368
     30 H                     0.088553
     31 H                     0.106648
     32 H                     0.122179
     33 H                     0.110102
     34 H                     0.128209
     35 H                     0.117480
     36 H                     0.115317
     37 H                     0.136262
     38 H                     0.119502
     39 C                    -0.185606
     40 H                     0.088903
     41 H                     0.129442
     42 H                     0.094523
     43 C                    -0.178483
     44 H                     0.084662
     45 C                    -0.187432
     46 H                     0.089184
     47 H                     0.083440
     48 H                     0.100723
     49 C                    -0.174468
     50 H                     0.105319
     51 C                    -0.328018
     52 H                     0.094891
     53 H                     0.099076
     54 H                     0.100152
     55 H                     0.102967
     56 C                     0.233005
     57 C                    -0.098678
     58 N                    -0.477943
     59 C                    -0.080200
     60 C                     0.063885
     61 C                     0.057034
     62 C                    -0.005655
     63 C                     0.069192
     64 C                     0.249118
     65 N                    -0.508888
     66 N                    -0.552889
     67 C                     0.218032
     68 C                     0.328870
     69 S                     0.576669
     70 N                    -0.567719
     71 C                    -0.225540
     72 S                     0.334908
     73 C                    -0.158923
     74 C                    -0.265478
     75 S                     0.315505
     76 C                     0.203036
     77 C                     0.053608
     78 C                    -0.323346
     79 C                    -0.042561
     80 N                    -0.426351
     81 S                     0.277710
     82 C                     0.110140
     83 C                    -0.297185
     84 C                    -0.239042
     85 H                     0.091246
     86 H                     0.104487
     87 H                     0.099155
     88 H                     0.127323
     89 H                     0.112622
     90 H                     0.119908
     91 H                     0.116885
     92 H                     0.134103
     93 H                     0.109331
     94 C                    -0.168626
     95 H                     0.124434
     96 H                     0.097942
     97 H                     0.112347
     98 C                    -0.186137
     99 H                     0.090621
    100 C                    -0.176972
    101 H                     0.092241
    102 H                     0.085581
    103 H                     0.090861
    104 C                    -0.176504
    105 H                     0.090196
    106 C                    -0.311517
    107 H                     0.092404
    108 H                     0.106305
    109 H                     0.100507
    110 H                     0.098789
  ----------------------------------------
  Sum of atomic charges =     0.000000

                    Cartesian Multipole Moments
 -----------------------------------------------------------------
    Charge (ESU x 10^10)
                 0.0000
    Dipole Moment (Debye)
         X       0.9808      Y      -1.0018      Z      -0.6899
       Tot       1.5625
    Quadrupole Moments (Debye-Ang)
        XX    -382.9886     XY      16.1665     YY    -419.1678
        XZ      11.6997     YZ       8.4450     ZZ    -423.5416

 Total job time:  97.90s(wall), 1100.00s(cpu)
        *  Thank you very much for using Q-Chem.  Have a nice day.  *
