 Q-Chem 4.4, Q-Chem, Inc., Pleasanton, CA (2016)
 Q-Chem 4.4.2 for Intel X86 Linux

User input:
--------------------------------------------------------------
$comment
SP
$end

$rem
MEM_STATIC 5000
MEM_TOTAL 20000
JOBTYPE SP
EXCHANGE B3LYP
BASIS 6-31g(d,p)
$end

$molecule
0 1
C          -0.255000      8.035000     13.327000
C          -1.006000      6.882000     13.738000
N          -0.223000      8.468000     12.056000
C          -1.520000      6.031000     12.762000
C          -0.789000      7.684000     11.119000
C          -1.365000      6.351000     11.411000
C          -1.890000      5.520000     10.257000
C          -3.109000      4.801000     10.445000
C          -1.415000      5.502000      8.918000
N          -3.639000      3.969000      9.489000
N          -0.367000      6.180000      8.383000
C          -1.973000      4.605000      7.988000
C          -3.058000      3.775000      8.318000
S          -0.208000      5.689000      6.779000
N          -1.399000      4.570000      6.758000
C          -3.615000      2.704000      7.471000
S          -2.768000      1.998000      6.059000
C          -4.839000      2.000000      7.671000
C          -3.916000      0.587000      5.982000
S          -6.106000      2.326000      8.823000
C          -4.960000      0.845000      6.835000
C          -3.721000     -0.618000      5.228000
C          -6.694000      0.673000      8.411000
C          -6.097000      0.071000      7.284000
N          -4.510000     -1.609000      5.411000
S          -2.383000     -0.881000      4.196000
C          -4.060000     -2.683000      4.604000
C          -2.874000     -2.516000      3.990000
C           0.321000      8.951000     14.328000
H          -1.129000      6.606000     14.781000
H          -1.990000      5.084000     13.013000
H          -0.782000      8.042000     10.091000
H          -3.602000      4.781000     11.416000
H          -7.504000      0.283000      9.013000
H          -6.528000     -0.832000      6.867000
H          -4.708000     -3.549000      4.604000
H          -2.323000     -3.241000      3.406000
H           1.410000      9.015000     14.215000
C           0.009000      8.719000     15.844000
H           0.006000      9.977000     14.101000
H           0.172000      7.641000     15.973000
H          -1.053000      8.857000     16.079000
C           0.881000      9.729000     16.723000
H           1.945000      9.508000     16.570000
C           0.601000      9.670000     18.178000
H           0.785000     10.763000     16.370000
H           0.584000      8.598000     18.409000
H          -0.462000      9.880000     18.351000
C           1.572000     10.385000     19.037000
H           1.168000     10.340000     20.056000
C           1.918000     11.841000     18.665000
H           2.499000      9.799000     19.051000
H           2.236000     12.465000     19.509000
H           0.970000     12.138000     18.199000
H           2.662000     11.894000     17.861000
C         -12.141000      7.171000     -2.720000
C         -12.167000      6.546000     -1.418000
N         -11.069000      7.207000     -3.554000
C         -11.053000      5.877000     -1.029000
C          -9.955000      6.623000     -3.102000
C          -9.892000      5.857000     -1.893000
C          -8.705000      5.008000     -1.470000
C          -8.929000      3.777000     -0.838000
C          -7.359000      5.310000     -1.795000
N          -7.983000      2.943000     -0.400000
N          -6.837000      6.453000     -2.355000
C          -6.384000      4.365000     -1.429000
C          -6.728000      3.181000     -0.746000
S          -5.222000      6.194000     -2.518000
N          -5.128000      4.686000     -1.848000
C          -5.683000      2.150000     -0.392000
S          -4.094000      1.811000     -1.210000
C          -5.923000      1.208000      0.555000
C          -3.860000      0.347000     -0.193000
S          -7.180000      1.124000      1.845000
C          -4.959000      0.211000      0.691000
C          -2.517000     -0.117000      0.045000
C          -6.196000     -0.024000      2.746000
C          -5.170000     -0.504000      1.949000
N          -2.361000     -1.111000      0.835000
S          -1.298000      0.054000     -1.160000
C          -1.074000     -1.589000      0.711000
C          -0.290000     -1.017000     -0.248000
C         -13.427000      7.852000     -3.227000
H         -13.036000      6.509000     -0.769000
H         -11.126000      5.388000     -0.062000
H          -9.172000      6.666000     -3.858000
H          -9.982000      3.601000     -0.621000
H          -6.320000     -0.259000      3.794000
H          -4.556000     -1.313000      2.329000
H          -0.765000     -2.332000      1.435000
H           0.751000     -1.149000     -0.510000
H         -13.428000      8.922000     -2.986000
C         -14.766000      7.207000     -2.924000
H         -13.425000      7.760000     -4.320000
H         -15.505000      7.737000     -3.537000
H         -15.084000      7.338000     -1.882000
C         -14.810000      5.751000     -3.369000
H         -14.361000      5.574000     -4.354000
C         -16.327000      5.229000     -3.187000
H         -14.164000      5.172000     -2.697000
H         -17.099000      5.787000     -3.730000
H         -16.558000      5.172000     -2.116000
C         -16.307000      3.855000     -3.852000
H         -16.133000      3.994000     -4.926000
C         -17.679000      3.146000     -3.610000
H         -15.447000      3.197000     -3.677000
H         -18.433000      3.923000     -3.787000
H         -17.802000      2.790000     -2.579000
H         -17.827000      2.310000     -4.305000
$end

--------------------------------------------------------------

             Standard Nuclear Orientation (Angstroms)
    I     Atom           X                Y                Z
 ----------------------------------------------------------------
    1      C     -10.7668519837     2.4945189658     0.7628218113
    2      C     -10.5250892075     2.0750641569    -0.5891912890
    3      N      -9.7941411136     2.5737244877     1.6855969998
    4      C      -9.2997957562     1.4912583444    -0.9035155347
    5      C      -8.5851648159     2.0806520990     1.3566031837
    6      C      -8.3062282221     1.3947102484     0.0737909783
    7      C      -6.9298653353     0.7981600003    -0.1445092859
    8      C      -6.3278567890     0.9470089009    -1.4304702942
    9      C      -6.0585324798     0.2523510959     0.8361750133
   10      N      -5.1139956411     0.3913986176    -1.7543504058
   11      N      -6.2742848621     0.0989781107     2.1681437205
   12      C      -4.8409340643    -0.3344445390     0.4437492479
   13      C      -4.4095043235    -0.3223207638    -0.8936909911
   14      S      -4.9376367466    -0.6996660189     2.8121292558
   15      N      -4.1097788180    -0.9283521026     1.4216484306
   16      C      -3.2329763897    -1.0328473746    -1.4281373929
   17      S      -2.3824092879    -2.3545487462    -0.5683524841
   18      C      -2.6408376942    -0.8667925406    -2.7148345435
   19      C      -1.4821468452    -2.8525912664    -2.0704294403
   20      S      -2.9910095419     0.3363255539    -3.9266742721
   21      C      -1.6885886285    -1.8886611559    -3.0255888679
   22      C      -0.7560450311    -4.0768385616    -2.2508753208
   23      C      -2.0652006797    -0.7377343000    -5.0389558825
   24      C      -1.3384438425    -1.7788970387    -4.4251589688
   25      N      -0.3307505483    -4.3897922499    -3.4167550710
   26      S      -0.5537447422    -5.2459551183    -1.0193404777
   27      C       0.2840383076    -5.6634205707    -3.3323124095
   28      C       0.1461782301    -6.3198617984    -2.1654531577
   29      C     -12.0563137566     3.1003379668     1.1411135960
   30      H     -11.2856085926     2.1282758578    -1.3624524219
   31      H      -9.1060650645     1.0468319858    -1.8759679144
   32      H      -7.7897944096     2.1616154668     2.0954048147
   33      H      -6.8762484190     1.4001859723    -2.2552048953
   34      H      -2.0779466128    -0.4747037440    -6.0883635572
   35      H      -0.6148088643    -2.3413730288    -5.0039786116
   36      H       0.7674054869    -5.9917523504    -4.2424851473
   37      H       0.4641089070    -7.3269198921    -1.9308554580
   38      H     -12.5444583422     2.5145731554     1.9293904822
   39      C     -13.1197114290     3.3885034410     0.0295516096
   40      H     -11.8708750761     4.0560256308     1.6467850156
   41      H     -13.1349231197     2.4576894310    -0.5523829942
   42      H     -12.7809629423     4.1449298563    -0.6882098697
   43      C     -14.4783036970     3.8785703180     0.7130620379
   44      H     -14.8728458406     3.0705985686     1.3422393969
   45      C     -15.5361620334     4.2753574079    -0.2473554469
   46      H     -14.3040116378     4.6922556196     1.4275685166
   47      H     -15.5429858328     3.4710312755    -0.9929068594
   48      H     -15.1570241405     5.0778779704    -0.8925013256
   49      C     -16.8813167271     4.4691211180     0.3399787636
   50      H     -17.5123892107     4.8614426373    -0.4671354451
   51      C     -16.9929992675     5.3677963353     1.5881557798
   52      H     -17.2830282394     3.4787369163     0.5863280966
   53      H     -17.9676655462     5.8543532046     1.7151363215
   54      H     -16.1551826732     6.0495266988     1.3948268738
   55      H     -16.7212893670     4.8321813922     2.5057893465
   56      C       9.0142278566     5.3586723282     0.9504567374
   57      C       8.0442044208     5.1282627254    -0.0947566134
   58      N       9.1415359883     4.6183421299     2.0825962329
   59      C       7.2449436373     4.0394724848     0.0301273809
   60      C       8.2756404062     3.6100721895     2.2239205701
   61      C       7.3598073179     3.1981051760     1.2021872712
   62      C       6.5235610592     1.9304912226     1.2526457700
   63      C       6.3169531758     1.1944020989     0.0777215237
   64      C       6.0381123279     1.3487360213     2.4503291234
   65      N       5.5922718125     0.0778309948    -0.0243661403
   66      N       6.0426515094     1.8601825033     3.7274097363
   67      C       5.3766443477     0.1126600458     2.3399556934
   68      C       5.1827167739    -0.5079759469     1.0894021917
   69      S       5.3733684470     0.7086854356     4.6907319489
   70      N       5.0137941605    -0.4215263578     3.5395900660
   71      C       4.5087117572    -1.8548718493     0.9803578631
   72      S       4.4131005015    -3.1845638833     2.2179941516
   73      C       3.9997991711    -2.2883451645    -0.2006933062
   74      C       3.6830546102    -4.2903439367     1.0028297718
   75      S       3.5969019080    -1.3924095320    -1.7127045951
   76      C       3.5447049477    -3.6051027620    -0.2296704933
   77      C       2.8557222638    -5.3737787540     1.4689619262
   78      C       2.5176177987    -2.6911357723    -2.2091086282
   79      C       2.7234365774    -3.8118538372    -1.4217620404
   80      N       2.2784995903    -6.1033799655     0.5909140589
   81      S       3.1932447828    -6.1618115130     2.9630535968
   82      C       1.7850912067    -7.2375734834     1.1995044228
   83      C       2.0794536780    -7.4102019577     2.5205158328
   84      C      10.0003426557     6.5310004447     0.7836323077
   85      H       7.9648929914     5.7168128135    -1.0030789631
   86      H       6.5567983720     3.8787717823    -0.7945970446
   87      H       8.4884498167     3.0538562410     3.1359567390
   88      H       6.7178732760     1.6905024377    -0.8054667501
   89      H       1.7466764906    -2.6035105292    -2.9620205196
   90      H       2.2173995313    -4.7323354826    -1.6910519374
   91      H       1.1411515645    -7.8653274776     0.5970322989
   92      H       1.7732824253    -8.1552690214     3.2422382410
   93      H       9.6229185978     7.4366617929     1.2738471614
   94      C      10.5571432597     6.8295257656    -0.5953567134
   95      H      10.9269397951     6.2412845895     1.2941217440
   96      H      11.3694268803     7.5511350961    -0.4461411182
   97      H       9.8326313558     7.3188958621    -1.2584165975
   98      C      11.1922670183     5.5997511178    -1.2310996857
   99      H      11.8079969005     5.0107471234    -0.5403710800
  100      C      11.9232403320     6.0735913536    -2.5905298773
  101      H      10.3876645294     4.9029681238    -1.4980253197
  102      H      12.6897921119     6.8500369659    -2.4822359262
  103      H      11.1598862549     6.3688375424    -3.3211263740
  104      C      12.6948660339     4.8301713225    -3.0252727924
  105      H      13.4771129516     4.6322503427    -2.2823124668
  106      C      13.3304931788     5.0840353679    -4.4306767127
  107      H      12.2058300227     3.8515455180    -2.9457472346
  108      H      13.7458729107     6.0978116970    -4.3733074455
  109      H      12.5932072040     5.0707593081    -5.2437321460
  110      H      14.1265157711     4.3608404913    -4.6478453181
 ----------------------------------------------------------------

   11   -5663.4989509094      7.71E-06 Convergence criterion met
 Total energy in the final basis set = -5663.4989509094

                    Orbital Energies (a.u.)
 --------------------------------------------------------------

 Alpha MOs
 -- Occupied --
-88.991 -88.988 -88.922 -88.920 -88.919 -88.918 -88.912 -88.900
-14.388 -14.388 -14.385 -14.381 -14.353 -14.345 -14.338 -14.338
-14.335 -14.330 -10.264 -10.262 -10.261 -10.261 -10.259 -10.258
-10.253 -10.253 -10.245 -10.245 -10.242 -10.240 -10.240 -10.239
-10.238 -10.236 -10.231 -10.231 -10.231 -10.230 -10.230 -10.230
-10.228 -10.228 -10.227 -10.226 -10.226 -10.225 -10.220 -10.217
-10.214 -10.213 -10.212 -10.211 -10.203 -10.202 -10.201 -10.191
-10.190 -10.184 -10.182 -10.182 -10.181 -10.181 -10.179 -10.176
-10.176 -10.174 -10.171 -10.171  -8.046  -8.042  -7.982  -7.980
 -7.980  -7.978  -7.971  -7.959  -6.011  -6.008  -6.006  -6.004
 -6.002  -6.000  -5.946  -5.945  -5.944  -5.943  -5.943  -5.941
 -5.941  -5.939  -5.939  -5.937  -5.937  -5.935  -5.935  -5.932
 -5.927  -5.924  -5.920  -5.915  -1.028  -1.027  -0.985  -0.979
 -0.968  -0.955  -0.940  -0.937  -0.901  -0.901  -0.894  -0.893
 -0.833  -0.832  -0.832  -0.827  -0.814  -0.814  -0.812  -0.812
 -0.808  -0.804  -0.796  -0.794  -0.788  -0.782  -0.769  -0.767
 -0.748  -0.746  -0.739  -0.731  -0.722  -0.713  -0.710  -0.703
 -0.693  -0.689  -0.674  -0.672  -0.658  -0.653  -0.646  -0.644
 -0.635  -0.632  -0.628  -0.621  -0.615  -0.612  -0.599  -0.596
 -0.592  -0.591  -0.584  -0.581  -0.577  -0.573  -0.572  -0.563
 -0.549  -0.544  -0.540  -0.536  -0.524  -0.522  -0.514  -0.510
 -0.506  -0.504  -0.498  -0.494  -0.485  -0.483  -0.473  -0.472
 -0.472  -0.470  -0.469  -0.467  -0.464  -0.463  -0.452  -0.451
 -0.447  -0.446  -0.444  -0.440  -0.440  -0.436  -0.435  -0.433
 -0.428  -0.426  -0.422  -0.421  -0.419  -0.416  -0.414  -0.413
 -0.409  -0.407  -0.406  -0.401  -0.397  -0.396  -0.396  -0.395
 -0.393  -0.392  -0.390  -0.387  -0.387  -0.384  -0.383  -0.380
 -0.378  -0.373  -0.372  -0.371  -0.370  -0.367  -0.359  -0.357
 -0.353  -0.350  -0.348  -0.346  -0.345  -0.344  -0.343  -0.341
 -0.336  -0.335  -0.334  -0.332  -0.327  -0.326  -0.323  -0.321
 -0.316  -0.309  -0.309  -0.305  -0.302  -0.301  -0.300  -0.298
 -0.294  -0.294  -0.293  -0.289  -0.287  -0.285  -0.284  -0.278
 -0.274  -0.273  -0.269  -0.266  -0.258  -0.255  -0.250  -0.249
 -0.244  -0.239  -0.228  -0.226  -0.194  -0.192

          Ground-State Mulliken Net Atomic Charges

     Atom                 Charge (a.u.)
  ----------------------------------------
      1 C                     0.271746
      2 C                    -0.120617
      3 N                    -0.477042
      4 C                    -0.092490
      5 C                     0.086711
      6 C                     0.037437
      7 C                     0.017281
      8 C                     0.052730
      9 C                     0.282557
     10 N                    -0.535967
     11 N                    -0.582937
     12 C                     0.167620
     13 C                     0.340923
     14 S                     0.601950
     15 N                    -0.556021
     16 C                    -0.212706
     17 S                     0.308263
     18 C                    -0.108173
     19 C                    -0.237660
     20 S                     0.286038
     21 C                     0.147974
     22 C                     0.098237
     23 C                    -0.298607
     24 C                    -0.061056
     25 N                    -0.457686
     26 S                     0.278560
     27 C                     0.096661
     28 C                    -0.287389
     29 C                    -0.232193
     30 H                     0.093987
     31 H                     0.098994
     32 H                     0.122764
     33 H                     0.116522
     34 H                     0.124780
     35 H                     0.127623
     36 H                     0.110158
     37 H                     0.137721
     38 H                     0.119404
     39 C                    -0.198081
     40 H                     0.125390
     41 H                     0.095729
     42 H                     0.099043
     43 C                    -0.173049
     44 H                     0.091761
     45 C                    -0.184078
     46 H                     0.097051
     47 H                     0.091231
     48 H                     0.086494
     49 C                    -0.172925
     50 H                     0.092184
     51 C                    -0.323105
     52 H                     0.093106
     53 H                     0.106857
     54 H                     0.106379
     55 H                     0.107571
     56 C                     0.248045
     57 C                    -0.096726
     58 N                    -0.466358
     59 C                    -0.085340
     60 C                     0.089156
     61 C                     0.021090
     62 C                     0.033168
     63 C                     0.065885
     64 C                     0.241873
     65 N                    -0.514914
     66 N                    -0.562988
     67 C                     0.204936
     68 C                     0.301998
     69 S                     0.616002
     70 N                    -0.565469
     71 C                    -0.216549
     72 S                     0.305701
     73 C                    -0.103765
     74 C                    -0.248722
     75 S                     0.260481
     76 C                     0.141185
     77 C                     0.093289
     78 C                    -0.303265
     79 C                    -0.070517
     80 N                    -0.418919
     81 S                     0.263832
     82 C                     0.110434
     83 C                    -0.308584
     84 C                    -0.231303
     85 H                     0.099491
     86 H                     0.105854
     87 H                     0.115817
     88 H                     0.107054
     89 H                     0.150198
     90 H                     0.120811
     91 H                     0.097119
     92 H                     0.143468
     93 H                     0.112289
     94 C                    -0.186227
     95 H                     0.117627
     96 H                     0.097928
     97 H                     0.086081
     98 C                    -0.186223
     99 H                     0.099302
    100 C                    -0.168158
    101 H                     0.099228
    102 H                     0.099529
    103 H                     0.096507
    104 C                    -0.182129
    105 H                     0.093809
    106 C                    -0.319881
    107 H                     0.091280
    108 H                     0.097587
    109 H                     0.103080
    110 H                     0.097245
  ----------------------------------------
  Sum of atomic charges =     0.000000

                    Cartesian Multipole Moments
 -----------------------------------------------------------------
    Charge (ESU x 10^10)
                 0.0000
    Dipole Moment (Debye)
         X      -1.4036      Y      -1.5030      Z      -1.6820
       Tot       2.6568
    Quadrupole Moments (Debye-Ang)
        XX    -433.9810     XY       3.7085     YY    -409.2629
        XZ       6.5701     YZ     -21.2401     ZZ    -431.9188

 Total job time:  101.65s(wall), 1123.53s(cpu)
        *  Thank you very much for using Q-Chem.  Have a nice day.  *
