 Q-Chem 4.4, Q-Chem, Inc., Pleasanton, CA (2016)
 Q-Chem 4.4.2 for Intel X86 Linux

User input:
--------------------------------------------------------------
$comment
SP
$end

$rem
MEM_STATIC 5000
MEM_TOTAL 20000
JOBTYPE SP
EXCHANGE B3LYP
BASIS 6-31g(d,p)
$end

$molecule
0 1
C         -13.314000      1.147000     -0.096000
C         -12.036000      1.773000     -0.202000
N         -13.409000     -0.068000      0.417000
C         -10.894000      1.014000     -0.014000
C         -12.285000     -0.800000      0.711000
C         -10.962000     -0.243000      0.545000
C          -9.707000     -1.065000      0.904000
C          -9.661000     -1.695000      2.162000
C          -8.663000     -1.362000     -0.015000
N          -8.689000     -2.556000      2.531000
N          -8.625000     -0.941000     -1.281000
C          -7.577000     -2.190000      0.362000
C          -7.626000     -2.823000      1.652000
S          -7.209000     -1.496000     -1.870000
N          -6.608000     -2.324000     -0.602000
C          -6.645000     -3.791000      2.156000
S          -5.106000     -4.136000      1.383000
C          -6.758000     -4.652000      3.259000
C          -4.769000     -5.536000      2.451000
S          -7.993000     -4.734000      4.396000
C          -5.744000     -5.598000      3.385000
C          -3.586000     -6.307000      2.410000
C          -7.112000     -5.968000      5.265000
C          -6.020000     -6.399000      4.560000
N          -3.718000     -7.523000      2.936000
S          -2.033000     -5.795000      1.928000
C          -2.540000     -8.222000      2.751000
C          -1.442000     -7.464000      2.245000
C         -14.557000      1.884000     -0.523000
H         -11.977000      2.742000     -0.690000
H          -9.902000      1.427000     -0.171000
H         -12.415000     -1.790000      1.144000
H         -10.483000     -1.507000      2.851000
H          -7.599000     -6.379000      6.139000
H          -5.354000     -7.192000      4.882000
H          -2.521000     -9.285000      2.954000
H          -0.460000     -7.878000      2.057000
H         -14.270000      2.783000     -1.082000
C         -15.572000      2.294000      0.588000
H         -15.154000      1.339000     -1.265000
H         -15.052000      3.031000      1.213000
H         -15.867000      1.349000      1.060000
C         -16.847000      3.057000      0.123000
H         -16.495000      4.056000     -0.164000
C         -17.889000      3.342000      1.176000
H         -17.172000      2.469000     -0.744000
H         -17.568000      3.988000      2.003000
H         -18.082000      2.384000      1.675000
C         -19.108000      3.947000      0.499000
H         -18.875000      4.826000     -0.116000
C         -20.212000      4.352000      1.501000
H         -19.516000      3.214000     -0.208000
H         -19.818000      5.135000      2.160000
H         -20.409000      3.436000      2.072000
H         -21.124000      4.688000      0.992000
C         -12.141000      7.171000     -2.720000
C         -12.167000      6.546000     -1.418000
N         -11.069000      7.207000     -3.554000
C         -11.053000      5.877000     -1.029000
C          -9.955000      6.623000     -3.102000
C          -9.892000      5.857000     -1.893000
C          -8.705000      5.008000     -1.470000
C          -8.929000      3.777000     -0.838000
C          -7.359000      5.310000     -1.795000
N          -7.983000      2.943000     -0.400000
N          -6.837000      6.453000     -2.355000
C          -6.384000      4.365000     -1.429000
C          -6.728000      3.181000     -0.746000
S          -5.222000      6.194000     -2.518000
N          -5.128000      4.686000     -1.848000
C          -5.683000      2.150000     -0.392000
S          -4.094000      1.811000     -1.210000
C          -5.923000      1.208000      0.555000
C          -3.860000      0.347000     -0.193000
S          -7.180000      1.124000      1.845000
C          -4.959000      0.211000      0.691000
C          -2.517000     -0.117000      0.045000
C          -6.196000     -0.024000      2.746000
C          -5.170000     -0.504000      1.949000
N          -2.361000     -1.111000      0.835000
S          -1.298000      0.054000     -1.160000
C          -1.074000     -1.589000      0.711000
C          -0.290000     -1.017000     -0.248000
C         -13.427000      7.852000     -3.227000
H         -13.036000      6.509000     -0.769000
H         -11.126000      5.388000     -0.062000
H          -9.172000      6.666000     -3.858000
H          -9.982000      3.601000     -0.621000
H          -6.320000     -0.259000      3.794000
H          -4.556000     -1.313000      2.329000
H          -0.765000     -2.332000      1.435000
H           0.751000     -1.149000     -0.510000
H         -13.428000      8.922000     -2.986000
C         -14.766000      7.207000     -2.924000
H         -13.425000      7.760000     -4.320000
H         -15.505000      7.737000     -3.537000
H         -15.084000      7.338000     -1.882000
C         -14.810000      5.751000     -3.369000
H         -14.361000      5.574000     -4.354000
C         -16.327000      5.229000     -3.187000
H         -14.164000      5.172000     -2.697000
H         -17.099000      5.787000     -3.730000
H         -16.558000      5.172000     -2.116000
C         -16.307000      3.855000     -3.852000
H         -16.133000      3.994000     -4.926000
C         -17.679000      3.146000     -3.610000
H         -15.447000      3.197000     -3.677000
H         -18.433000      3.923000     -3.787000
H         -17.802000      2.790000     -2.579000
H         -17.827000      2.310000     -4.305000
$end

--------------------------------------------------------------

             Standard Nuclear Orientation (Angstroms)
    I     Atom           X                Y                Z
 ----------------------------------------------------------------
    1      C       4.0412682538    -2.7708547007     0.3724572743
    2      C       3.4998515541    -1.4890458913     0.0558658447
    3      N       3.2360537076    -3.8135919376     0.4853624977
    4      C       2.1310514961    -1.2971163328     0.1275487983
    5      C       1.8719947173    -3.6589445870     0.4527547075
    6      C       1.2685911216    -2.3673548408     0.2164624559
    7      C      -0.2647282417    -2.2100331934     0.1550488631
    8      C      -0.9915216433    -3.0871376845    -0.6720176779
    9      C      -1.0082536188    -1.3429478674     1.0024207124
   10      N      -2.3399703894    -3.1447862092    -0.6970901093
   11      N      -0.4718396997    -0.5405067061     1.9242608775
   12      C      -2.4233439983    -1.3078268315     0.9441563945
   13      C      -3.0886983489    -2.2621892738     0.0993570593
   14      S      -1.7324213868     0.2741258848     2.5624689565
   15      N      -2.9990040713    -0.3681378144     1.7637984087
   16      C      -4.5425934900    -2.4363813967     0.0031956168
   17      S      -5.7207515321    -1.3330818257     0.6958345447
   18      C      -5.2565615857    -3.5028272071    -0.5656997090
   19      C      -7.0966105741    -2.4328324948     0.3615392224
   20      S      -4.6575614125    -4.8246193323    -1.4135100477
   21      C      -6.6307486165    -3.4892399745    -0.3411704426
   22      C      -8.4485163516    -2.1294597864     0.6370873463
   23      C      -6.2892176692    -5.3808363901    -1.7005613402
   24      C      -7.2030247203    -4.6536258311    -0.9854589166
   25      N      -9.2298264701    -3.2023956525     0.7425346123
   26      S      -9.1758084859    -0.5881568610     0.6784206665
   27      C     -10.4988074064    -2.7985213770     1.1127817632
   28      C     -10.7279142512    -1.3900918215     1.1064382039
   29      C       5.5292599485    -2.9470696898     0.5317557183
   30      H       4.1734910244    -0.6367288799     0.0371154784
   31      H       1.6835422320    -0.3185395417    -0.0187554133
   32      H       1.2515881564    -4.5492025932     0.5365722564
   33      H      -0.4262169925    -3.7851321489    -1.2876339377
   34      H      -6.3898749294    -6.3144822355    -2.2373476583
   35      H      -8.2694180858    -4.8502861176    -0.9706629100
   36      H     -11.2205798451    -3.5447647114     1.4188935610
   37      H     -11.6730896190    -0.9323745650     1.3675941674
   38      H       6.0062046653    -1.9608390951     0.5858292915
   39      C       6.2750716692    -3.8003485646    -0.5398440386
   40      H       5.8156109309    -3.3883060790     1.4947258963
   41      H       6.1933362057    -3.2403875123    -1.4800338779
   42      H       5.7964750594    -4.7861405215    -0.4951953810
   43      C       7.8122078904    -3.9657598251    -0.3558050416
   44      H       8.2372823595    -2.9825118530    -0.5941516821
   45      C       8.5146383612    -4.8930799358    -1.3162564178
   46      H       7.8986854672    -4.2052262364     0.7110761451
   47      H       8.4766989211    -4.6032095954    -2.3740001413
   48      H       7.9452944842    -5.8309367657    -1.2993414420
   49      C       9.9628898012    -5.0370167619    -0.8778901821
   50      H      10.4812257182    -4.0765083915    -0.7599641562
   51      C      10.7982611780    -5.9081590679    -1.8423126754
   52      H       9.9831055851    -5.4877889506     0.1221086959
   53      H      10.8310167632    -5.4154364064    -2.8214742813
   54      H      10.2406560970    -6.8508594273    -1.9078764295
   55      H      11.8100867262    -6.0891295654    -1.4586725587
   56      C       7.5283821479     2.8931008679    -0.1838924419
   57      C       6.8479215376     1.9541317844    -1.0451795126
   58      N       6.9499296016     3.9565080106     0.4330304872
   59      C       5.5075796245     2.1041131134    -1.1896342004
   60      C       5.6471496774     4.1352855616     0.1939508842
   61      C       4.8351224156     3.2024481017    -0.5291203430
   62      C       3.3205130637     3.2721075940    -0.6281408771
   63      C       2.5732012636     2.0864739280    -0.6005930350
   64      C       2.5800384088     4.4803652710    -0.6092816227
   65      N       1.2443515943     2.0011669157    -0.6964954337
   66      N       3.0328753814     5.7769536069    -0.6888452043
   67      C       1.1780047078     4.3723930134    -0.5934862857
   68      C       0.5372404910     3.1172647149    -0.6209666959
   69      S       1.7048237360     6.7396135814    -0.5818891356
   70      N       0.5391118341     5.5713820126    -0.4916075557
   71      C      -0.9675165690     3.0053759545    -0.5618981276
   72      S      -2.1685122500     4.1634811767     0.1629243806
   73      C      -1.5993574425     1.8665768354    -0.9435873689
   74      C      -3.4948412890     2.9757478507    -0.0870392698
   75      S      -1.0218829702     0.4674930269    -1.9235326381
   76      C      -2.9701972628     1.8107759510    -0.6996909805
   77      C      -4.8429771176     3.4676436018    -0.2141508656
   78      C      -2.6848731130     0.0209149199    -2.2882143888
   79      C      -3.5576567093     0.7105227752    -1.4630024161
   80      N      -5.7652354265     2.6193000340    -0.4714926666
   81      S      -5.3585388091     4.8629576236     0.6544813483
   82      C      -6.9933201828     3.2110803100    -0.2669616509
   83      C      -6.9943758316     4.4767820530     0.2424684065
   84      C       9.0329939711     2.6851223451     0.0759040083
   85      H       7.3184870799     1.0980079009    -1.5177797310
   86      H       5.0269358160     1.3556272298    -1.8127629282
   87      H       5.2702401486     4.9817207012     0.7666294689
   88      H       3.1987789575     1.1946011999    -0.6100580108
   89      H      -2.9894237706    -0.6319106828    -3.0944231889
   90      H      -4.6090364687     0.4461423867    -1.4870983035
   91      H      -7.8584799409     2.6497770431    -0.5958130394
   92      H      -7.7910865136     5.1826869847     0.4340390635
   93      H       9.6390865662     3.2690453163    -0.6274221820
   94      C       9.5609261411     1.2718459019     0.2330419064
   95      H       9.2368217633     3.0675400042     1.0835388455
   96      H      10.5886992414     1.3700491497     0.6029453756
   97      H       9.6296109803     0.7269780058    -0.7169319715
   98      C       8.7981752390     0.4945357877     1.2978879270
   99      H       8.5894215989     1.0733219104     2.2059537517
  100      C       9.5643785739    -0.9087757039     1.5227129857
  101      H       7.7953552914     0.2802285231     0.9072915253
  102      H      10.6173605775    -0.8425996248     1.8211198000
  103      H       9.4445775608    -1.5278428844     0.6249075818
  104      C       8.8574389414    -1.5032650936     2.7381634049
  105      H       9.0713714874    -0.8682458080     3.6065275984
  106      C       9.3850008939    -2.9544679238     2.9817157237
  107      H       7.7650554814    -1.4272230194     2.8022335169
  108      H      10.4724233168    -2.8842011596     2.8546367876
  109      H       9.0087871238    -3.6768674579     2.2458977352
  110      H       9.1442377744    -3.3046918665     3.9932498606
 ----------------------------------------------------------------

   11   -5663.5047328467      6.19E-06 Convergence criterion met
 Total energy in the final basis set = -5663.5047328467

                    Orbital Energies (a.u.)
 --------------------------------------------------------------

 Alpha MOs
 -- Occupied --
-88.996 -88.980 -88.933 -88.927 -88.920 -88.918 -88.907 -88.900
-14.392 -14.389 -14.384 -14.375 -14.360 -14.347 -14.341 -14.339
-14.338 -14.325 -10.270 -10.266 -10.264 -10.263 -10.261 -10.258
-10.253 -10.249 -10.247 -10.244 -10.244 -10.242 -10.238 -10.236
-10.236 -10.235 -10.234 -10.233 -10.233 -10.231 -10.231 -10.230
-10.229 -10.229 -10.229 -10.223 -10.222 -10.218 -10.217 -10.217
-10.216 -10.211 -10.206 -10.203 -10.197 -10.197 -10.195 -10.194
-10.185 -10.184 -10.183 -10.183 -10.181 -10.180 -10.178 -10.178
-10.178 -10.176 -10.172 -10.170  -8.051  -8.036  -7.994  -7.985
 -7.983  -7.977  -7.966  -7.962  -6.016  -6.010  -6.009  -6.001
 -5.995  -5.994  -5.958  -5.954  -5.951  -5.950  -5.947  -5.946
 -5.943  -5.942  -5.941  -5.939  -5.938  -5.934  -5.931  -5.927
 -5.926  -5.922  -5.922  -5.918  -1.032  -1.031  -0.985  -0.974
 -0.967  -0.943  -0.938  -0.932  -0.912  -0.907  -0.900  -0.898
 -0.846  -0.838  -0.837  -0.820  -0.815  -0.813  -0.811  -0.808
 -0.804  -0.802  -0.800  -0.792  -0.783  -0.782  -0.771  -0.764
 -0.749  -0.746  -0.737  -0.736  -0.727  -0.721  -0.709  -0.706
 -0.692  -0.691  -0.677  -0.669  -0.656  -0.651  -0.648  -0.640
 -0.635  -0.630  -0.624  -0.623  -0.618  -0.602  -0.600  -0.595
 -0.590  -0.588  -0.585  -0.582  -0.577  -0.577  -0.574  -0.568
 -0.548  -0.546  -0.545  -0.531  -0.526  -0.518  -0.515  -0.510
 -0.505  -0.501  -0.498  -0.496  -0.490  -0.488  -0.478  -0.476
 -0.473  -0.470  -0.468  -0.468  -0.465  -0.462  -0.454  -0.446
 -0.445  -0.444  -0.443  -0.441  -0.440  -0.436  -0.434  -0.433
 -0.431  -0.431  -0.425  -0.423  -0.421  -0.418  -0.417  -0.413
 -0.408  -0.407  -0.405  -0.405  -0.402  -0.400  -0.396  -0.394
 -0.393  -0.391  -0.388  -0.386  -0.385  -0.383  -0.383  -0.380
 -0.376  -0.374  -0.372  -0.370  -0.369  -0.369  -0.356  -0.354
 -0.350  -0.349  -0.347  -0.347  -0.347  -0.345  -0.343  -0.338
 -0.336  -0.336  -0.334  -0.330  -0.328  -0.327  -0.326  -0.323
 -0.318  -0.313  -0.310  -0.307  -0.306  -0.301  -0.301  -0.298
 -0.297  -0.295  -0.293  -0.287  -0.286  -0.285  -0.283  -0.280
 -0.280  -0.272  -0.267  -0.262  -0.259  -0.253  -0.249  -0.248
 -0.243  -0.239  -0.236  -0.231  -0.197  -0.190

          Ground-State Mulliken Net Atomic Charges

     Atom                 Charge (a.u.)
  ----------------------------------------
      1 C                     0.292580
      2 C                    -0.140862
      3 N                    -0.488847
      4 C                    -0.061856
      5 C                     0.067697
      6 C                     0.012162
      7 C                     0.021673
      8 C                     0.069913
      9 C                     0.256259
     10 N                    -0.536499
     11 N                    -0.550832
     12 C                     0.209593
     13 C                     0.303001
     14 S                     0.605952
     15 N                    -0.554925
     16 C                    -0.221432
     17 S                     0.319469
     18 C                    -0.126381
     19 C                    -0.253938
     20 S                     0.284977
     21 C                     0.203208
     22 C                     0.041240
     23 C                    -0.311529
     24 C                    -0.057749
     25 N                    -0.423071
     26 S                     0.282295
     27 C                     0.118523
     28 C                    -0.318393
     29 C                    -0.239826
     30 H                     0.081803
     31 H                     0.139627
     32 H                     0.106888
     33 H                     0.115685
     34 H                     0.129621
     35 H                     0.114604
     36 H                     0.116536
     37 H                     0.132845
     38 H                     0.094474
     39 C                    -0.181201
     40 H                     0.115290
     41 H                     0.085847
     42 H                     0.114713
     43 C                    -0.183563
     44 H                     0.092440
     45 C                    -0.166811
     46 H                     0.102138
     47 H                     0.090510
     48 H                     0.092474
     49 C                    -0.177735
     50 H                     0.091270
     51 C                    -0.317567
     52 H                     0.096492
     53 H                     0.101298
     54 H                     0.104395
     55 H                     0.100123
     56 C                     0.248671
     57 C                    -0.097665
     58 N                    -0.465236
     59 C                    -0.089917
     60 C                     0.090991
     61 C                     0.018982
     62 C                     0.033244
     63 C                     0.083089
     64 C                     0.242945
     65 N                    -0.539129
     66 N                    -0.561678
     67 C                     0.199002
     68 C                     0.310882
     69 S                     0.619157
     70 N                    -0.564595
     71 C                    -0.216715
     72 S                     0.306930
     73 C                    -0.113282
     74 C                    -0.245773
     75 S                     0.260249
     76 C                     0.147155
     77 C                     0.089242
     78 C                    -0.295536
     79 C                    -0.082676
     80 N                    -0.414269
     81 S                     0.261365
     82 C                     0.108338
     83 C                    -0.307586
     84 C                    -0.231502
     85 H                     0.100838
     86 H                     0.108608
     87 H                     0.116812
     88 H                     0.101852
     89 H                     0.147640
     90 H                     0.135341
     91 H                     0.112784
     92 H                     0.143231
     93 H                     0.113077
     94 C                    -0.186012
     95 H                     0.118519
     96 H                     0.099127
     97 H                     0.085507
     98 C                    -0.191036
     99 H                     0.100072
    100 C                    -0.174828
    101 H                     0.099281
    102 H                     0.098739
    103 H                     0.104135
    104 C                    -0.183778
    105 H                     0.093791
    106 C                    -0.328515
    107 H                     0.092176
    108 H                     0.096799
    109 H                     0.109908
    110 H                     0.096650
  ----------------------------------------
  Sum of atomic charges =     0.000000

                    Cartesian Multipole Moments
 -----------------------------------------------------------------
    Charge (ESU x 10^10)
                 0.0000
    Dipole Moment (Debye)
         X      -2.2519      Y       2.4413      Z      -0.9738
       Tot       3.4612
    Quadrupole Moments (Debye-Ang)
        XX    -381.0976     XY     -15.8325     YY    -444.1693
        XZ      -9.8581     YZ       8.6398     ZZ    -447.1614

 Total job time:  118.66s(wall), 1323.27s(cpu)
        *  Thank you very much for using Q-Chem.  Have a nice day.  *
