 Q-Chem 4.4, Q-Chem, Inc., Pleasanton, CA (2016)
 Q-Chem 4.4.2 for Intel X86 Linux

User input:
--------------------------------------------------------------
$comment
SP
$end

$rem
MEM_STATIC 5000
MEM_TOTAL 20000
JOBTYPE SP
EXCHANGE B3LYP
BASIS 6-31g(d,p)
$end

$molecule
0 1
C         -14.246000    -15.730000    -14.705000
C         -13.470000    -16.295000    -13.688000
N         -15.309000    -14.868000    -14.454000
C         -13.717000    -15.960000    -12.375000
C         -15.469000    -14.501000    -13.185000
C         -14.784000    -15.094000    -12.094000
C         -15.166000    -14.817000    -10.645000
C         -15.167000    -15.868000     -9.707000
C         -15.484000    -13.534000    -10.146000
N         -15.493000    -15.605000     -8.420000
N         -15.377000    -12.396000    -10.870000
C         -15.730000    -13.301000     -8.767000
C         -15.801000    -14.452000     -7.922000
S         -15.743000    -11.182000     -9.837000
N         -15.912000    -11.977000     -8.471000
C         -16.246000    -14.556000     -6.467000
S         -15.993000    -15.967000     -5.426000
C         -17.335000    -13.860000     -6.021000
C         -17.014000    -15.231000     -4.137000
S         -18.158000    -12.438000     -6.586000
C         -17.642000    -14.191000     -4.693000
C         -17.004000    -15.614000     -2.749000
C         -18.986000    -12.314000     -4.972000
C         -18.471000    -13.247000     -4.100000
N         -15.798000    -16.163000     -2.360000
S         -17.953000    -14.953000     -1.456000
C         -15.651000    -16.133000     -0.981000
C         -16.747000    -15.558000     -0.375000
C         -14.044000    -16.283000    -16.131000
H         -12.648000    -16.987000    -13.843000
H         -13.106000    -16.322000    -11.554000
H         -16.249000    -13.754000    -13.046000
H         -14.881000    -16.901000     -9.897000
H         -19.674000    -11.485000     -4.866000
H         -18.780000    -13.251000     -3.061000
H         -14.803000    -16.543000     -0.448000
H         -16.839000    -15.727000      0.690000
H         -13.767000    -17.342000    -16.062000
C         -13.109000    -15.470000    -17.057000
H         -15.059000    -16.374000    -16.539000
H         -13.451000    -14.430000    -16.987000
H         -13.210000    -15.761000    -18.110000
C         -11.603000    -15.685000    -16.700000
H         -11.412000    -15.335000    -15.678000
C         -10.575000    -15.037000    -17.647000
H         -11.426000    -16.763000    -16.606000
H         -10.827000    -13.982000    -17.812000
H         -10.566000    -15.572000    -18.604000
C          -9.176000    -15.130000    -17.071000
H          -8.504000    -14.541000    -17.706000
C          -8.581000    -16.537000    -17.121000
H          -9.148000    -14.558000    -16.135000
H          -7.523000    -16.443000    -16.846000
H          -8.655000    -16.936000    -18.140000
H          -9.164000    -17.164000    -16.436000
C          -6.928000    -18.149000     -5.559000
C          -6.845000    -17.050000     -4.727000
N          -7.810000    -19.113000     -5.334000
C          -7.795000    -16.828000     -3.735000
C          -8.809000    -18.939000     -4.418000
C          -8.815000    -17.812000     -3.543000
C          -9.776000    -17.633000     -2.419000
C          -9.398000    -17.091000     -1.160000
C         -11.156000    -17.925000     -2.511000
N         -10.169000    -16.971000     -0.104000
N         -11.788000    -18.330000     -3.634000
C         -11.983000    -17.736000     -1.370000
C         -11.425000    -17.314000     -0.184000
S         -13.389000    -18.446000     -3.203000
N         -13.268000    -18.100000     -1.577000
C         -12.149000    -17.404000      1.088000
S         -13.704000    -18.237000      1.437000
C         -11.599000    -16.969000      2.275000
C         -13.561000    -18.106000      3.169000
S         -10.203000    -15.921000      2.615000
C         -12.454000    -17.323000      3.363000
C         -14.669000    -18.077000      4.093000
C         -10.734000    -16.031000      4.365000
C         -11.949000    -16.781000      4.503000
N         -15.851000    -18.036000      3.541000
S         -14.745000    -18.172000      5.832000
C         -16.889000    -18.028000      4.469000
C         -16.492000    -18.125000      5.777000
C          -5.977000    -18.319000     -6.828000
H          -6.132000    -16.289000     -5.030000
H          -7.656000    -15.939000     -3.127000
H          -9.523000    -19.761000     -4.398000
H          -8.372000    -16.787000     -0.957000
H         -10.044000    -15.663000      5.112000
H         -12.386000    -16.884000      5.490000
H         -17.885000    -18.015000      4.046000
H         -17.103000    -18.086000      6.669000
H          -6.590000    -18.827000     -7.584000
C          -4.851000    -19.347000     -6.647000
H          -5.698000    -17.372000     -7.305000
H          -4.187000    -18.956000     -5.865000
H          -4.191000    -19.327000     -7.523000
C          -5.255000    -20.833000     -6.265000
H          -4.320000    -21.406000     -6.242000
C          -6.205000    -21.545000     -7.298000
H          -5.681000    -20.857000     -5.254000
H          -5.705000    -21.546000     -8.274000
H          -7.132000    -20.974000     -7.435000
C          -6.287000    -23.077000     -6.818000
H          -5.317000    -23.473000     -6.490000
C          -6.940000    -23.949000     -7.872000
H          -6.912000    -23.259000     -5.935000
H          -6.417000    -23.887000     -8.835000
H          -7.978000    -23.660000     -8.077000
H          -6.871000    -24.968000     -7.471000
$end

--------------------------------------------------------------

             Standard Nuclear Orientation (Angstroms)
    I     Atom           X                Y                Z
 ----------------------------------------------------------------
    1      C       9.6253461878    -1.2108260675     1.2318010529
    2      C       8.5813011033    -0.2806179800     1.2124936610
    3      N       9.4370577433    -2.5636001665     0.9661627677
    4      C       7.3109214250    -0.6876059578     0.8694204053
    5      C       8.2181913879    -2.9090627018     0.5591364240
    6      C       7.0932222863    -2.0464708328     0.5983127944
    7      C       5.6747405450    -2.5463621352     0.3528087511
    8      C       4.6132984865    -2.0583108023     1.1399508304
    9      C       5.3267728399    -3.4571440977    -0.6697413420
   10      N       3.3561266936    -2.4989151456     0.9007837426
   11      N       6.1917683320    -3.8993404904    -1.6115025372
   12      C       3.9782394236    -3.8152611370    -0.9336652160
   13      C       2.9933021074    -3.3379241287    -0.0139289150
   14      S       5.3037544702    -4.8303010573    -2.6212474575
   15      N       3.8426914581    -4.6225644947    -2.0307541084
   16      C       1.5182958248    -3.7083764352     0.1000340397
   17      S       0.3210116561    -2.8259870315     1.0625882248
   18      C       1.1147706331    -5.0076842220    -0.0349463100
   19      C      -0.9099557634    -4.1036091926     0.7494447662
   20      S       1.8161590020    -6.4042108474    -0.7941602065
   21      C      -0.2566440509    -5.1446757180     0.2255322775
   22      C      -2.3331677830    -3.9395137204     0.8939204502
   23      C       0.1950064469    -7.2235409968    -0.7134229828
   24      C      -0.7631384309    -6.3400371222    -0.2690388059
   25      N      -2.7335505801    -2.6273584654     0.7354900160
   26      S      -3.5742785859    -5.1179143328     0.6103944873
   27      C      -4.0899417455    -2.5434384272     0.4574424779
   28      C      -4.6675240075    -3.7937124288     0.4095817253
   29      C      10.9783801900    -0.7350646166     1.8001662796
   30      H       8.6849675036     0.7769317608     1.4347881126
   31      H       6.4791941250     0.0042095537     0.7798268978
   32      H       8.1391565595    -3.9561943119     0.2710411500
   33      H       4.6849208986    -1.3034179002     1.9209706357
   34      H       0.1630740921    -8.2292484070    -1.1126145782
   35      H      -1.8072244546    -6.6309600383    -0.2527221852
   36      H      -4.6316415914    -1.6148376709     0.3327231434
   37      H      -5.7483498529    -3.8154817701     0.4604893657
   38      H      10.7896451319     0.0189101954     2.5740345247
   39      C      12.0398959482    -0.2913128356     0.7662713855
   40      H      11.3259178400    -1.5696022256     2.4228496348
   41      H      12.0855770756    -1.0959486730     0.0220010020
   42      H      13.0425299464    -0.2156219286     1.2052326049
   43      C      11.7265216097     1.1219889212     0.1779817728
   44      H      10.7660353175     1.0970771119    -0.3514617882
   45      C      12.7923298681     1.7274906928    -0.7552477600
   46      H      11.5061519283     1.7971845157     1.0133242850
   47      H      13.0768282282     0.9994092764    -1.5251257595
   48      H      13.6741555140     2.0155334897    -0.1708079619
   49      C      12.2724080957     2.9833222141    -1.4262131397
   50      H      13.0056642363     3.2993180748    -2.1773536381
   51      C      12.1722241703     4.1866248782    -0.4890899463
   52      H      11.4176894614     2.7101585182    -2.0577997540
   53      H      11.9588036434     5.0602099602    -1.1176802606
   54      H      13.1288312185     4.3375278323     0.0258559284
   55      H      11.3886327014     3.9657796600     0.2453859208
   56      C       0.5850095909     6.1611313842    -1.4102736139
   57      C      -0.0981133505     5.6829093829    -2.5109828237
   58      N       0.2017008567     5.8522002283    -0.1792248922
   59      C      -1.0959757499     4.7229696208    -2.3744753699
   60      C      -0.7290475004     4.8743354964     0.0324849604
   61      C      -1.4552611591     4.3037809029    -1.0551138525
   62      C      -2.5898314570     3.3521838498    -0.8934002549
   63      C      -3.7527728290     3.3925635765    -1.7105084748
   64      C      -2.5970128482     2.2890061735     0.0381198234
   65      N      -4.8188405416     2.6371861848    -1.5805791544
   66      N      -1.5630559841     1.9571560822     0.8414794688
   67      C      -3.7411813472     1.4493646765     0.1242104881
   68      C      -4.8387585225     1.7068936519    -0.6663887600
   69      S      -2.0764130570     0.6040202844     1.6587346483
   70      N      -3.6391595163     0.5066621184     1.0872647093
   71      C      -6.1431245005     1.0896829973    -0.4057349602
   72      S      -6.6630285558     0.1260668062     1.0207497434
   73      C      -7.2404212583     1.3338940617    -1.2038544884
   74      C      -8.3567975941     0.1498375336     0.6108529302
   75      S      -7.3835525121     2.0392434591    -2.8301126695
   76      C      -8.4013795825     0.7340997495    -0.6272198097
   77      C      -9.3185287397    -0.8532371896     0.9996913326
   78      C      -9.1555350167     1.5900636217    -2.7081435061
   79      C      -9.4406959791     0.8881273422    -1.4900557897
   80      N      -8.8192000128    -1.8946390520     1.6076896742
   81      S     -11.0573657736    -0.9115833363     0.8903135617
   82      C      -9.7843951399    -2.8264131783     1.9803655981
   83      C     -11.0751489823    -2.4607850272     1.7008077803
   84      C       1.8639703802     7.1027850871    -1.5559087855
   85      H       0.3294918674     5.9441517111    -3.4744169022
   86      H      -1.5809090167     4.4003820315    -3.2910357738
   87      H      -0.8838617918     4.6479566795     1.0863659624
   88      H      -3.8699425574     4.1379571976    -2.4959768728
   89      H      -9.8188795176     1.9987649412    -3.4581237089
   90      H     -10.4513828522     0.5343943880    -1.3193746786
   91      H      -9.4081042045    -3.6944150225     2.5058101054
   92      H     -11.9816685833    -3.0334187517     1.8450951003
   93      H       2.5221318399     6.8294644719    -0.7207511152
   94      C       1.6061138661     8.5816796544    -1.2337257987
   95      H       2.4679193346     6.8981737521    -2.4478498498
   96      H       0.9098002226     8.9557350605    -1.9956515583
   97      H       2.5063644341     9.1682157915    -1.4548598632
   98      C       1.0231616553     8.9402963481     0.1976709971
   99      H       0.9703856679    10.0350978954     0.2389900851
  100      C       1.9152049911     8.4772088692     1.4085969544
  101      H      -0.0009167216     8.5573697469     0.2914990106
  102      H       2.9047728207     8.9361962333     1.2960664684
  103      H       2.0810740094     7.3928587795     1.3801127177
  104      C       1.2437694165     9.1375477448     2.7113919645
  105      H       0.9124605038    10.1705148203     2.5425327767
  106      C       2.1498618280     9.0121697922     3.9201044658
  107      H       0.3178407914     8.6599801203     3.0549372240
  108      H       3.1354717282     9.4604512621     3.7402188120
  109      H       2.3428093735     7.9689182556     4.1982905118
  110      H       1.6277858662     9.5576352736     4.7162370544
 ----------------------------------------------------------------

    9   -5663.4825219612      8.01E-06 Convergence criterion met
 Total energy in the final basis set = -5663.4825219612

                    Orbital Energies (a.u.)
 --------------------------------------------------------------

 Alpha MOs
 -- Occupied --
-88.989 -88.985 -88.932 -88.929 -88.923 -88.915 -88.913 -88.903
-14.386 -14.386 -14.381 -14.380 -14.349 -14.340 -14.338 -14.338
-14.333 -14.329 -10.270 -10.266 -10.261 -10.259 -10.256 -10.256
-10.253 -10.249 -10.241 -10.240 -10.239 -10.236 -10.235 -10.234
-10.233 -10.233 -10.233 -10.233 -10.231 -10.230 -10.230 -10.229
-10.227 -10.227 -10.225 -10.224 -10.222 -10.219 -10.218 -10.216
-10.215 -10.208 -10.206 -10.202 -10.199 -10.197 -10.196 -10.196
-10.189 -10.185 -10.183 -10.180 -10.177 -10.175 -10.174 -10.174
-10.174 -10.173 -10.173 -10.163  -8.045  -8.039  -7.993  -7.990
 -7.981  -7.973  -7.972  -7.964  -6.010  -6.004  -6.004  -6.003
 -5.999  -5.997  -5.956  -5.954  -5.953  -5.951  -5.950  -5.947
 -5.946  -5.942  -5.938  -5.938  -5.936  -5.935  -5.933  -5.930
 -5.928  -5.928  -5.925  -5.920  -1.041  -1.026  -0.978  -0.972
 -0.963  -0.951  -0.939  -0.934  -0.913  -0.912  -0.903  -0.899
 -0.837  -0.836  -0.832  -0.827  -0.811  -0.807  -0.806  -0.804
 -0.802  -0.799  -0.797  -0.792  -0.786  -0.777  -0.769  -0.765
 -0.751  -0.745  -0.742  -0.740  -0.719  -0.716  -0.707  -0.704
 -0.694  -0.691  -0.679  -0.672  -0.654  -0.652  -0.645  -0.644
 -0.635  -0.632  -0.627  -0.624  -0.613  -0.613  -0.602  -0.595
 -0.594  -0.588  -0.581  -0.578  -0.576  -0.575  -0.563  -0.558
 -0.546  -0.545  -0.541  -0.540  -0.523  -0.522  -0.516  -0.514
 -0.507  -0.504  -0.500  -0.497  -0.488  -0.482  -0.479  -0.472
 -0.471  -0.469  -0.466  -0.465  -0.457  -0.455  -0.451  -0.450
 -0.447  -0.441  -0.440  -0.440  -0.438  -0.438  -0.435  -0.433
 -0.427  -0.425  -0.424  -0.420  -0.419  -0.414  -0.412  -0.411
 -0.409  -0.404  -0.403  -0.401  -0.400  -0.400  -0.397  -0.396
 -0.394  -0.391  -0.390  -0.389  -0.388  -0.387  -0.385  -0.381
 -0.376  -0.375  -0.373  -0.372  -0.361  -0.359  -0.359  -0.356
 -0.354  -0.347  -0.345  -0.343  -0.342  -0.341  -0.340  -0.339
 -0.336  -0.334  -0.331  -0.330  -0.323  -0.323  -0.319  -0.315
 -0.312  -0.310  -0.309  -0.308  -0.304  -0.302  -0.300  -0.297
 -0.293  -0.289  -0.289  -0.288  -0.285  -0.283  -0.279  -0.278
 -0.276  -0.271  -0.267  -0.264  -0.257  -0.251  -0.250  -0.249
 -0.243  -0.237  -0.232  -0.227  -0.199  -0.190

          Ground-State Mulliken Net Atomic Charges

     Atom                 Charge (a.u.)
  ----------------------------------------
      1 C                     0.247333
      2 C                    -0.104704
      3 N                    -0.469841
      4 C                    -0.074230
      5 C                     0.095885
      6 C                     0.036402
      7 C                     0.006410
      8 C                     0.058941
      9 C                     0.228623
     10 N                    -0.503490
     11 N                    -0.546787
     12 C                     0.169406
     13 C                     0.306829
     14 S                     0.615214
     15 N                    -0.532434
     16 C                    -0.204823
     17 S                     0.316532
     18 C                    -0.135928
     19 C                    -0.197682
     20 S                     0.254129
     21 C                     0.164489
     22 C                     0.006174
     23 C                    -0.313531
     24 C                    -0.067471
     25 N                    -0.440815
     26 S                     0.290434
     27 C                     0.147420
     28 C                    -0.319334
     29 C                    -0.238541
     30 H                     0.094653
     31 H                     0.103109
     32 H                     0.111480
     33 H                     0.122016
     34 H                     0.135191
     35 H                     0.106922
     36 H                     0.134617
     37 H                     0.142336
     38 H                     0.097997
     39 C                    -0.176923
     40 H                     0.114322
     41 H                     0.110421
     42 H                     0.094840
     43 C                    -0.174287
     44 H                     0.091193
     45 C                    -0.169657
     46 H                     0.087833
     47 H                     0.091290
     48 H                     0.086949
     49 C                    -0.182397
     50 H                     0.085351
     51 C                    -0.311247
     52 H                     0.092247
     53 H                     0.103236
     54 H                     0.105324
     55 H                     0.104130
     56 C                     0.278633
     57 C                    -0.114289
     58 N                    -0.475191
     59 C                    -0.073211
     60 C                     0.089065
     61 C                     0.016083
     62 C                     0.033317
     63 C                     0.050051
     64 C                     0.235365
     65 N                    -0.517987
     66 N                    -0.562253
     67 C                     0.229437
     68 C                     0.322114
     69 S                     0.642273
     70 N                    -0.587797
     71 C                    -0.237874
     72 S                     0.347836
     73 C                    -0.099566
     74 C                    -0.214937
     75 S                     0.279436
     76 C                     0.149113
     77 C                     0.064478
     78 C                    -0.307653
     79 C                    -0.105518
     80 N                    -0.428329
     81 S                     0.264887
     82 C                     0.114424
     83 C                    -0.314090
     84 C                    -0.227382
     85 H                     0.087268
     86 H                     0.106255
     87 H                     0.123236
     88 H                     0.106501
     89 H                     0.131914
     90 H                     0.102153
     91 H                     0.116075
     92 H                     0.141772
     93 H                     0.117858
     94 C                    -0.190485
     95 H                     0.096218
     96 H                     0.084922
     97 H                     0.090315
     98 C                    -0.168483
     99 H                     0.086499
    100 C                    -0.172518
    101 H                     0.107812
    102 H                     0.083405
    103 H                     0.115925
    104 C                    -0.179531
    105 H                     0.091327
    106 C                    -0.313540
    107 H                     0.096927
    108 H                     0.095128
    109 H                     0.104533
    110 H                     0.092520
  ----------------------------------------
  Sum of atomic charges =     0.000000

                    Cartesian Multipole Moments
 -----------------------------------------------------------------
    Charge (ESU x 10^10)
                 0.0000
    Dipole Moment (Debye)
         X      -3.2573      Y      -0.5323      Z      -2.4667
       Tot       4.1204
    Quadrupole Moments (Debye-Ang)
        XX    -400.5157     XY      33.0110     YY    -425.9613
        XZ      -0.9268     YZ      -6.8853     ZZ    -439.2872

 Total job time:  83.89s(wall), 917.15s(cpu)
        *  Thank you very much for using Q-Chem.  Have a nice day.  *
