 Q-Chem 4.4, Q-Chem, Inc., Pleasanton, CA (2016)
 Q-Chem 4.4.2 for Intel X86 Linux

User input:
--------------------------------------------------------------
$comment
SP
$end

$rem
MEM_STATIC 5000
MEM_TOTAL 20000
JOBTYPE SP
EXCHANGE B3LYP
BASIS 6-31g(d,p)
$end

$molecule
0 1
C         -13.246000     -6.111000     -9.388000
C         -12.314000     -6.586000     -8.447000
N         -13.814000     -6.921000    -10.326000
C         -12.095000     -8.006000     -8.445000
C         -13.580000     -8.217000    -10.334000
C         -12.667000     -8.853000     -9.432000
C         -12.452000    -10.337000     -9.467000
C         -12.062000    -10.889000    -10.730000
C         -12.600000    -11.253000     -8.416000
N         -11.769000    -12.194000    -10.950000
N         -12.882000    -10.945000     -7.167000
C         -12.370000    -12.593000     -8.670000
C         -11.958000    -13.084000     -9.913000
S         -12.981000    -12.380000     -6.380000
N         -12.612000    -13.361000     -7.595000
C         -11.519000    -14.481000    -10.087000
S         -11.450000    -15.834000     -8.877000
C         -10.809000    -14.953000    -11.160000
C         -10.433000    -16.884000     -9.892000
S         -10.715000    -14.196000    -12.746000
C         -10.264000    -16.240000    -11.065000
C          -9.970000    -18.255000     -9.579000
C          -9.776000    -15.624000    -13.266000
C          -9.726000    -16.631000    -12.316000
N          -9.106000    -18.944000    -10.365000
S         -10.495000    -18.995000     -8.063000
C          -8.906000    -20.175000     -9.848000
C          -9.491000    -20.331000     -8.627000
C         -13.507000     -4.613000     -9.457000
H         -11.775000     -5.948000     -7.753000
H         -11.559000     -8.486000     -7.633000
H         -14.035000     -8.814000    -11.122000
H         -11.918000    -10.240000    -11.593000
H          -9.284000    -15.584000    -14.228000
H          -9.264000    -17.595000    -12.493000
H          -8.200000    -20.888000    -10.254000
H          -9.287000    -21.229000     -8.059000
H         -12.549000     -4.089000     -9.562000
C         -14.168000     -4.045000     -8.161000
H         -14.181000     -4.377000    -10.290000
H         -14.552000     -3.084000     -8.525000
H         -13.467000     -3.769000     -7.363000
C         -15.385000     -4.855000     -7.578000
H         -16.066000     -4.948000     -8.432000
C         -16.102000     -4.139000     -6.403000
H         -15.174000     -5.886000     -7.268000
H         -16.128000     -3.077000     -6.678000
H         -15.431000     -4.218000     -5.539000
C         -17.617000     -4.627000     -6.381000
H         -18.174000     -4.040000     -5.639000
C         -17.758000     -6.181000     -6.028000
H         -18.027000     -4.465000     -7.385000
H         -17.441000     -6.424000     -5.007000
H         -17.349000     -6.908000     -6.741000
H         -18.836000     -6.386000     -6.008000
C          -6.928000    -18.149000     -5.559000
C          -6.845000    -17.050000     -4.727000
N          -7.810000    -19.113000     -5.334000
C          -7.795000    -16.828000     -3.735000
C          -8.809000    -18.939000     -4.418000
C          -8.815000    -17.812000     -3.543000
C          -9.776000    -17.633000     -2.419000
C          -9.398000    -17.091000     -1.160000
C         -11.156000    -17.925000     -2.511000
N         -10.169000    -16.971000     -0.104000
N         -11.788000    -18.330000     -3.634000
C         -11.983000    -17.736000     -1.370000
C         -11.425000    -17.314000     -0.184000
S         -13.389000    -18.446000     -3.203000
N         -13.268000    -18.100000     -1.577000
C         -12.149000    -17.404000      1.088000
S         -13.704000    -18.237000      1.437000
C         -11.599000    -16.969000      2.275000
C         -13.561000    -18.106000      3.169000
S         -10.203000    -15.921000      2.615000
C         -12.454000    -17.323000      3.363000
C         -14.669000    -18.077000      4.093000
C         -10.734000    -16.031000      4.365000
C         -11.949000    -16.781000      4.503000
N         -15.851000    -18.036000      3.541000
S         -14.745000    -18.172000      5.832000
C         -16.889000    -18.028000      4.469000
C         -16.492000    -18.125000      5.777000
C          -5.977000    -18.319000     -6.828000
H          -6.132000    -16.289000     -5.030000
H          -7.656000    -15.939000     -3.127000
H          -9.523000    -19.761000     -4.398000
H          -8.372000    -16.787000     -0.957000
H         -10.044000    -15.663000      5.112000
H         -12.386000    -16.884000      5.490000
H         -17.885000    -18.015000      4.046000
H         -17.103000    -18.086000      6.669000
H          -6.590000    -18.827000     -7.584000
C          -4.851000    -19.347000     -6.647000
H          -5.698000    -17.372000     -7.305000
H          -4.187000    -18.956000     -5.865000
H          -4.191000    -19.327000     -7.523000
C          -5.255000    -20.833000     -6.265000
H          -4.320000    -21.406000     -6.242000
C          -6.205000    -21.545000     -7.298000
H          -5.681000    -20.857000     -5.254000
H          -5.705000    -21.546000     -8.274000
H          -7.132000    -20.974000     -7.435000
C          -6.287000    -23.077000     -6.818000
H          -5.317000    -23.473000     -6.490000
C          -6.940000    -23.949000     -7.872000
H          -6.912000    -23.259000     -5.935000
H          -6.417000    -23.887000     -8.835000
H          -7.978000    -23.660000     -8.077000
H          -6.871000    -24.968000     -7.471000
$end

--------------------------------------------------------------

             Standard Nuclear Orientation (Angstroms)
    I     Atom           X                Y                Z
 ----------------------------------------------------------------
    1      C      -9.2852611209     4.0154762884    -1.3342243096
    2      C      -8.1898004153     3.7755005646    -2.1839933927
    3      N      -9.5192551226     3.2706300337    -0.2166291843
    4      C      -7.2534268122     2.7834920930    -1.7328962105
    5      C      -8.6693892476     2.3414644230     0.1691366285
    6      C      -7.5010319004     1.9894229644    -0.5809813094
    7      C      -6.5517163305     0.9384884869    -0.0869745559
    8      C      -7.1227820668    -0.3432529922     0.2011151965
    9      C      -5.1738844105     1.0619864570     0.1408158124
   10      N      -6.4233336243    -1.4324641671     0.6031909265
   11      N      -4.4472028068     2.1276654664    -0.1249869260
   12      C      -4.4826530281    -0.0352467506     0.6217466432
   13      C      -5.0761934392    -1.2793304612     0.8580504760
   14      S      -2.9305676599     1.7511371295     0.3714395464
   15      N      -3.1897085121     0.2434096033     0.8555373935
   16      C      -4.2707560333    -2.4759523827     1.1645999209
   17      S      -2.4726071696    -2.6448968430     1.3584772875
   18      C      -4.7237799472    -3.7672905521     1.0909245123
   19      C      -2.4837197769    -4.4221551347     1.2676837046
   20      S      -6.4093173322    -4.2714192681     1.1367389356
   21      C      -3.7767620030    -4.7957212455     1.1798420157
   22      C      -1.3234784124    -5.3323217682     1.3996521683
   23      C      -5.8066706243    -5.9531213050     1.1362864025
   24      C      -4.4309429511    -6.0494091775     1.2672482857
   25      N      -1.4061713616    -6.6724262404     1.2091400174
   26      S       0.2635996075    -4.6301328511     1.7307036498
   27      C      -0.2024724423    -7.2382384784     1.4406900617
   28      C       0.7785861662    -6.3150039551     1.6470005595
   29      C     -10.3262344752     5.0389625102    -1.7651958045
   30      H      -8.0322185693     4.2876106692    -3.1285103076
   31      H      -6.2842114717     2.6751527641    -2.2082110676
   32      H      -8.9181241501     1.7555522257     1.0518686633
   33      H      -8.1857204394    -0.5202807887     0.0413366769
   34      H      -6.5235844707    -6.7481998153     0.9846529652
   35      H      -3.9056951170    -6.9924737453     1.3611255128
   36      H       0.0062161181    -8.2885917237     1.2830571180
   37      H       1.8061801809    -6.6475793888     1.7109389821
   38      H     -10.6681530825     4.7942773015    -2.7784015164
   39      C      -9.7620457411     6.4932890515    -1.8412640882
   40      H     -11.1647468274     5.0574480495    -1.0577947019
   41      H     -10.6898227669     7.0786972726    -1.8411935242
   42      H      -9.2787348497     6.7564417302    -2.7907598754
   43      C      -8.8931309054     6.9763350938    -0.6211282231
   44      H      -9.5355881346     6.7830832231     0.2458368415
   45      C      -8.5208738859     8.4814040186    -0.6808127521
   46      H      -7.9749049141     6.4079118229    -0.4278977545
   47      H      -9.4178195922     8.9913502977    -1.0544277846
   48      H      -7.7604996186     8.5795135431    -1.4651490924
   49      C      -8.3095968672     8.9950570355     0.8109565329
   50      H      -8.1699477402    10.0839911225     0.8008236455
   51      C      -7.0488828875     8.3149661393     1.5233346870
   52      H      -9.2090763411     8.7286131320     1.3786750568
   53      H      -6.0915768599     8.5905069341     1.0654903468
   54      H      -7.0878603428     7.2347852862     1.7127260341
   55      H      -6.9871432934     8.7708484715     2.5197625678
   56      C       1.9020442786    -4.5409226074    -2.3944341167
   57      C       1.8302197622    -3.4223206610    -3.2009605728
   58      N       2.6253788815    -4.5385331290    -1.2832967072
   59      C       2.3641496356    -2.2054043962    -2.7887935014
   60      C       3.1287230204    -3.3694992653    -0.7859663308
   61      C       3.0643600454    -2.1614706322    -1.5424808574
   62      C       3.7253974870    -0.8885572136    -1.1404125427
   63      C       4.3610747083    -0.0220397995    -2.0714286764
   64      C       3.7342628097    -0.3915917522     0.1828692626
   65      N       5.0237473905     1.0742758071    -1.7834460260
   66      N       3.0930784842    -0.9599041909     1.2271305483
   67      C       4.4124205212     0.8264171524     0.4623105383
   68      C       5.0845504488     1.4810438026    -0.5455333530
   69      S       3.3676473075     0.0668536462     2.5049405127
   70      N       4.3880726908     1.1617425982     1.7713307935
   71      C       6.0506096364     2.5483090000    -0.2663655818
   72      S       6.7298219616     3.0601173007     1.3180705579
   73      C       6.7144625116     3.2157842843    -1.2735746489
   74      C       7.9713696313     4.0721612895     0.6312224315
   75      S       6.4067101319     3.3215255136    -3.0219531162
   76      C       7.7009677202     4.0823782083    -0.7115182065
   77      C       8.5657814847     5.2139980906     1.2832686480
   78      C       7.7639244667     4.5520981341    -3.0368284308
   79      C       8.2564283644     4.8124609328    -1.7149282365
   80      N       8.0260898408     5.5444050346     2.4247909565
   81      S       9.9412049289     6.2064810494     0.8806398790
   82      C       8.6426824212     6.6385236105     3.0259649179
   83      C       9.7299034112     7.1287273215     2.3510331877
   84      C       1.1243237639    -5.8872722733    -2.7496177003
   85      H       1.1653602147    -3.5059548004    -4.0555166638
   86      H       2.2624176571    -1.3764010356    -3.4828468369
   87      H       3.6180828458    -3.4875320056     0.1796812413
   88      H       4.4005149781    -0.2595924409    -3.1336500317
   89      H       8.1482064010     4.8482609566    -4.0033417404
   90      H       9.0374038927     5.5540276528    -1.5888210444
   91      H       8.2338252624     6.9281215859     3.9851744030
   92      H      10.3331594296     7.9949354090     2.5882498090
   93      H       0.8297930728    -6.3159287683    -1.7827287298
   94      C       2.0155845872    -7.0134033055    -3.2926683823
   95      H       0.1726333778    -5.7273167988    -3.2700777422
   96      H       2.4095047167    -6.6689169426    -4.2577886221
   97      H       1.3902606707    -7.8598131942    -3.6024042368
   98      C       3.2334272677    -7.4953485874    -2.3971663159
   99      H       3.6955726011    -8.3311057447    -2.9366240666
  100      C       2.8335688954    -8.0325803676    -0.9730777314
  101      H       3.9824590958    -6.6968540376    -2.3227971389
  102      H       2.1331533182    -8.8653614481    -1.1089846525
  103      H       2.2868138378    -7.2685661406    -0.4060855199
  104      C       4.1811778324    -8.6564985266    -0.3575907018
  105      H       4.7632891112    -9.2241476664    -1.0953040020
  106      C       3.8924101649    -9.4620633909     0.8935637586
  107      H       4.9192660191    -7.9246288734    -0.0068334645
  108      H       3.1629936494   -10.2605500639     0.7061802487
  109      H       3.4673811038    -8.8529980617     1.7006447471
  110      H       4.8606496836    -9.8949723361     1.1746777560
 ----------------------------------------------------------------

   10   -5663.5019882386      7.05E-06 Convergence criterion met
 Total energy in the final basis set = -5663.5019882386

                    Orbital Energies (a.u.)
 --------------------------------------------------------------

 Alpha MOs
 -- Occupied --
-88.991 -88.989 -88.929 -88.928 -88.921 -88.920 -88.916 -88.902
-14.394 -14.388 -14.384 -14.376 -14.352 -14.351 -14.346 -14.336
-14.333 -14.326 -10.275 -10.269 -10.264 -10.260 -10.259 -10.256
-10.250 -10.249 -10.243 -10.242 -10.242 -10.240 -10.240 -10.238
-10.236 -10.234 -10.233 -10.232 -10.231 -10.230 -10.230 -10.229
-10.228 -10.225 -10.225 -10.225 -10.223 -10.222 -10.219 -10.217
-10.213 -10.211 -10.205 -10.202 -10.202 -10.201 -10.199 -10.189
-10.189 -10.188 -10.186 -10.183 -10.182 -10.180 -10.177 -10.177
-10.177 -10.173 -10.172 -10.171  -8.046  -8.045  -7.989  -7.989
 -7.980  -7.979  -7.974  -7.961  -6.012  -6.010  -6.006  -6.004
 -6.004  -6.003  -5.953  -5.953  -5.950  -5.949  -5.947  -5.946
 -5.944  -5.943  -5.940  -5.939  -5.938  -5.936  -5.935  -5.935
 -5.930  -5.926  -5.922  -5.918  -1.048  -1.033  -0.982  -0.970
 -0.964  -0.950  -0.942  -0.935  -0.913  -0.912  -0.907  -0.905
 -0.837  -0.836  -0.834  -0.827  -0.814  -0.809  -0.803  -0.801
 -0.801  -0.800  -0.795  -0.791  -0.781  -0.778  -0.768  -0.760
 -0.752  -0.744  -0.743  -0.732  -0.719  -0.714  -0.707  -0.704
 -0.696  -0.691  -0.682  -0.675  -0.656  -0.651  -0.648  -0.643
 -0.638  -0.635  -0.630  -0.625  -0.615  -0.612  -0.602  -0.597
 -0.594  -0.585  -0.584  -0.578  -0.577  -0.575  -0.563  -0.561
 -0.552  -0.549  -0.546  -0.537  -0.522  -0.520  -0.518  -0.511
 -0.504  -0.501  -0.496  -0.496  -0.490  -0.489  -0.483  -0.478
 -0.474  -0.473  -0.469  -0.468  -0.460  -0.455  -0.451  -0.447
 -0.442  -0.441  -0.439  -0.437  -0.434  -0.432  -0.431  -0.430
 -0.428  -0.427  -0.421  -0.419  -0.417  -0.416  -0.415  -0.413
 -0.409  -0.407  -0.404  -0.402  -0.401  -0.399  -0.398  -0.396
 -0.395  -0.394  -0.391  -0.391  -0.387  -0.386  -0.385  -0.380
 -0.379  -0.375  -0.372  -0.372  -0.363  -0.362  -0.357  -0.356
 -0.352  -0.350  -0.348  -0.347  -0.346  -0.345  -0.342  -0.337
 -0.336  -0.331  -0.330  -0.329  -0.327  -0.325  -0.320  -0.318
 -0.316  -0.316  -0.310  -0.309  -0.305  -0.303  -0.301  -0.297
 -0.295  -0.294  -0.290  -0.288  -0.287  -0.282  -0.282  -0.281
 -0.276  -0.271  -0.271  -0.261  -0.257  -0.254  -0.247  -0.246
 -0.244  -0.242  -0.229  -0.228  -0.199  -0.192

          Ground-State Mulliken Net Atomic Charges

     Atom                 Charge (a.u.)
  ----------------------------------------
      1 C                     0.281148
      2 C                    -0.111159
      3 N                    -0.477933
      4 C                    -0.083162
      5 C                     0.087484
      6 C                     0.025156
      7 C                    -0.006444
      8 C                     0.067542
      9 C                     0.274309
     10 N                    -0.528813
     11 N                    -0.572275
     12 C                     0.198275
     13 C                     0.310259
     14 S                     0.597752
     15 N                    -0.547002
     16 C                    -0.222763
     17 S                     0.303642
     18 C                    -0.130469
     19 C                    -0.254296
     20 S                     0.286175
     21 C                     0.190584
     22 C                     0.063732
     23 C                    -0.313091
     24 C                    -0.061371
     25 N                    -0.440995
     26 S                     0.293572
     27 C                     0.130486
     28 C                    -0.296831
     29 C                    -0.234431
     30 H                     0.097652
     31 H                     0.106679
     32 H                     0.099906
     33 H                     0.120789
     34 H                     0.126020
     35 H                     0.125186
     36 H                     0.121976
     37 H                     0.126616
     38 H                     0.110446
     39 C                    -0.197184
     40 H                     0.116367
     41 H                     0.097456
     42 H                     0.086820
     43 C                    -0.174075
     44 H                     0.094003
     45 C                    -0.178193
     46 H                     0.105134
     47 H                     0.086782
     48 H                     0.092974
     49 C                    -0.179159
     50 H                     0.092852
     51 C                    -0.328364
     52 H                     0.103824
     53 H                     0.104773
     54 H                     0.113525
     55 H                     0.097192
     56 C                     0.282972
     57 C                    -0.114057
     58 N                    -0.479137
     59 C                    -0.072916
     60 C                     0.089646
     61 C                     0.016280
     62 C                     0.031974
     63 C                     0.050370
     64 C                     0.235332
     65 N                    -0.515108
     66 N                    -0.561208
     67 C                     0.223199
     68 C                     0.321199
     69 S                     0.603978
     70 N                    -0.570735
     71 C                    -0.229980
     72 S                     0.357193
     73 C                    -0.099823
     74 C                    -0.217374
     75 S                     0.276561
     76 C                     0.149619
     77 C                     0.063824
     78 C                    -0.307993
     79 C                    -0.104594
     80 N                    -0.421268
     81 S                     0.263262
     82 C                     0.116022
     83 C                    -0.313693
     84 C                    -0.233737
     85 H                     0.090029
     86 H                     0.106401
     87 H                     0.118882
     88 H                     0.108466
     89 H                     0.131174
     90 H                     0.102460
     91 H                     0.117531
     92 H                     0.141561
     93 H                     0.127034
     94 C                    -0.191347
     95 H                     0.100564
     96 H                     0.085233
     97 H                     0.092200
     98 C                    -0.168755
     99 H                     0.087452
    100 C                    -0.182477
    101 H                     0.107286
    102 H                     0.083734
    103 H                     0.117927
    104 C                    -0.180100
    105 H                     0.094637
    106 C                    -0.317967
    107 H                     0.096058
    108 H                     0.097115
    109 H                     0.098806
    110 H                     0.097212
  ----------------------------------------
  Sum of atomic charges =     0.000000

                    Cartesian Multipole Moments
 -----------------------------------------------------------------
    Charge (ESU x 10^10)
                 0.0000
    Dipole Moment (Debye)
         X       3.3813      Y       1.7742      Z      -2.6860
       Tot       4.6686
    Quadrupole Moments (Debye-Ang)
        XX    -443.5503     XY      13.5984     YY    -415.3573
        XZ      12.2951     YZ      -0.2226     ZZ    -430.3702

 Total job time:  94.98s(wall), 1044.61s(cpu)
        *  Thank you very much for using Q-Chem.  Have a nice day.  *
