 Q-Chem 4.4, Q-Chem, Inc., Pleasanton, CA (2016)
 Q-Chem 4.4.2 for Intel X86 Linux

User input:
--------------------------------------------------------------
$comment
SP
$end

$rem
MEM_STATIC 5000
MEM_TOTAL 20000
JOBTYPE SP
EXCHANGE B3LYP
BASIS 6-31g(d,p)
$end

$molecule
0 1
C          19.197000     20.020000    -10.109000
C          18.072000     19.329000     -9.558000
N          19.108000     21.012000    -10.907000
C          16.744000     19.731000     -9.853000
C          17.876000     21.460000    -11.163000
C          16.666000     20.927000    -10.512000
C          15.315000     21.573000    -10.831000
C          15.116000     22.226000    -12.151000
C          14.141000     21.538000    -10.058000
N          13.937000     22.760000    -12.495000
N          14.027000     20.983000     -8.779000
C          12.963000     22.186000    -10.439000
C          12.855000     22.887000    -11.700000
S          12.479000     21.408000     -8.300000
N          11.920000     22.160000     -9.532000
C          11.673000     23.735000    -12.116000
S          10.261000     24.236000    -11.166000
C          11.672000     24.458000    -13.292000
C           9.562000     25.269000    -12.492000
S          12.740000     24.445000    -14.669000
C          10.491000     25.183000    -13.488000
C           8.229000     25.816000    -12.618000
C          11.643000     25.655000    -15.472000
C          10.568000     25.917000    -14.665000
N           7.684000     25.889000    -13.845000
S           7.279000     26.626000    -11.295000
C           6.527000     26.616000    -13.802000
C           6.132000     27.044000    -12.555000
C          20.639000     19.592000     -9.875000
H          18.267000     18.399000     -9.034000
H          15.890000     19.256000     -9.379000
H          17.839000     22.381000    -11.743000
H          15.907000     22.326000    -12.892000
H          11.900000     25.996000    -16.466000
H           9.859000     26.686000    -14.951000
H           6.039000     26.880000    -14.731000
H           5.279000     27.661000    -12.308000
H          21.337000     20.272000    -10.379000
C          20.930000     18.087000    -10.177000
H          20.946000     19.731000     -8.831000
H          20.505000     17.415000     -9.421000
H          22.013000     17.920000    -10.135000
C          20.543000     17.620000    -11.622000
H          20.735000     16.540000    -11.639000
C          21.363000     18.310000    -12.803000
H          19.476000     17.754000    -11.837000
H          22.448000     18.332000    -12.645000
H          21.045000     19.359000    -12.833000
C          21.085000     17.561000    -14.158000
H          21.882000     17.840000    -14.858000
C          19.901000     18.128000    -14.823000
H          21.151000     16.477000    -14.005000
H          19.007000     18.048000    -14.193000
H          19.679000     17.648000    -15.784000
H          19.859000     19.216000    -14.962000
C           0.771000     12.829000    -14.012000
C           1.787000     13.344000    -14.808000
N           0.872000     12.777000    -12.697000
C           3.057000     13.631000    -14.316000
C           2.129000     12.986000    -12.204000
C           3.300000     13.387000    -12.950000
C           4.677000     13.669000    -12.335000
C           5.859000     13.254000    -12.995000
C           4.799000     14.222000    -11.076000
N           7.108000     13.447000    -12.516000
N           3.787000     14.640000    -10.335000
C           6.100000     14.322000    -10.573000
C           7.258000     13.932000    -11.272000
S           4.413000     14.988000     -8.934000
N           6.035000     14.721000     -9.295000
C           8.652000     14.072000    -10.711000
S           9.102000     15.425000     -9.598000
C           9.759000     13.534000    -11.283000
C          10.865000     15.266000    -10.053000
S           9.864000     12.325000    -12.540000
C          10.971000     14.184000    -10.946000
C          11.961000     16.000000     -9.550000
C          11.660000     12.458000    -12.416000
C          12.055000     13.526000    -11.591000
N          13.072000     16.014000    -10.317000
S          11.827000     17.321000     -8.404000
C          13.935000     16.913000     -9.736000
C          13.532000     17.463000     -8.587000
C          -0.612000     12.612000    -14.556000
H           1.542000     13.443000    -15.862000
H           3.931000     13.868000    -14.915000
H           2.191000     12.961000    -11.117000
H           5.877000     12.821000    -13.994000
H          12.324000     11.859000    -13.025000
H          13.049000     13.926000    -11.428000
H          14.939000     16.990000    -10.132000
H          14.097000     18.242000     -8.094000
H          -0.465000     12.401000    -15.622000
C          -1.531000     13.827000    -14.341000
H          -1.046000     11.683000    -14.165000
H          -1.624000     14.090000    -13.280000
H          -2.568000     13.528000    -14.536000
C          -1.184000     15.064000    -15.240000
H          -0.335000     15.541000    -14.735000
C          -2.310000     16.099000    -15.379000
H          -0.733000     14.747000    -16.188000
H          -3.075000     15.665000    -16.035000
H          -1.851000     16.918000    -15.945000
C          -3.070000     16.615000    -14.115000
H          -3.433000     15.754000    -13.540000
C          -4.325000     17.432000    -14.521000
H          -2.494000     17.367000    -13.561000
H          -4.021000     18.268000    -15.163000
H          -4.792000     17.783000    -13.593000
H          -5.018000     16.787000    -15.075000
$end

--------------------------------------------------------------

             Standard Nuclear Orientation (Angstroms)
    I     Atom           X                Y                Z
 ----------------------------------------------------------------
    1      C      -9.2958339538    -2.2615911315    -0.3021543511
    2      C      -8.0574250816    -2.5805333045    -0.9435016484
    3      N      -9.5066045037    -1.1882590343     0.3553583746
    4      C      -6.9582826326    -1.6844573414    -0.9096380212
    5      C      -8.5172623337    -0.2909107174     0.3610212951
    6      C      -7.2711973388    -0.4504258580    -0.4096063377
    7      C      -6.2409904951     0.6819408611    -0.3831966319
    8      C      -6.1671178201     1.5687836780     0.8069557307
    9      C      -5.2298380172     0.9468878996    -1.3236240524
   10      N      -5.2498793162     2.5403655643     0.8977035413
   11      N      -5.0488840453     0.2695742042    -2.5341461786
   12      C      -4.3528929242     2.0288415307    -1.2092009595
   13      C      -4.3870861788     2.9173322478    -0.0678854611
   14      S      -3.8376182944     1.1397777786    -3.2970033210
   15      N      -3.4796581259     2.2329608179    -2.2613275221
   16      C      -3.5786865675     4.1901137355     0.0578179725
   17      S      -2.5707905622     5.0042242159    -1.1540461982
   18      C      -3.7285190345     5.0463637718     1.1302414463
   19      C      -2.1809028290     6.4212798760    -0.0798456527
   20      S      -4.5605215332     4.8741128331     2.6517615599
   21      C      -2.8974877005     6.1699241038     1.0540764776
   22      C      -1.1499602827     7.4247437974    -0.2288141882
   23      C      -3.9269503544     6.5118549389     3.1299940936
   24      C      -3.1230868873     7.0083200220     2.1386092301
   25      N      -0.5477077879     7.8884895093     0.8802912384
   26      S      -0.7232146036     8.2952093696    -1.7680044990
   27      C       0.2353776484     8.9662329859     0.5732518306
   28      C       0.3049322349     9.2982024555    -0.7606058945
   29      C     -10.4834844927    -3.2126879774    -0.2551970623
   30      H      -7.9388130688    -3.5904269028    -1.3223777632
   31      H      -6.0428546728    -1.8901627778    -1.4567156425
   32      H      -8.7718043470     0.6628961640     0.8208808352
   33      H      -6.8542506892     1.4963822642     1.6480077240
   34      H      -4.1880965145     6.8945768514     4.1075894192
   35      H      -2.7331524918     8.0168170818     2.2206022025
   36      H       0.6814208647     9.5362094319     1.3776480639
   37      H       0.8288816238    10.1320415622    -1.2072560730
   38      H     -11.3301634153    -2.7575819929     0.2736066300
   39      C     -10.1480597001    -4.6504620181     0.2558861173
   40      H     -10.9281855177    -3.3660756545    -1.2462667969
   41      H      -9.5818501079    -5.2377617991    -0.4777559379
   42      H     -11.0845858870    -5.2011108371     0.4050389904
   43      C      -9.4631867054    -4.7040222026     1.6644184341
   44      H      -9.2280151378    -5.7623063479     1.8325909690
   45      C     -10.3546292297    -4.1732371253     2.8755577438
   46      H      -8.5106562698    -4.1612165321     1.6912097256
   47      H     -11.3769161746    -4.5699643066     2.8900472519
   48      H     -10.4572762465    -3.0903291200     2.7369978575
   49      C      -9.6723887079    -4.5397599020     4.2446884624
   50      H     -10.4372792388    -4.4566264569     5.0264053588
   51      C      -8.7293311413    -3.4836864891     4.6458385249
   52      H      -9.3377526530    -5.5840355375     4.2265747192
   53      H      -7.9434418335    -3.3376719682     3.8951097085
   54      H      -8.2420749435    -3.6876509063     5.6071838917
   55      H      -9.0890177518    -2.4466740931     4.6535736838
   56      C      10.7806371071    -1.5860204586     1.4125701190
   57      C       9.7349711266    -1.3494360476     2.2967123437
   58      N      10.5692862425    -1.8847765119     0.1444196418
   59      C       8.4069495031    -1.6239923382     1.9831674332
   60      C       9.2827107442    -2.2264424093    -0.1634226908
   61      C       8.1325769790    -2.1585899463     0.7090143359
   62      C       6.6951679317    -2.4963840231     0.2923269322
   63      C       5.8355612639    -3.1959223578     1.1736166092
   64      C       6.2407982305    -2.2379574333    -0.9853811222
   65      N       4.5638833030    -3.5471135554     0.8800337308
   66      N       6.9344875648    -1.6101679123    -1.9195248075
   67      C       4.9540933228    -2.6972199188    -1.2838412533
   68      C       4.1111597073    -3.3587825846    -0.3708994374
   69      S       6.0797141746    -1.7448744628    -3.2336776131
   70      N       4.7280601119    -2.5159086538    -2.5925601738
   71      C       2.7176916828    -3.8243019668    -0.7160016967
   72      S       1.6735675829    -2.9255985629    -1.8881855799
   73      C       1.9644528209    -4.6241225100     0.0808642366
   74      C       0.1612022310    -3.6329403348    -1.1446173853
   75      S       2.4589128862    -5.5671618922     1.4661226844
   76      C       0.5682779398    -4.5191067674    -0.1305131397
   77      C      -1.1776764015    -3.4360516861    -1.5466371204
   78      C       0.7445268557    -6.1127205703     1.6142012687
   79      C      -0.1106038011    -5.4089277035     0.7477711444
   80      N      -2.1235806532    -3.6985518285    -0.6197256781
   81      S      -1.6763153380    -2.3615863802    -2.8401580972
   82      C      -3.3191059210    -3.2788627082    -1.1536838939
   83      C      -3.2781950993    -2.8159756236    -2.4063497917
   84      C      12.1914289676    -1.1979554098     1.7513707155
   85      H      10.0334101562    -0.9981953768     3.2807378194
   86      H       7.5766021231    -1.6236711841     2.6827166634
   87      H       9.1209315089    -2.4491363021    -1.2171175751
   88      H       6.0883685681    -3.4370434435     2.2050055218
   89      H       0.4255314904    -6.8028201698     2.3839950720
   90      H      -1.1932240676    -5.4265203875     0.7005603829
   91      H      -4.2295687418    -3.5054734442    -0.6147348923
   92      H      -4.1450075241    -2.3847002226    -2.8877568425
   93      H      12.2484527619    -1.2707696766     2.8440428389
   94      C      12.5524629614     0.2140852095     1.2586164718
   95      H      12.9018178010    -1.9584692240     1.4031689866
   96      H      12.4265937861     0.3160034594     0.1735779374
   97      H      13.6396423858     0.3451570980     1.3190818266
   98      C      11.8585616066     1.3717199572     2.0568405637
   99      H      10.8440478563     1.4213054700     1.6425241057
  100      C      12.5153969118     2.7508461057     1.8987252624
  101      H      11.6639725390     1.0727088115     3.0938176268
  102      H      13.4522540498     2.7351092513     2.4696613835
  103      H      11.8421720335     3.4298839841     2.4348911164
  104      C      12.8852738348     3.2924424480     0.4804811142
  105      H      13.4852491544     2.5387558044    -0.0445913180
  106      C      13.7714881969     4.5614394215     0.5882808615
  107      H      12.0121840466     3.6850019081    -0.0559956254
  108      H      13.2422768840     5.3243700400     1.1725310285
  109      H      13.9699836912     4.9007070045    -0.4354237081
  110      H      14.7115163800     4.3093248123     1.0942208173
 ----------------------------------------------------------------

    9   -5663.4773094163      7.58E-06 Convergence criterion met
 Total energy in the final basis set = -5663.4773094163

                    Orbital Energies (a.u.)
 --------------------------------------------------------------

 Alpha MOs
 -- Occupied --
-88.995 -88.990 -88.933 -88.928 -88.926 -88.924 -88.910 -88.905
-14.393 -14.387 -14.383 -14.381 -14.354 -14.351 -14.351 -14.344
-14.332 -14.328 -10.281 -10.274 -10.269 -10.267 -10.263 -10.261
-10.254 -10.253 -10.252 -10.250 -10.246 -10.245 -10.244 -10.243
-10.238 -10.236 -10.235 -10.233 -10.229 -10.229 -10.228 -10.228
-10.228 -10.227 -10.226 -10.225 -10.222 -10.221 -10.220 -10.218
-10.216 -10.211 -10.210 -10.207 -10.205 -10.195 -10.195 -10.192
-10.186 -10.184 -10.182 -10.181 -10.179 -10.179 -10.178 -10.178
-10.176 -10.174 -10.172 -10.164  -8.051  -8.046  -7.993  -7.990
 -7.984  -7.982  -7.969  -7.965  -6.016  -6.011  -6.010  -6.009
 -6.005  -6.003  -5.956  -5.953  -5.953  -5.950  -5.950  -5.949
 -5.947  -5.946  -5.945  -5.943  -5.941  -5.938  -5.934  -5.930
 -5.929  -5.925  -5.925  -5.921  -1.050  -1.045  -0.972  -0.966
 -0.964  -0.963  -0.955  -0.941  -0.914  -0.910  -0.903  -0.903
 -0.839  -0.838  -0.833  -0.832  -0.813  -0.810  -0.806  -0.806
 -0.802  -0.801  -0.799  -0.798  -0.782  -0.780  -0.769  -0.766
 -0.746  -0.746  -0.739  -0.738  -0.719  -0.718  -0.709  -0.706
 -0.694  -0.691  -0.679  -0.677  -0.656  -0.653  -0.647  -0.646
 -0.637  -0.636  -0.629  -0.629  -0.616  -0.614  -0.599  -0.599
 -0.591  -0.586  -0.585  -0.583  -0.580  -0.577  -0.559  -0.558
 -0.557  -0.552  -0.541  -0.537  -0.525  -0.525  -0.514  -0.512
 -0.506  -0.503  -0.500  -0.497  -0.491  -0.487  -0.478  -0.478
 -0.476  -0.472  -0.467  -0.466  -0.464  -0.457  -0.453  -0.448
 -0.445  -0.442  -0.439  -0.435  -0.435  -0.434  -0.434  -0.430
 -0.429  -0.428  -0.424  -0.423  -0.422  -0.419  -0.418  -0.415
 -0.412  -0.411  -0.408  -0.404  -0.402  -0.400  -0.399  -0.397
 -0.396  -0.395  -0.393  -0.392  -0.389  -0.387  -0.385  -0.382
 -0.381  -0.379  -0.374  -0.373  -0.365  -0.362  -0.357  -0.355
 -0.354  -0.353  -0.350  -0.349  -0.345  -0.344  -0.342  -0.341
 -0.338  -0.337  -0.331  -0.330  -0.329  -0.326  -0.320  -0.319
 -0.317  -0.312  -0.310  -0.306  -0.305  -0.303  -0.302  -0.301
 -0.301  -0.297  -0.294  -0.293  -0.290  -0.289  -0.286  -0.284
 -0.278  -0.267  -0.263  -0.262  -0.260  -0.253  -0.253  -0.252
 -0.245  -0.244  -0.233  -0.231  -0.198  -0.193

          Ground-State Mulliken Net Atomic Charges

     Atom                 Charge (a.u.)
  ----------------------------------------
      1 C                     0.298034
      2 C                    -0.127648
      3 N                    -0.458211
      4 C                    -0.062938
      5 C                     0.063035
      6 C                     0.024552
      7 C                    -0.006894
      8 C                     0.079129
      9 C                     0.257621
     10 N                    -0.529824
     11 N                    -0.590038
     12 C                     0.118963
     13 C                     0.334665
     14 S                     0.617956
     15 N                    -0.504926
     16 C                    -0.211250
     17 S                     0.305011
     18 C                    -0.108808
     19 C                    -0.234386
     20 S                     0.267387
     21 C                     0.172346
     22 C                     0.036491
     23 C                    -0.320369
     24 C                    -0.030158
     25 N                    -0.412710
     26 S                     0.267933
     27 C                     0.124898
     28 C                    -0.303093
     29 C                    -0.236754
     30 H                     0.091237
     31 H                     0.124250
     32 H                     0.104873
     33 H                     0.126628
     34 H                     0.131754
     35 H                     0.109014
     36 H                     0.117407
     37 H                     0.135755
     38 H                     0.121818
     39 C                    -0.193285
     40 H                     0.103569
     41 H                     0.089662
     42 H                     0.097800
     43 C                    -0.175728
     44 H                     0.085906
     45 C                    -0.189408
     46 H                     0.097357
     47 H                     0.083460
     48 H                     0.109734
     49 C                    -0.167501
     50 H                     0.091178
     51 C                    -0.314227
     52 H                     0.095571
     53 H                     0.095634
     54 H                     0.094893
     55 H                     0.106670
     56 C                     0.274104
     57 C                    -0.109423
     58 N                    -0.466570
     59 C                    -0.077873
     60 C                     0.072886
     61 C                     0.032430
     62 C                     0.019008
     63 C                     0.046012
     64 C                     0.237754
     65 N                    -0.511843
     66 N                    -0.536722
     67 C                     0.223956
     68 C                     0.303162
     69 S                     0.601892
     70 N                    -0.575717
     71 C                    -0.213357
     72 S                     0.300012
     73 C                    -0.105039
     74 C                    -0.223751
     75 S                     0.285524
     76 C                     0.159514
     77 C                     0.047919
     78 C                    -0.315419
     79 C                    -0.052074
     80 N                    -0.433828
     81 S                     0.269897
     82 C                     0.115087
     83 C                    -0.297722
     84 C                    -0.231723
     85 H                     0.084364
     86 H                     0.099136
     87 H                     0.107814
     88 H                     0.115912
     89 H                     0.129807
     90 H                     0.126504
     91 H                     0.110918
     92 H                     0.139278
     93 H                     0.087982
     94 C                    -0.172579
     95 H                     0.110712
     96 H                     0.118688
     97 H                     0.086349
     98 C                    -0.184217
     99 H                     0.100759
    100 C                    -0.174138
    101 H                     0.085576
    102 H                     0.088483
    103 H                     0.087597
    104 C                    -0.177450
    105 H                     0.101167
    106 C                    -0.317158
    107 H                     0.098632
    108 H                     0.102996
    109 H                     0.100084
    110 H                     0.100652
  ----------------------------------------
  Sum of atomic charges =     0.000000

                    Cartesian Multipole Moments
 -----------------------------------------------------------------
    Charge (ESU x 10^10)
                 0.0000
    Dipole Moment (Debye)
         X      -0.3065      Y       2.6767      Z      -0.5973
       Tot       2.7596
    Quadrupole Moments (Debye-Ang)
        XX    -452.1578     XY      21.8711     YY    -409.3853
        XZ      14.8481     YZ      -5.5388     ZZ    -430.6144

 Total job time:  82.89s(wall), 907.19s(cpu)
        *  Thank you very much for using Q-Chem.  Have a nice day.  *
