 Q-Chem 4.4, Q-Chem, Inc., Pleasanton, CA (2016)
 Q-Chem 4.4.2 for Intel X86 Linux

User input:
--------------------------------------------------------------
$comment
SP
$end

$rem
MEM_STATIC 5000
MEM_TOTAL 20000
JOBTYPE SP
EXCHANGE B3LYP
BASIS 6-31g(d,p)
$end

$molecule
0 1
C          -9.056000    -14.605000     -5.948000
C          -8.477000    -13.823000     -4.944000
N         -10.335000    -14.866000     -5.999000
C          -9.178000    -13.535000     -3.737000
C         -11.004000    -14.704000     -4.826000
C         -10.498000    -14.000000     -3.671000
C         -11.219000    -13.931000     -2.410000
C         -10.531000    -13.887000     -1.140000
C         -12.569000    -13.637000     -2.360000
N         -11.110000    -13.906000      0.062000
N         -13.347000    -13.442000     -3.444000
C         -13.220000    -13.577000     -1.138000
C         -12.469000    -13.771000      0.072000
S         -14.814000    -13.069000     -2.789000
N         -14.529000    -13.214000     -1.183000
C         -13.083000    -13.708000      1.399000
S         -14.672000    -14.354000      1.851000
C         -12.506000    -12.997000      2.490000
C         -14.375000    -13.807000      3.512000
S         -10.909000    -12.255000      2.649000
C         -13.268000    -13.036000      3.625000
C         -15.340000    -14.099000      4.543000
C         -11.331000    -12.018000      4.357000
C         -12.637000    -12.393000      4.737000
N         -15.038000    -13.933000      5.775000
S         -16.977000    -14.788000      4.319000
C         -15.825000    -14.613000      6.593000
C         -16.840000    -15.260000      6.004000
C          -8.250000    -14.972000     -7.144000
H          -7.444000    -13.504000     -5.053000
H          -8.685000    -12.980000     -2.944000
H         -11.962000    -15.220000     -4.794000
H          -9.447000    -13.985000     -1.090000
H         -10.565000    -11.567000      4.974000
H         -13.015000    -12.322000      5.751000
H         -15.751000    -14.475000      7.664000
H         -17.713000    -15.833000      6.287000
H          -7.229000    -15.086000     -6.761000
C          -8.274000    -14.038000     -8.341000
H          -8.398000    -16.023000     -7.423000
H          -9.306000    -13.981000     -8.709000
H          -7.690000    -14.575000     -9.098000
C          -7.763000    -12.580000     -8.190000
H          -6.907000    -12.596000     -7.505000
C          -8.792000    -11.625000     -7.514000
H          -7.526000    -12.207000     -9.194000
H          -8.908000    -11.855000     -6.448000
H          -9.774000    -11.903000     -7.916000
C          -8.604000    -10.026000     -7.706000
H          -8.703000     -9.885000     -8.790000
C          -7.187000     -9.708000     -7.175000
H          -9.473000     -9.526000     -7.261000
H          -7.103000     -8.635000     -7.388000
H          -6.338000    -10.152000     -7.711000
H          -7.171000     -9.849000     -6.087000
C          -6.928000    -18.149000     -5.559000
C          -6.845000    -17.050000     -4.727000
N          -7.810000    -19.113000     -5.334000
C          -7.795000    -16.828000     -3.735000
C          -8.809000    -18.939000     -4.418000
C          -8.815000    -17.812000     -3.543000
C          -9.776000    -17.633000     -2.419000
C          -9.398000    -17.091000     -1.160000
C         -11.156000    -17.925000     -2.511000
N         -10.169000    -16.971000     -0.104000
N         -11.788000    -18.330000     -3.634000
C         -11.983000    -17.736000     -1.370000
C         -11.425000    -17.314000     -0.184000
S         -13.389000    -18.446000     -3.203000
N         -13.268000    -18.100000     -1.577000
C         -12.149000    -17.404000      1.088000
S         -13.704000    -18.237000      1.437000
C         -11.599000    -16.969000      2.275000
C         -13.561000    -18.106000      3.169000
S         -10.203000    -15.921000      2.615000
C         -12.454000    -17.323000      3.363000
C         -14.669000    -18.077000      4.093000
C         -10.734000    -16.031000      4.365000
C         -11.949000    -16.781000      4.503000
N         -15.851000    -18.036000      3.541000
S         -14.745000    -18.172000      5.832000
C         -16.889000    -18.028000      4.469000
C         -16.492000    -18.125000      5.777000
C          -5.977000    -18.319000     -6.828000
H          -6.132000    -16.289000     -5.030000
H          -7.656000    -15.939000     -3.127000
H          -9.523000    -19.761000     -4.398000
H          -8.372000    -16.787000     -0.957000
H         -10.044000    -15.663000      5.112000
H         -12.386000    -16.884000      5.490000
H         -17.885000    -18.015000      4.046000
H         -17.103000    -18.086000      6.669000
H          -6.590000    -18.827000     -7.584000
C          -4.851000    -19.347000     -6.647000
H          -5.698000    -17.372000     -7.305000
H          -4.187000    -18.956000     -5.865000
H          -4.191000    -19.327000     -7.523000
C          -5.255000    -20.833000     -6.265000
H          -4.320000    -21.406000     -6.242000
C          -6.205000    -21.545000     -7.298000
H          -5.681000    -20.857000     -5.254000
H          -5.705000    -21.546000     -8.274000
H          -7.132000    -20.974000     -7.435000
C          -6.287000    -23.077000     -6.818000
H          -5.317000    -23.473000     -6.490000
C          -6.940000    -23.949000     -7.872000
H          -6.912000    -23.259000     -5.935000
H          -6.417000    -23.887000     -8.835000
H          -7.978000    -23.660000     -8.077000
H          -6.871000    -24.968000     -7.471000
$end

--------------------------------------------------------------

             Standard Nuclear Orientation (Angstroms)
    I     Atom           X                Y                Z
 ----------------------------------------------------------------
    1      C      -5.2857005576     1.9926278745     0.4464460646
    2      C      -4.6727612278     2.5427844705    -0.6833389140
    3      N      -4.6653566596     1.8279554204     1.5842595076
    4      C      -3.2547126244     2.6540203676    -0.7725506479
    5      C      -3.3076401775     1.8195444779     1.5050811625
    6      C      -2.5385599172     2.2707329300     0.3690259112
    7      C      -1.0902652190     2.1585836912     0.3012910207
    8      C      -0.4010767570     1.9295193260    -0.9480002905
    9      C      -0.2826690828     2.5251730275     1.3618742278
   10      N       0.9108901293     1.7324275039    -1.0904913530
   11      N      -0.7404116982     2.9612656388     2.5529493440
   12      C       1.0941783468     2.4066797427     1.2573013014
   13      C       1.6715349565     1.9506933719     0.0226058835
   14      S       0.6433205424     3.3043558859     3.3822967795
   15      N       1.8085341558     2.8554126779     2.3229511177
   16      C       3.1160642010     1.8139162636    -0.1684995440
   17      S       4.2781589598     1.2009977485     1.0233090251
   18      C       3.7942145730     2.2788896815    -1.3315312691
   19      C       5.5633293575     1.4207122387    -0.1793553469
   20      S       3.1474813004     2.8758686001    -2.8650260506
   21      C       5.1472752541     2.0859777199    -1.2825234313
   22      C       6.9103629039     1.0111846427     0.1324743709
   23      C       4.8253211849     2.8291491255    -3.4431156740
   24      C       5.8057059202     2.4769514871    -2.4915571659
   25      N       7.7913640595     0.9335654868    -0.7918611908
   26      S       7.5308599094     0.4804759827     1.7255838412
   27      C       8.8194114422     0.1699213272    -0.4589059741
   28      C       8.8039093587    -0.2941127059     0.7981489577
   29      C      -6.7607160782     1.7951038937     0.4538278715
   30      H      -5.2861695053     2.8089552742    -1.5398518376
   31      H      -2.7972337239     3.0247523068    -1.6853451948
   32      H      -2.8219354125     1.3689775474     2.3688660445
   33      H      -0.9584217910     1.7545193763    -1.8677293434
   34      H       4.9762312617     3.1117931599    -4.4766457890
   35      H       6.8627615598     2.3890034810    -2.7174321822
   36      H       9.6867323329     0.1083986225    -1.1035224721
   37      H       9.4457921258    -0.8511585187     1.4676513667
   38      H      -7.0086417608     1.5486884982    -0.5853729315
   39      C      -7.6350053142     2.9283497638     0.9608911117
   40      H      -7.0352435891     0.8229976032     0.8827684335
   41      H      -7.3752800700     3.1168274214     2.0100412297
   42      H      -8.6441611225     2.4994529496     0.9496626953
   43      C      -7.6162963596     4.2995792359     0.2335220788
   44      H      -7.5120257568     4.1057906180    -0.8406243790
   45      C      -6.3846228295     5.1820078524     0.5970355613
   46      H      -8.5368368041     4.8306675223     0.5053023614
   47      H      -5.4613914809     4.7723737458     0.1697700986
   48      H      -6.2193551327     5.0445142878     1.6726721672
   49      C      -6.4598677714     6.7740174701     0.2989540692
   50      H      -7.2919264572     7.1133642313     0.9292398132
   51      C      -6.7488824714     6.8996041900    -1.2148730276
   52      H      -5.5602170301     7.2409490392     0.7182265980
   53      H      -6.8465679317     7.9857337731    -1.3354303982
   54      H      -7.7068981938     6.5052660611    -1.5781034169
   55      H      -5.8685085863     6.5648858215    -1.7777108695
   56      C      -6.5285671776    -1.6932310716    -1.0059200718
   57      C      -5.7529792169    -0.7690715345    -1.6777135407
   58      N      -5.9756673746    -2.6231126001    -0.2394560147
   59      C      -4.3866010493    -0.6679972605    -1.4355510037
   60      C      -4.6515787780    -2.5523607523     0.0908719502
   61      C      -3.7887011089    -1.6026998785    -0.5331283325
   62      C      -2.3115178910    -1.5668194826    -0.3445008219
   63      C      -1.4053966429    -1.2850794770    -1.4034134024
   64      C      -1.6741685350    -1.7480586323     0.9041248902
   65      N      -0.0946661955    -1.3071503204    -1.3294162937
   66      N      -2.3134611544    -1.9033608948     2.0838554332
   67      C      -0.2542994217    -1.7140443058     0.9700470171
   68      C       0.4795152427    -1.5485946778    -0.1832900797
   69      S      -1.1005416339    -1.9914626233     3.2167642213
   70      N       0.2274559135    -1.9514412788     2.2102584806
   71      C       1.9200512972    -1.8186073833    -0.2302902329
   72      S       2.9561921795    -2.5987980704     1.0152737212
   73      C       2.6605500288    -1.6400604728    -1.3794101698
   74      C       4.3354150466    -2.7902736230    -0.0328271306
   75      S       2.3090758277    -0.7622354334    -2.8856004254
   76      C       3.9881722814    -2.1277662762    -1.1802941138
   77      C       5.7083329139    -2.8562758688     0.4065146875
   78      C       4.0404882542    -1.1501047343    -3.3420315975
   79      C       4.7264216289    -1.8328485699    -2.2831995709
   80      N       5.8943591812    -2.6408181463     1.6802812272
   81      S       7.1857284817    -3.2567542409    -0.4276564041
   82      C       7.2302172722    -2.7326619151     2.0620401601
   83      C       8.0923133126    -3.0882149479     1.0579214132
   84      C      -8.1199570234    -1.6936077722    -1.1114672972
   85      H      -6.3028657784    -0.0135796749    -2.2310270319
   86      H      -3.8522749019     0.0866122181    -2.0050824804
   87      H      -4.3437891716    -3.3168758262     0.8026740715
   88      H      -1.7570983284    -1.0891805257    -2.4154561511
   89      H       4.3311050480    -0.9673747601    -4.3675483627
   90      H       5.7726963163    -2.0829573785    -2.4192211220
   91      H       7.4195263567    -2.5798243199     3.1165147876
   92      H       9.1703899967    -3.1706707861     1.0961012241
   93      H      -8.4761222326    -2.0171133154    -0.1246240942
   94      C      -8.6994795084    -2.8077599662    -1.9947790078
   95      H      -8.5577381927    -0.6963438501    -1.2379240784
   96      H      -8.3629601503    -2.6070591085    -3.0203397750
   97      H      -9.7839189404    -2.6734147028    -2.0913112223
   98      C      -8.3358590033    -4.3090311217    -1.6324241457
   99      H      -8.8903013411    -4.9358714447    -2.3414713259
  100      C      -8.7636886344    -4.7613698593    -0.1871267807
  101      H      -7.2663609829    -4.4866056317    -1.8021718337
  102      H      -9.8470811331    -4.6193850306    -0.0939709857
  103      H      -8.3086918603    -4.1165473406     0.5753172205
  104      C      -8.4983961537    -6.3461271751    -0.1390419629
  105      H      -8.7973345604    -6.8562114667    -1.0641094439
  106      C      -9.1233337247    -6.9708916786     1.0925551091
  107      H      -7.4459902533    -6.6430106443    -0.0510645421
  108      H     -10.2010272534    -6.7708776314     1.1501141131
  109      H      -8.6976487590    -6.5835400000     2.0262258150
  110      H      -8.9458155036    -8.0476097734     0.9781504525
 ----------------------------------------------------------------

   11   -5663.4537597187      5.57E-06 Convergence criterion met
 Total energy in the final basis set = -5663.4537597187

                    Orbital Energies (a.u.)
 --------------------------------------------------------------

 Alpha MOs
 -- Occupied --
-88.987 -88.986 -88.924 -88.924 -88.915 -88.911 -88.911 -88.907
-14.392 -14.389 -14.384 -14.383 -14.352 -14.345 -14.332 -14.330
-14.328 -14.328 -10.265 -10.262 -10.261 -10.255 -10.255 -10.253
-10.251 -10.250 -10.241 -10.240 -10.238 -10.235 -10.234 -10.233
-10.230 -10.230 -10.229 -10.229 -10.229 -10.228 -10.226 -10.226
-10.225 -10.223 -10.223 -10.222 -10.221 -10.220 -10.220 -10.216
-10.215 -10.214 -10.203 -10.201 -10.200 -10.198 -10.195 -10.193
-10.188 -10.183 -10.181 -10.181 -10.180 -10.179 -10.175 -10.173
-10.173 -10.172 -10.169 -10.162  -8.042  -8.042  -7.985  -7.982
 -7.973  -7.972  -7.970  -7.964  -6.007  -6.007  -6.002  -6.001
 -6.000  -5.999  -5.949  -5.947  -5.945  -5.943  -5.942  -5.939
 -5.938  -5.936  -5.935  -5.934  -5.933  -5.932  -5.930  -5.929
 -5.928  -5.927  -5.925  -5.920  -1.038  -1.028  -0.985  -0.977
 -0.966  -0.957  -0.947  -0.938  -0.913  -0.907  -0.906  -0.899
 -0.840  -0.839  -0.832  -0.828  -0.810  -0.808  -0.805  -0.802
 -0.798  -0.796  -0.793  -0.792  -0.776  -0.775  -0.763  -0.762
 -0.748  -0.747  -0.739  -0.738  -0.722  -0.713  -0.709  -0.701
 -0.692  -0.691  -0.677  -0.672  -0.656  -0.651  -0.647  -0.644
 -0.638  -0.634  -0.626  -0.625  -0.614  -0.610  -0.600  -0.595
 -0.589  -0.588  -0.584  -0.579  -0.577  -0.571  -0.558  -0.556
 -0.554  -0.543  -0.541  -0.537  -0.525  -0.518  -0.516  -0.513
 -0.510  -0.507  -0.499  -0.496  -0.486  -0.484  -0.480  -0.478
 -0.473  -0.470  -0.466  -0.465  -0.461  -0.455  -0.450  -0.447
 -0.441  -0.440  -0.437  -0.434  -0.433  -0.432  -0.431  -0.427
 -0.425  -0.424  -0.422  -0.421  -0.419  -0.417  -0.414  -0.410
 -0.408  -0.404  -0.401  -0.400  -0.400  -0.397  -0.394  -0.393
 -0.391  -0.390  -0.388  -0.388  -0.388  -0.386  -0.380  -0.379
 -0.378  -0.374  -0.369  -0.369  -0.367  -0.360  -0.359  -0.357
 -0.353  -0.349  -0.347  -0.346  -0.342  -0.342  -0.341  -0.339
 -0.338  -0.336  -0.330  -0.324  -0.322  -0.322  -0.318  -0.316
 -0.314  -0.311  -0.309  -0.309  -0.306  -0.304  -0.298  -0.293
 -0.292  -0.289  -0.288  -0.287  -0.285  -0.283  -0.280  -0.277
 -0.274  -0.270  -0.264  -0.259  -0.253  -0.251  -0.249  -0.245
 -0.238  -0.236  -0.227  -0.222  -0.194  -0.187

          Ground-State Mulliken Net Atomic Charges

     Atom                 Charge (a.u.)
  ----------------------------------------
      1 C                     0.298097
      2 C                    -0.130043
      3 N                    -0.458836
      4 C                    -0.094380
      5 C                     0.077875
      6 C                     0.042832
      7 C                     0.012525
      8 C                     0.056853
      9 C                     0.239295
     10 N                    -0.477198
     11 N                    -0.550569
     12 C                     0.211370
     13 C                     0.231616
     14 S                     0.601264
     15 N                    -0.535709
     16 C                    -0.205599
     17 S                     0.336581
     18 C                    -0.112634
     19 C                    -0.220096
     20 S                     0.276224
     21 C                     0.178721
     22 C                     0.057572
     23 C                    -0.308697
     24 C                    -0.050314
     25 N                    -0.427142
     26 S                     0.231270
     27 C                     0.132715
     28 C                    -0.302133
     29 C                    -0.230648
     30 H                     0.087526
     31 H                     0.104567
     32 H                     0.114654
     33 H                     0.099538
     34 H                     0.124355
     35 H                     0.128741
     36 H                     0.105249
     37 H                     0.125133
     38 H                     0.079205
     39 C                    -0.177140
     40 H                     0.121259
     41 H                     0.111951
     42 H                     0.090895
     43 C                    -0.174068
     44 H                     0.086632
     45 C                    -0.190706
     46 H                     0.094377
     47 H                     0.096572
     48 H                     0.084293
     49 C                    -0.188070
     50 H                     0.094021
     51 C                    -0.312182
     52 H                     0.100196
     53 H                     0.096887
     54 H                     0.113296
     55 H                     0.104303
     56 C                     0.281787
     57 C                    -0.122368
     58 N                    -0.478026
     59 C                    -0.060123
     60 C                     0.091693
     61 C                     0.014101
     62 C                     0.039339
     63 C                     0.040293
     64 C                     0.233793
     65 N                    -0.508513
     66 N                    -0.561734
     67 C                     0.224144
     68 C                     0.321026
     69 S                     0.598780
     70 N                    -0.572143
     71 C                    -0.236399
     72 S                     0.350673
     73 C                    -0.099436
     74 C                    -0.219193
     75 S                     0.312511
     76 C                     0.149793
     77 C                     0.070485
     78 C                    -0.309169
     79 C                    -0.105709
     80 N                    -0.416508
     81 S                     0.260874
     82 C                     0.108407
     83 C                    -0.304885
     84 C                    -0.228846
     85 H                     0.083496
     86 H                     0.099315
     87 H                     0.122533
     88 H                     0.104478
     89 H                     0.126708
     90 H                     0.101389
     91 H                     0.113779
     92 H                     0.133229
     93 H                     0.119097
     94 C                    -0.191648
     95 H                     0.094903
     96 H                     0.084255
     97 H                     0.090229
     98 C                    -0.167831
     99 H                     0.086319
    100 C                    -0.172531
    101 H                     0.107833
    102 H                     0.083425
    103 H                     0.116842
    104 C                    -0.179687
    105 H                     0.090963
    106 C                    -0.313380
    107 H                     0.096911
    108 H                     0.095187
    109 H                     0.105060
    110 H                     0.092183
  ----------------------------------------
  Sum of atomic charges =     0.000000

                    Cartesian Multipole Moments
 -----------------------------------------------------------------
    Charge (ESU x 10^10)
                 0.0000
    Dipole Moment (Debye)
         X       2.5986      Y       1.5470      Z      -2.2981
       Tot       3.7983
    Quadrupole Moments (Debye-Ang)
        XX    -402.6250     XY     -19.9975     YY    -454.1272
        XZ      12.3511     YZ      -6.1534     ZZ    -430.3689

 Total job time:  142.05s(wall), 1531.19s(cpu)
        *  Thank you very much for using Q-Chem.  Have a nice day.  *
