 Q-Chem 4.4, Q-Chem, Inc., Pleasanton, CA (2016)
 Q-Chem 4.4.2 for Intel X86 Linux

User input:
--------------------------------------------------------------
$comment
SP
$end

$rem
MEM_STATIC 5000
MEM_TOTAL 20000
JOBTYPE SP
EXCHANGE B3LYP
BASIS 6-31g(d,p)
$end

$molecule
0 1
C         -13.851000    -25.481000      4.921000
C         -13.155000    -26.398000      4.145000
N         -14.388000    -24.358000      4.405000
C         -13.075000    -26.210000      2.768000
C         -14.297000    -24.217000      3.052000
C         -13.681000    -25.120000      2.201000
C         -13.624000    -24.916000      0.642000
C         -13.726000    -26.001000     -0.251000
C         -13.473000    -23.623000      0.070000
N         -13.853000    -25.861000     -1.581000
N         -13.272000    -22.535000      0.854000
C         -13.546000    -23.448000     -1.288000
C         -13.710000    -24.620000     -2.128000
S         -13.367000    -21.279000     -0.202000
N         -13.510000    -22.097000     -1.631000
C         -13.854000    -24.568000     -3.591000
S         -14.997000    -25.453000     -4.598000
C         -13.001000    -23.834000     -4.378000
C         -14.298000    -24.664000     -6.070000
S         -11.773000    -22.721000     -3.944000
C         -13.283000    -23.875000     -5.757000
C         -14.776000    -24.861000     -7.408000
C         -11.494000    -22.526000     -5.692000
C         -12.446000    -23.078000     -6.500000
N         -15.690000    -25.822000     -7.441000
S         -14.917000    -23.586000     -8.559000
C         -16.347000    -25.710000     -8.607000
C         -16.108000    -24.581000     -9.283000
C         -13.962000    -25.596000      6.445000
H         -12.635000    -27.192000      4.673000
H         -12.621000    -26.948000      2.115000
H         -14.768000    -23.294000      2.716000
H         -13.998000    -26.955000      0.201000
H         -10.663000    -21.881000     -5.943000
H         -12.446000    -22.898000     -7.569000
H         -16.992000    -26.546000     -8.842000
H         -16.517000    -24.330000    -10.252000
H         -14.991000    -25.642000      6.823000
C         -13.086000    -24.420000      7.059000
H         -13.529000    -26.571000      6.701000
H         -13.553000    -23.448000      6.860000
H         -12.172000    -24.408000      6.452000
C         -12.846000    -24.484000      8.536000
H         -13.790000    -24.421000      9.090000
C         -11.861000    -23.445000      9.019000
H         -12.429000    -25.491000      8.658000
H         -11.737000    -23.496000     10.108000
H         -12.273000    -22.481000      8.694000
C         -10.446000    -23.573000      8.460000
H         -10.429000    -23.414000      7.374000
C          -9.839000    -24.936000      8.863000
H          -9.870000    -22.690000      8.763000
H          -8.755000    -24.890000      8.704000
H         -10.109000    -25.711000      8.135000
H          -9.939000    -25.144000      9.936000
C          -6.928000    -18.149000     -5.559000
C          -6.845000    -17.050000     -4.727000
N          -7.810000    -19.113000     -5.334000
C          -7.795000    -16.828000     -3.735000
C          -8.809000    -18.939000     -4.418000
C          -8.815000    -17.812000     -3.543000
C          -9.776000    -17.633000     -2.419000
C          -9.398000    -17.091000     -1.160000
C         -11.156000    -17.925000     -2.511000
N         -10.169000    -16.971000     -0.104000
N         -11.788000    -18.330000     -3.634000
C         -11.983000    -17.736000     -1.370000
C         -11.425000    -17.314000     -0.184000
S         -13.389000    -18.446000     -3.203000
N         -13.268000    -18.100000     -1.577000
C         -12.149000    -17.404000      1.088000
S         -13.704000    -18.237000      1.437000
C         -11.599000    -16.969000      2.275000
C         -13.561000    -18.106000      3.169000
S         -10.203000    -15.921000      2.615000
C         -12.454000    -17.323000      3.363000
C         -14.669000    -18.077000      4.093000
C         -10.734000    -16.031000      4.365000
C         -11.949000    -16.781000      4.503000
N         -15.851000    -18.036000      3.541000
S         -14.745000    -18.172000      5.832000
C         -16.889000    -18.028000      4.469000
C         -16.492000    -18.125000      5.777000
C          -5.977000    -18.319000     -6.828000
H          -6.132000    -16.289000     -5.030000
H          -7.656000    -15.939000     -3.127000
H          -9.523000    -19.761000     -4.398000
H          -8.372000    -16.787000     -0.957000
H         -10.044000    -15.663000      5.112000
H         -12.386000    -16.884000      5.490000
H         -17.885000    -18.015000      4.046000
H         -17.103000    -18.086000      6.669000
H          -6.590000    -18.827000     -7.584000
C          -4.851000    -19.347000     -6.647000
H          -5.698000    -17.372000     -7.305000
H          -4.187000    -18.956000     -5.865000
H          -4.191000    -19.327000     -7.523000
C          -5.255000    -20.833000     -6.265000
H          -4.320000    -21.406000     -6.242000
C          -6.205000    -21.545000     -7.298000
H          -5.681000    -20.857000     -5.254000
H          -5.705000    -21.546000     -8.274000
H          -7.132000    -20.974000     -7.435000
C          -6.287000    -23.077000     -6.818000
H          -5.317000    -23.473000     -6.490000
C          -6.940000    -23.949000     -7.872000
H          -6.912000    -23.259000     -5.935000
H          -6.417000    -23.887000     -8.835000
H          -7.978000    -23.660000     -8.077000
H          -6.871000    -24.968000     -7.471000
$end

--------------------------------------------------------------

             Standard Nuclear Orientation (Angstroms)
    I     Atom           X                Y                Z
 ----------------------------------------------------------------
    1      C      -5.7036596660     4.2028281003    -1.9620066509
    2      C      -4.7448983497     4.6557736703    -2.8581640305
    3      N      -5.3813035494     3.5561910335    -0.8245968575
    4      C      -3.3953519746     4.5230960769    -2.5435305328
    5      C      -4.0498999390     3.4564772777    -0.5485667989
    6      C      -3.0348018952     3.9432669752    -1.3558324007
    7      C      -1.5130324148     3.8181898777    -0.9764653378
    8      C      -0.5888462694     4.8385128558    -1.2762969387
    9      C      -1.0091979496     2.6688742462    -0.3078410706
   10      N       0.6764189781     4.8528897128    -0.8251582023
   11      N      -1.8071852334     1.5995188827    -0.0659807772
   12      C       0.2919505628     2.6265768412     0.1226719700
   13      C       1.1576533013     3.7507068203    -0.1822387690
   14      S      -0.8771592333     0.6350064451     0.8861034612
   15      N       0.5450479526     1.4768345038     0.8697865989
   16      C       2.5553312591     3.8554554201     0.2642285391
   17      S       3.3689244804     5.2577989363     0.9535918197
   18      C       3.4470982854     2.8235794358     0.1038616982
   19      C       4.8957142484     4.2943505549     1.0899231095
   20      S       3.1955431486     1.2116202836    -0.4190309340
   21      C       4.7411460703     3.0755595766     0.5986266315
   22      C       6.1206973854     4.7796902128     1.6568435014
   23      C       4.9471705107     0.9871768161    -0.1892555779
   24      C       5.5825282657     1.9963365737     0.4754166021
   25      N       6.0332185330     6.0776014282     1.9171892854
   26      S       7.1330974031     3.8279347386     2.6764094490
   27      C       7.0337357770     6.3856617560     2.7585055629
   28      C       7.6677248715     5.3347485810     3.2898974396
   29      C      -7.2079376710     4.2823662689    -2.2429752673
   30      H      -5.1041610072     5.0311516347    -3.8119154271
   31      H      -2.6171962777     4.9447502575    -3.1711055987
   32      H      -3.8770137375     2.9361356885     0.3927200818
   33      H      -1.0220851919     5.7692652360    -1.6429139635
   34      H       5.3165038568     0.0155936642    -0.4879294108
   35      H       6.6155060786     1.8969896561     0.7888620168
   36      H       7.1893823289     7.4463249443     2.9031214399
   37      H       8.5162293886     5.3846725065     3.9583214712
   38      H      -7.7807499469     4.8424606601    -1.4932944223
   39      C      -7.7102000377     2.7925535103    -2.4786412584
   40      H      -7.3068094147     4.8708490134    -3.1636068102
   41      H      -7.6736633208     2.2216027038    -1.5431444680
   42      H      -6.9343687093     2.3331823724    -3.1039834907
   43      C      -9.1015139419     2.6469246436    -3.0136766340
   44      H      -9.8365199533     3.0609626676    -2.3134197684
   45      C      -9.4448052229     1.2229047503    -3.3842888839
   46      H      -9.0705000897     3.2777168072    -3.9103155732
   47      H     -10.4809967756     1.1465585187    -3.7369591533
   48      H      -9.2735502032     0.6362105195    -2.4726274348
   49      C      -8.6061449551     0.6171984806    -4.5071686059
   50      H      -7.5517515636     0.5276289045    -4.2152818691
   51      C      -8.7881312512     1.4367181376    -5.8048186049
   52      H      -8.8452063586    -0.4506074343    -4.5840722685
   53      H      -8.4183479955     0.8367792597    -6.6449297206
   54      H      -8.0794288340     2.2734908842    -5.8373955045
   55      H      -9.8432228473     1.6121327826    -6.0509982673
   56      C       5.4433584340    -5.1349691455    -1.7049403635
   57      C       4.5740593148    -6.1541595683    -1.3695541333
   58      N       5.1103157409    -3.8642399153    -1.5255670431
   59      C       3.3992097360    -5.8940552957    -0.6710398279
   60      C       4.0030999714    -3.5338220313    -0.7960259122
   61      C       3.0720678703    -4.5322606212    -0.3811890660
   62      C       1.7688345279    -4.2364637839     0.2768573504
   63      C       0.5781866511    -4.9585412948    -0.0107025596
   64      C       1.6012982286    -3.2595659303     1.2846917475
   65      N      -0.6165694340    -4.7088984730     0.4732533876
   66      N       2.5990057743    -2.5274440632     1.8261298557
   67      C       0.3076625218    -3.0434352997     1.8336227163
   68      C      -0.7675905987    -3.7543319765     1.3493700531
   69      S       1.8642968103    -1.6103691304     3.0015422539
   70      N       0.2763497018    -2.0494363643     2.7488033671
   71      C      -2.1501536853    -3.3617312289     1.6403064116
   72      S      -2.7480474414    -1.8553890746     2.4195184306
   73      C      -3.2288488930    -4.0795272530     1.1692655251
   74      C      -4.4209660906    -2.1286140201     2.0143945950
   75      S      -3.3505287085    -5.7196933706     0.4926791453
   76      C      -4.4403694654    -3.3846146115     1.4682627212
   77      C      -5.5482694469    -1.6181819496     2.7566393285
   78      C      -5.1602773647    -5.4353459143     0.5154239415
   79      C      -5.4892297165    -4.1673664867     1.1000499086
   80      N      -5.2485019629    -1.0050901837     3.8691890767
   81      S      -7.2570012706    -1.5847883791     2.4130663025
   82      C      -6.3642860723    -0.5137454577     4.5417202517
   83      C      -7.5567398263    -0.7052406059     3.8942129911
   84      C       6.8857199656    -5.4258943662    -2.3202595717
   85      H       4.9628780721    -7.1597894684    -1.4992749026
   86      H       2.7739838621    -6.7529431372    -0.4458503916
   87      H       3.8947331071    -2.4616374262    -0.6393198326
   88      H       0.5654325020    -5.7654438750    -0.7421713270
   89      H      -5.7763853019    -6.1476035212    -0.0162085547
   90      H      -6.5347989193    -3.9000266971     1.2052234757
   91      H      -6.1514510207     0.0190679048     5.4592850513
   92      H      -8.5537454615    -0.4624995807     4.2370869593
   93      H       7.5353312634    -4.6346213962    -1.9236977874
   94      C       7.0026551580    -5.1522598543    -3.8265368751
   95      H       7.3452620769    -6.3531176658    -1.9579654915
   96      H       6.3456002413    -5.8721744175    -4.3318119074
   97      H       7.9899458039    -5.4716528959    -4.1823756945
   98      C       6.6465612842    -3.6966469982    -4.3478087488
   99      H       6.8495203750    -3.7015123766    -5.4257080648
  100      C       7.5128310336    -2.5412873370    -3.7223059316
  101      H       5.5745127885    -3.5034157683    -4.2153447358
  102      H       8.5671649410    -2.7538605123    -3.9362443731
  103      H       7.4230373573    -2.5332029028    -2.6286831732
  104      C       7.1285733460    -1.2204673662    -4.5541284093
  105      H       7.0287211211    -1.4094067264    -5.6309902627
  106      C       8.0855234926    -0.0839387286    -4.2536985964
  107      H       6.1521787885    -0.7821269515    -4.3134016990
  108      H       9.1275953813    -0.3627692216    -4.4563848935
  109      H       8.0585911272     0.2254410035    -3.2017723494
  110      H       7.7748276870     0.7256692638    -4.9259530237
 ----------------------------------------------------------------

   10   -5663.4755085778      8.06E-06 Convergence criterion met
 Total energy in the final basis set = -5663.4755085778

                    Orbital Energies (a.u.)
 --------------------------------------------------------------

 Alpha MOs
 -- Occupied --
-88.991 -88.986 -88.929 -88.927 -88.923 -88.916 -88.914 -88.903
-14.394 -14.388 -14.385 -14.379 -14.352 -14.348 -14.335 -14.334
-14.334 -14.324 -10.268 -10.262 -10.260 -10.260 -10.256 -10.255
-10.255 -10.249 -10.244 -10.241 -10.239 -10.237 -10.234 -10.234
-10.233 -10.231 -10.231 -10.231 -10.228 -10.228 -10.226 -10.225
-10.224 -10.222 -10.221 -10.220 -10.220 -10.218 -10.217 -10.217
-10.211 -10.206 -10.205 -10.202 -10.200 -10.197 -10.194 -10.192
-10.191 -10.185 -10.182 -10.176 -10.175 -10.175 -10.174 -10.173
-10.173 -10.170 -10.167 -10.164  -8.046  -8.040  -7.991  -7.988
 -7.982  -7.974  -7.972  -7.965  -6.011  -6.006  -6.005  -6.004
 -5.999  -5.998  -5.955  -5.952  -5.951  -5.948  -5.948  -5.946
 -5.945  -5.942  -5.938  -5.938  -5.936  -5.935  -5.933  -5.930
 -5.929  -5.928  -5.926  -5.921  -1.033  -1.026  -0.982  -0.980
 -0.969  -0.949  -0.943  -0.934  -0.914  -0.913  -0.905  -0.891
 -0.840  -0.838  -0.836  -0.825  -0.816  -0.814  -0.808  -0.807
 -0.803  -0.801  -0.799  -0.795  -0.780  -0.780  -0.767  -0.762
 -0.751  -0.749  -0.744  -0.741  -0.720  -0.717  -0.706  -0.705
 -0.696  -0.690  -0.682  -0.667  -0.656  -0.654  -0.649  -0.639
 -0.638  -0.633  -0.630  -0.625  -0.615  -0.607  -0.602  -0.601
 -0.595  -0.593  -0.585  -0.580  -0.577  -0.575  -0.561  -0.549
 -0.547  -0.546  -0.540  -0.539  -0.524  -0.522  -0.518  -0.517
 -0.511  -0.502  -0.501  -0.498  -0.491  -0.483  -0.482  -0.473
 -0.469  -0.468  -0.467  -0.462  -0.458  -0.458  -0.453  -0.451
 -0.443  -0.441  -0.439  -0.437  -0.434  -0.433  -0.432  -0.429
 -0.427  -0.427  -0.426  -0.421  -0.418  -0.416  -0.415  -0.412
 -0.411  -0.403  -0.403  -0.401  -0.400  -0.399  -0.397  -0.394
 -0.393  -0.392  -0.390  -0.389  -0.387  -0.385  -0.385  -0.381
 -0.378  -0.378  -0.372  -0.369  -0.364  -0.362  -0.357  -0.354
 -0.353  -0.350  -0.346  -0.344  -0.344  -0.343  -0.342  -0.337
 -0.336  -0.332  -0.330  -0.325  -0.324  -0.321  -0.318  -0.317
 -0.312  -0.311  -0.310  -0.308  -0.306  -0.303  -0.302  -0.299
 -0.296  -0.295  -0.292  -0.287  -0.285  -0.283  -0.282  -0.282
 -0.275  -0.274  -0.271  -0.264  -0.256  -0.255  -0.253  -0.249
 -0.245  -0.236  -0.232  -0.230  -0.199  -0.190

          Ground-State Mulliken Net Atomic Charges

     Atom                 Charge (a.u.)
  ----------------------------------------
      1 C                     0.256343
      2 C                    -0.119392
      3 N                    -0.478325
      4 C                    -0.081415
      5 C                     0.075911
      6 C                     0.062330
      7 C                     0.021023
      8 C                     0.054960
      9 C                     0.214707
     10 N                    -0.488706
     11 N                    -0.551274
     12 C                     0.236743
     13 C                     0.214448
     14 S                     0.645137
     15 N                    -0.568457
     16 C                    -0.200174
     17 S                     0.330396
     18 C                    -0.115136
     19 C                    -0.248883
     20 S                     0.262703
     21 C                     0.190765
     22 C                     0.035474
     23 C                    -0.314127
     24 C                    -0.073562
     25 N                    -0.414050
     26 S                     0.291357
     27 C                     0.134460
     28 C                    -0.319459
     29 C                    -0.220580
     30 H                     0.088283
     31 H                     0.099689
     32 H                     0.113513
     33 H                     0.110228
     34 H                     0.135774
     35 H                     0.116242
     36 H                     0.110988
     37 H                     0.128935
     38 H                     0.113452
     39 C                    -0.170868
     40 H                     0.085673
     41 H                     0.115068
     42 H                     0.095714
     43 C                    -0.170828
     44 H                     0.088351
     45 C                    -0.167252
     46 H                     0.087955
     47 H                     0.085520
     48 H                     0.083430
     49 C                    -0.179454
     50 H                     0.095042
     51 C                    -0.318212
     52 H                     0.088811
     53 H                     0.095682
     54 H                     0.110623
     55 H                     0.106738
     56 C                     0.278947
     57 C                    -0.113531
     58 N                    -0.478008
     59 C                    -0.073917
     60 C                     0.086576
     61 C                     0.015743
     62 C                     0.030848
     63 C                     0.050999
     64 C                     0.237481
     65 N                    -0.515347
     66 N                    -0.558778
     67 C                     0.221403
     68 C                     0.322146
     69 S                     0.624541
     70 N                    -0.585281
     71 C                    -0.230082
     72 S                     0.350113
     73 C                    -0.099585
     74 C                    -0.212900
     75 S                     0.278253
     76 C                     0.149225
     77 C                     0.064478
     78 C                    -0.306838
     79 C                    -0.104592
     80 N                    -0.422718
     81 S                     0.267448
     82 C                     0.116715
     83 C                    -0.311392
     84 C                    -0.227355
     85 H                     0.088799
     86 H                     0.107139
     87 H                     0.121300
     88 H                     0.108631
     89 H                     0.131925
     90 H                     0.103663
     91 H                     0.117889
     92 H                     0.142239
     93 H                     0.117932
     94 C                    -0.191070
     95 H                     0.097187
     96 H                     0.085594
     97 H                     0.091507
     98 C                    -0.168503
     99 H                     0.087935
    100 C                    -0.173013
    101 H                     0.107702
    102 H                     0.084821
    103 H                     0.111642
    104 C                    -0.181368
    105 H                     0.092677
    106 C                    -0.312816
    107 H                     0.098075
    108 H                     0.095303
    109 H                     0.102367
    110 H                     0.095538
  ----------------------------------------
  Sum of atomic charges =     0.000000

                    Cartesian Multipole Moments
 -----------------------------------------------------------------
    Charge (ESU x 10^10)
                 0.0000
    Dipole Moment (Debye)
         X      -0.1087      Y      -3.6852      Z       0.4960
       Tot       3.7200
    Quadrupole Moments (Debye-Ang)
        XX    -396.0094     XY      -7.6234     YY    -431.0856
        XZ      13.3993     YZ       7.9613     ZZ    -433.2544

 Total job time:  97.19s(wall), 1071.84s(cpu)
        *  Thank you very much for using Q-Chem.  Have a nice day.  *
