 Q-Chem 4.4, Q-Chem, Inc., Pleasanton, CA (2016)
 Q-Chem 4.4.2 for Intel X86 Linux

User input:
--------------------------------------------------------------
$comment
SP
$end

$rem
MEM_STATIC 5000
MEM_TOTAL 20000
JOBTYPE SP
EXCHANGE B3LYP
BASIS 6-31g(d,p)
$end

$molecule
0 1
C           3.608000    -17.980000     -5.512000
C           2.907000    -18.600000     -4.379000
N           3.025000    -17.019000     -6.266000
C           1.611000    -18.138000     -4.090000
C           1.749000    -16.649000     -5.984000
C           0.996000    -17.187000     -4.923000
C          -0.341000    -16.688000     -4.646000
C          -0.680000    -15.269000     -4.724000
C          -1.385000    -17.590000     -4.264000
N          -1.884000    -14.777000     -4.383000
N          -1.270000    -18.937000     -4.235000
C          -2.616000    -17.067000     -3.815000
C          -2.797000    -15.649000     -3.906000
S          -2.710000    -19.399000     -3.634000
N          -3.530000    -17.971000     -3.424000
C          -3.974000    -14.927000     -3.344000
S          -4.971000    -15.524000     -2.036000
C          -4.405000    -13.623000     -3.497000
C          -5.912000    -14.050000     -1.728000
S          -3.809000    -12.490000     -4.652000
C          -5.483000    -13.171000     -2.725000
C          -6.800000    -13.772000     -0.682000
C          -5.155000    -11.344000     -4.171000
C          -5.985000    -11.900000     -3.178000
N          -7.190000    -12.517000     -0.560000
S          -7.041000    -14.841000      0.727000
C          -7.655000    -12.310000      0.682000
C          -7.715000    -13.401000      1.528000
C           5.038000    -18.339000     -5.879000
H           3.434000    -19.246000     -3.684000
H           1.079000    -18.617000     -3.274000
H           1.317000    -15.819000     -6.540000
H           0.091000    -14.573000     -5.052000
H          -5.295000    -10.437000     -4.743000
H          -6.911000    -11.422000     -2.881000
H          -7.819000    -11.266000      0.915000
H          -7.952000    -13.441000      2.583000
H           5.229000    -19.379000     -5.590000
C           6.058000    -17.358000     -5.217000
H           5.057000    -18.393000     -6.974000
H           7.019000    -17.885000     -5.263000
H           5.775000    -17.276000     -4.160000
C           6.163000    -15.956000     -5.858000
H           6.770000    -15.990000     -6.771000
C           6.837000    -14.934000     -4.893000
H           5.160000    -15.557000     -6.053000
H           7.893000    -15.227000     -4.842000
H           6.426000    -15.127000     -3.895000
C           6.628000    -13.461000     -5.312000
H           5.580000    -13.325000     -5.605000
C           7.513000    -13.067000     -6.523000
H           6.870000    -12.791000     -4.478000
H           7.201000    -12.167000     -7.068000
H           7.727000    -13.886000     -7.221000
H           8.542000    -12.865000     -6.200000
C          -6.928000    -18.149000     -5.559000
C          -6.845000    -17.050000     -4.727000
N          -7.810000    -19.113000     -5.334000
C          -7.795000    -16.828000     -3.735000
C          -8.809000    -18.939000     -4.418000
C          -8.815000    -17.812000     -3.543000
C          -9.776000    -17.633000     -2.419000
C          -9.398000    -17.091000     -1.160000
C         -11.156000    -17.925000     -2.511000
N         -10.169000    -16.971000     -0.104000
N         -11.788000    -18.330000     -3.634000
C         -11.983000    -17.736000     -1.370000
C         -11.425000    -17.314000     -0.184000
S         -13.389000    -18.446000     -3.203000
N         -13.268000    -18.100000     -1.577000
C         -12.149000    -17.404000      1.088000
S         -13.704000    -18.237000      1.437000
C         -11.599000    -16.969000      2.275000
C         -13.561000    -18.106000      3.169000
S         -10.203000    -15.921000      2.615000
C         -12.454000    -17.323000      3.363000
C         -14.669000    -18.077000      4.093000
C         -10.734000    -16.031000      4.365000
C         -11.949000    -16.781000      4.503000
N         -15.851000    -18.036000      3.541000
S         -14.745000    -18.172000      5.832000
C         -16.889000    -18.028000      4.469000
C         -16.492000    -18.125000      5.777000
C          -5.977000    -18.319000     -6.828000
H          -6.132000    -16.289000     -5.030000
H          -7.656000    -15.939000     -3.127000
H          -9.523000    -19.761000     -4.398000
H          -8.372000    -16.787000     -0.957000
H         -10.044000    -15.663000      5.112000
H         -12.386000    -16.884000      5.490000
H         -17.885000    -18.015000      4.046000
H         -17.103000    -18.086000      6.669000
H          -6.590000    -18.827000     -7.584000
C          -4.851000    -19.347000     -6.647000
H          -5.698000    -17.372000     -7.305000
H          -4.187000    -18.956000     -5.865000
H          -4.191000    -19.327000     -7.523000
C          -5.255000    -20.833000     -6.265000
H          -4.320000    -21.406000     -6.242000
C          -6.205000    -21.545000     -7.298000
H          -5.681000    -20.857000     -5.254000
H          -5.705000    -21.546000     -8.274000
H          -7.132000    -20.974000     -7.435000
C          -6.287000    -23.077000     -6.818000
H          -5.317000    -23.473000     -6.490000
C          -6.940000    -23.949000     -7.872000
H          -6.912000    -23.259000     -5.935000
H          -6.417000    -23.887000     -8.835000
H          -7.978000    -23.660000     -8.077000
H          -6.871000    -24.968000     -7.471000
$end

--------------------------------------------------------------

             Standard Nuclear Orientation (Angstroms)
    I     Atom           X                Y                Z
 ----------------------------------------------------------------
    1      C     -10.0494747399    -0.4507127939    -2.1148272596
    2      C      -8.8884249587    -0.3858497910    -3.0132960661
    3      N      -9.9138852621    -0.3412557203    -0.7726049819
    4      C      -7.6277625721    -0.1796524739    -2.4261044336
    5      C      -8.6683599226    -0.2032272505    -0.2489497804
    6      C      -7.4970384542    -0.1343104820    -1.0270439242
    7      C      -6.2070936046     0.0820753621    -0.3926005057
    8      C      -6.0268487316     1.0111463775     0.7204605142
    9      C      -5.0454885296    -0.6117516317    -0.8602988621
   10      N      -4.8282354283     1.2944256567     1.2599417457
   11      N      -5.0502577319    -1.5721771810    -1.8121575801
   12      C      -3.7777447697    -0.2452072275    -0.3613379828
   13      C      -3.7450812933     0.7137996929     0.7021491229
   14      S      -3.4658458395    -1.8989662908    -1.9884891798
   15      N      -2.7289493983    -0.9031157942    -0.8835233779
   16      C      -2.4895668937     1.3120794678     1.2389935166
   17      S      -0.9880448523     1.4297072602     0.3485569598
   18      C      -2.2518211272     2.0863458418     2.3586249438
   19      C      -0.1028280573     2.4908215660     1.4636572494
   20      S      -3.3607987520     2.3654935361     3.6490416178
   21      C      -0.9769613880     2.6368579454     2.5431271638
   22      C       1.1312170961     3.1271330401     1.2842575079
   23      C      -2.0155975712     3.1891519639     4.5809287234
   24      C      -0.8034146249     3.1837449370     3.8635248840
   25      N       1.4545179565     4.0447115816     2.1761852930
   26      S       2.0272099704     3.1396993909    -0.2594917775
   27      C       2.3979254727     4.8526934627     1.6674756136
   28      C       2.8884538699     4.5453786393     0.4126702538
   29      C     -11.4709812677    -0.5952964835    -2.6314361523
   30      H      -9.0193872213    -0.3100980344    -4.0880893287
   31      H      -6.7651023463    -0.1638467950    -3.0848065782
   32      H      -8.5742420443    -0.0323446590     0.8218447680
   33      H      -6.9065122214     1.5175108058     1.1157176587
   34      H      -2.1957790302     3.4792343738     5.6069988171
   35      H       0.1271484981     3.4974989035     4.3215420480
   36      H       2.5797202099     5.7365520102     2.2648580217
   37      H       3.5616045738     5.1091417261    -0.2196534858
   38      H     -11.4508907158    -1.1470865495    -3.5783923777
   39      C     -12.1632448338     0.7966088629    -2.7875632216
   40      H     -11.9595455440    -1.3074243170    -1.9558024523
   41      H     -13.0132697504     0.6098709911    -3.4553600533
   42      H     -11.4556731734     1.4414983117    -3.3237739489
   43      C     -12.6251620272     1.4739762508    -1.4778625197
   44      H     -13.5645451152     1.0332972580    -1.1221443178
   45      C     -12.8776462769     2.9989169086    -1.6798345319
   46      H     -11.8337443309     1.4059007223    -0.7213846599
   47      H     -13.7859250099     3.0702294833    -2.2910057517
   48      H     -12.0630613458     3.3705080863    -2.3127210831
   49      C     -12.9655928735     3.7895397660    -0.3546357190
   50      H     -12.1594421567     3.4533776080     0.3085120965
   51      C     -14.3114175281     3.5527031329     0.3786080389
   52      H     -12.8641475378     4.8646803109    -0.5464732873
   53      H     -14.3248516420     3.8120899192     1.4448664596
   54      H     -14.7542033627     2.5619700876     0.2168992342
   55      H     -15.1090623500     4.1553057761    -0.0737267846
   56      C      -0.5895555974    -3.1876050471     1.6344948939
   57      C      -0.3734657572    -1.8320974502     1.7855522859
   58      N       0.3623108028    -3.9850525928     1.1698737922
   59      C       0.8964579265    -1.2861806667     1.6270697855
   60      C       1.6463759957    -3.5339577811     1.0473052358
   61      C       1.9593194942    -2.1527718078     1.2210339719
   62      C       3.2991279819    -1.5601385592     0.9515213582
   63      C       3.4708487886    -0.2847776160     0.3467937921
   64      C       4.5181822906    -2.1732958449     1.3204017391
   65      N       4.6141633619     0.2683169286     0.0137844660
   66      N       4.6249901927    -3.3245089554     2.0188846998
   67      C       5.7442895635    -1.5298553435     0.9976382398
   68      C       5.7302306895    -0.3451530762     0.2959781471
   69      S       6.2582772216    -3.5372225897     2.2414703934
   70      N       6.8326785022    -2.2445767338     1.3597885573
   71      C       6.9383981202     0.1959727777    -0.3347153360
   72      S       8.5405590901    -0.5918884708    -0.5493542877
   73      C       6.9311330845     1.3890465796    -1.0255236469
   74      C       9.1548914910     0.6109747748    -1.6507850453
   75      S       5.7569897235     2.7242309283    -1.0628079978
   76      C       8.1940913186     1.5871402443    -1.6625325943
   77      C      10.5496521065     0.9319556459    -1.8348912804
   78      C       7.0002938171     3.5929849314    -2.0904375093
   79      C       8.2000534508     2.8201073910    -2.2353724218
   80      N      11.3699687171     0.3319769742    -1.0159802647
   81      S      11.3782838642     1.9166089455    -3.0107948861
   82      C      12.7048908197     0.6568887190    -1.2420495861
   83      C      12.9215906826     1.4896951348    -2.3085188276
   84      C      -1.9838420292    -3.8655367818     2.0087086149
   85      H      -1.1943074475    -1.2759308481     2.2284931738
   86      H       0.9784699076    -0.2122451985     1.7657876476
   87      H       2.3492656564    -4.3107727875     0.7500098091
   88      H       2.6173394011     0.3191777198     0.0417353094
   89      H       6.6806365425     4.4984891128    -2.5878451935
   90      H       9.0274886376     3.2457833661    -2.7920572302
   91      H      13.4157741807     0.1612515061    -0.5938963631
   92      H      13.8551412509     1.9201574914    -2.6457005235
   93      H      -1.7283545325    -4.8623459288     2.3914182483
   94      C      -2.8517170733    -4.2459790136     0.8006202009
   95      H      -2.5019607114    -3.3842140400     2.8465990907
   96      H      -3.1342942097    -3.3080380454     0.3049207938
   97      H      -3.8261354212    -4.6104646918     1.1485211547
   98      C      -2.2280382014    -5.2193724068    -0.2860563688
   99      H      -3.0218301627    -5.4042289245    -1.0200900124
  100      C      -1.7767801335    -6.6223054574     0.2659200905
  101      H      -1.4051245125    -4.7171441142    -0.8102250465
  102      H      -2.6494263581    -7.1034615412     0.7236912011
  103      H      -1.0394960342    -6.5074063558     1.0705003248
  104      C      -1.3970644527    -7.4906343669    -1.0325285634
  105      H      -2.1013278270    -7.3462426091    -1.8622659434
  106      C      -1.2116347597    -8.9533245813    -0.6805879921
  107      H      -0.4407227573    -7.2342997721    -1.5049067351
  108      H      -2.1033371766    -9.3737389426    -0.1980317110
  109      H      -0.3860731962    -9.1183486656     0.0224092743
  110      H      -1.0346564793    -9.4501281403    -1.6427667240
 ----------------------------------------------------------------

    9   -5663.5040363097      9.22E-06 Convergence criterion met
 Total energy in the final basis set = -5663.5040363097

                    Orbital Energies (a.u.)
 --------------------------------------------------------------

 Alpha MOs
 -- Occupied --
-88.992 -88.987 -88.930 -88.926 -88.922 -88.919 -88.915 -88.906
-14.399 -14.395 -14.389 -14.384 -14.361 -14.348 -14.344 -14.335
-14.334 -14.325 -10.273 -10.272 -10.267 -10.265 -10.263 -10.255
-10.255 -10.251 -10.250 -10.247 -10.244 -10.239 -10.238 -10.237
-10.235 -10.234 -10.233 -10.232 -10.231 -10.231 -10.230 -10.230
-10.230 -10.229 -10.228 -10.228 -10.226 -10.226 -10.220 -10.215
-10.214 -10.214 -10.209 -10.209 -10.203 -10.203 -10.201 -10.190
-10.189 -10.187 -10.186 -10.180 -10.179 -10.175 -10.174 -10.174
-10.173 -10.173 -10.169 -10.163  -8.048  -8.042  -7.990  -7.987
 -7.982  -7.977  -7.972  -7.966  -6.013  -6.007  -6.007  -6.006
 -6.002  -6.000  -5.954  -5.951  -5.951  -5.948  -5.947  -5.946
 -5.944  -5.942  -5.942  -5.938  -5.938  -5.937  -5.934  -5.934
 -5.930  -5.929  -5.927  -5.922  -1.046  -1.028  -0.979  -0.978
 -0.968  -0.964  -0.936  -0.934  -0.920  -0.914  -0.910  -0.900
 -0.840  -0.839  -0.834  -0.831  -0.811  -0.810  -0.805  -0.803
 -0.801  -0.798  -0.796  -0.790  -0.782  -0.775  -0.768  -0.764
 -0.749  -0.748  -0.741  -0.737  -0.717  -0.716  -0.710  -0.703
 -0.693  -0.692  -0.678  -0.678  -0.659  -0.651  -0.651  -0.643
 -0.639  -0.633  -0.629  -0.623  -0.615  -0.611  -0.601  -0.599
 -0.594  -0.591  -0.582  -0.579  -0.578  -0.574  -0.563  -0.558
 -0.555  -0.544  -0.543  -0.541  -0.531  -0.519  -0.515  -0.514
 -0.508  -0.507  -0.504  -0.498  -0.493  -0.486  -0.480  -0.478
 -0.476  -0.473  -0.468  -0.462  -0.459  -0.455  -0.450  -0.447
 -0.441  -0.440  -0.438  -0.436  -0.436  -0.435  -0.432  -0.431
 -0.431  -0.426  -0.426  -0.424  -0.421  -0.417  -0.415  -0.412
 -0.410  -0.407  -0.403  -0.401  -0.399  -0.398  -0.397  -0.396
 -0.394  -0.393  -0.391  -0.390  -0.388  -0.387  -0.386  -0.383
 -0.378  -0.377  -0.374  -0.370  -0.366  -0.359  -0.356  -0.354
 -0.353  -0.349  -0.347  -0.347  -0.342  -0.341  -0.340  -0.338
 -0.337  -0.333  -0.332  -0.331  -0.328  -0.324  -0.323  -0.318
 -0.316  -0.315  -0.312  -0.310  -0.310  -0.304  -0.303  -0.302
 -0.298  -0.295  -0.292  -0.289  -0.286  -0.286  -0.282  -0.282
 -0.276  -0.274  -0.269  -0.264  -0.255  -0.252  -0.251  -0.248
 -0.241  -0.240  -0.234  -0.225  -0.196  -0.194

          Ground-State Mulliken Net Atomic Charges

     Atom                 Charge (a.u.)
  ----------------------------------------
      1 C                     0.254118
      2 C                    -0.121558
      3 N                    -0.469261
      4 C                    -0.058929
      5 C                     0.066000
      6 C                     0.048164
      7 C                    -0.007648
      8 C                     0.076027
      9 C                     0.220261
     10 N                    -0.507975
     11 N                    -0.537314
     12 C                     0.223754
     13 C                     0.293793
     14 S                     0.621449
     15 N                    -0.553527
     16 C                    -0.217951
     17 S                     0.293740
     18 C                    -0.123340
     19 C                    -0.246995
     20 S                     0.261342
     21 C                     0.161240
     22 C                     0.053967
     23 C                    -0.312542
     24 C                    -0.042840
     25 N                    -0.423502
     26 S                     0.277338
     27 C                     0.133966
     28 C                    -0.309728
     29 C                    -0.227081
     30 H                     0.096747
     31 H                     0.109502
     32 H                     0.101908
     33 H                     0.119594
     34 H                     0.129027
     35 H                     0.127739
     36 H                     0.114415
     37 H                     0.137367
     38 H                     0.094417
     39 C                    -0.180016
     40 H                     0.120000
     41 H                     0.095715
     42 H                     0.093899
     43 C                    -0.170777
     44 H                     0.095214
     45 C                    -0.182165
     46 H                     0.119810
     47 H                     0.087030
     48 H                     0.084149
     49 C                    -0.171339
     50 H                     0.098127
     51 C                    -0.325698
     52 H                     0.094489
     53 H                     0.100882
     54 H                     0.103490
     55 H                     0.099059
     56 C                     0.271268
     57 C                    -0.096382
     58 N                    -0.479517
     59 C                    -0.068243
     60 C                     0.087417
     61 C                     0.010006
     62 C                     0.034003
     63 C                     0.062300
     64 C                     0.234217
     65 N                    -0.521330
     66 N                    -0.559275
     67 C                     0.224150
     68 C                     0.320487
     69 S                     0.601550
     70 N                    -0.570701
     71 C                    -0.230640
     72 S                     0.358088
     73 C                    -0.107891
     74 C                    -0.217889
     75 S                     0.283328
     76 C                     0.149361
     77 C                     0.064184
     78 C                    -0.319994
     79 C                    -0.100755
     80 N                    -0.421099
     81 S                     0.260946
     82 C                     0.116173
     83 C                    -0.314703
     84 C                    -0.226727
     85 H                     0.092335
     86 H                     0.107857
     87 H                     0.119289
     88 H                     0.103220
     89 H                     0.126827
     90 H                     0.101959
     91 H                     0.116931
     92 H                     0.140704
     93 H                     0.117426
     94 C                    -0.197527
     95 H                     0.098372
     96 H                     0.082157
     97 H                     0.091592
     98 C                    -0.170314
     99 H                     0.085069
    100 C                    -0.172810
    101 H                     0.107286
    102 H                     0.084838
    103 H                     0.118344
    104 C                    -0.180094
    105 H                     0.090115
    106 C                    -0.313428
    107 H                     0.096775
    108 H                     0.095812
    109 H                     0.105255
    110 H                     0.092124
  ----------------------------------------
  Sum of atomic charges =     0.000000

                    Cartesian Multipole Moments
 -----------------------------------------------------------------
    Charge (ESU x 10^10)
                 0.0000
    Dipole Moment (Debye)
         X       1.0041      Y       3.0873      Z      -2.3989
       Tot       4.0366
    Quadrupole Moments (Debye-Ang)
        XX    -414.7042     XY      17.6617     YY    -442.3622
        XZ       4.8238     YZ      -3.6500     ZZ    -428.4261

 Total job time:  90.69s(wall), 1003.04s(cpu)
        *  Thank you very much for using Q-Chem.  Have a nice day.  *
