 Q-Chem 4.4, Q-Chem, Inc., Pleasanton, CA (2016)
 Q-Chem 4.4.2 for Intel X86 Linux

User input:
--------------------------------------------------------------
$comment
SP
$end

$rem
MEM_STATIC 5000
MEM_TOTAL 20000
JOBTYPE SP
EXCHANGE B3LYP
BASIS 6-31g(d,p)
$end

$molecule
0 1
C          19.442000      7.440000     -2.721000
C          20.372000      8.368000     -2.116000
N          18.317000      6.951000     -2.141000
C          20.126000      8.796000     -0.794000
C          18.083000      7.379000     -0.899000
C          18.952000      8.315000     -0.145000
C          18.631000      8.645000      1.331000
C          17.327000      8.890000      1.773000
C          19.663000      8.814000      2.284000
N          17.061000      9.376000      2.980000
N          20.936000      8.498000      2.011000
C          19.423000      9.276000      3.562000
C          18.064000      9.591000      3.859000
S          21.695000      8.679000      3.475000
N          20.469000      9.294000      4.400000
C          17.683000     10.098000      5.171000
S          18.601000      9.948000      6.683000
C          16.505000     10.739000      5.520000
C          17.450000     10.859000      7.667000
S          15.206000     11.149000      4.415000
C          16.432000     11.201000      6.821000
C          17.624000     11.307000      8.992000
C          14.437000     11.993000      5.790000
C          15.196000     11.925000      6.984000
N          18.789000     10.989000      9.530000
S          16.542000     12.261000      9.961000
C          18.812000     11.270000     10.864000
C          17.626000     11.832000     11.316000
C          19.606000      7.074000     -4.212000
H          21.174000      8.857000     -2.661000
H          20.809000      9.502000     -0.332000
H          17.180000      6.982000     -0.436000
H          16.492000      8.845000      1.075000
H          13.496000     12.501000      5.624000
H          14.932000     12.370000      7.936000
H          19.630000     10.913000     11.474000
H          17.391000     12.132000     12.329000
H          20.576000      7.433000     -4.579000
C          18.525000      7.646000     -5.147000
H          19.571000      5.986000     -4.348000
H          17.540000      7.249000     -4.871000
H          18.721000      7.323000     -6.177000
C          18.475000      9.161000     -5.022000
H          17.605000      9.373000     -5.656000
C          19.545000      9.885000     -5.731000
H          18.324000      9.515000     -3.995000
H          19.572000      9.603000     -6.791000
H          20.518000      9.572000     -5.333000
C          19.293000     11.367000     -5.554000
H          19.734000     11.901000     -6.404000
C          19.885000     11.990000     -4.293000
H          18.233000     11.633000     -5.645000
H          20.958000     11.827000     -4.454000
H          19.594000     11.381000     -3.427000
H          19.658000     13.034000     -4.046000
C           6.164000     21.993000     13.470000
C           6.242000     20.611000     13.215000
N           7.218000     22.811000     13.221000
C           7.367000     20.070000     12.556000
C           8.355000     22.269000     12.712000
C           8.487000     20.959000     12.298000
C           9.726000     20.416000     11.570000
C          10.960000     20.818000     11.922000
C           9.665000     19.330000     10.619000
N          12.073000     20.350000     11.327000
N           8.508000     18.841000     10.112000
C          10.750000     18.821000      9.991000
C          11.956000     19.383000     10.390000
S           8.929000     17.742000      8.946000
N          10.507000     17.967000      8.994000
C          13.297000     18.831000      9.874000
S          13.591000     17.223000      9.271000
C          14.574000     19.464000     10.073000
C          15.350000     17.523000      9.282000
S          14.855000     21.076000     10.532000
C          15.639000     18.713000      9.791000
C          16.311000     16.496000      8.788000
C          16.594000     20.732000     10.409000
C          16.864000     19.446000     10.022000
N          17.598000     16.625000      9.111000
S          15.868000     15.224000      7.727000
C          18.283000     15.549000      8.661000
C          17.572000     14.787000      7.803000
C           4.891000     22.570000     14.035000
H           5.403000     19.949000     13.411000
H           7.483000     19.044000     12.220000
H           9.209000     22.916000     12.517000
H          11.088000     21.560000     12.709000
H          17.213000     21.562000     10.725000
H          17.886000     19.169000      9.793000
H          19.270000     15.396000      9.079000
H          17.885000     13.950000      7.193000
H           4.194000     21.729000     14.131000
C           4.241000     23.643000     13.060000
H           5.098000     23.060000     14.994000
H           4.075000     23.229000     12.058000
H           4.938000     24.481000     12.931000
C           2.868000     24.129000     13.728000
H           2.999000     24.097000     14.816000
C           1.582000     23.350000     13.329000
H           2.734000     25.144000     13.333000
H           1.676000     22.309000     13.662000
H           1.694000     23.280000     12.240000
C           0.249000     24.052000     13.691000
H           0.366000     24.530000     14.671000
C          -1.031000     23.095000     13.615000
H           0.153000     24.884000     12.982000
H          -1.189000     22.440000     12.749000
H          -2.035000     23.500000     13.793000
H          -0.958000     22.358000     14.425000
$end

--------------------------------------------------------------

             Standard Nuclear Orientation (Angstroms)
    I     Atom           X                Y                Z
 ----------------------------------------------------------------
    1      C     -12.6014652381     3.2429482625     0.2795884613
    2      C     -12.2492996775     2.2478875101    -0.7093213005
    3      N     -11.9070011867     3.5177198467     1.4124460242
    4      C     -11.1013246015     1.4583954303    -0.4851796471
    5      C     -10.8117128120     2.7799151755     1.6034738844
    6      C     -10.3344836848     1.7147953424     0.6882989823
    7      C      -9.1123980289     0.8525991451     1.0802701124
    8      C      -7.9653001915     1.4054514276     1.6584793353
    9      C      -9.0629472060    -0.5280265136     0.7749483044
   10      N      -6.8377461085     0.7194038336     1.8059970931
   11      N     -10.1369366836    -1.1918116457     0.3267854986
   12      C      -7.9237563221    -1.2860670342     0.9536847006
   13      C      -6.7870777168    -0.5833070048     1.4520872381
   14      S      -9.6308361582    -2.7716572434     0.3173969012
   15      N      -8.0363183090    -2.6019036500     0.7243644016
   16      C      -5.5209399718    -1.2698572319     1.6736679149
   17      S      -5.2721924219    -3.0163259348     1.8720103618
   18      C      -4.2684681094    -0.7005207591     1.8396083100
   19      C      -3.5143271445    -2.9173467167     2.0239668713
   20      S      -3.9130857184     1.0149150988     1.7529528235
   21      C      -3.2123182618    -1.5862790881     1.9461619679
   22      C      -2.5949031536    -3.9856189296     2.0316482771
   23      C      -2.1906644962     0.5643354878     1.9096855488
   24      C      -1.9844077806    -0.8334825688     2.0092036270
   25      N      -3.1438118595    -5.1825775330     1.9142500895
   26      S      -0.8602665536    -3.9178231784     2.1106457574
   27      C      -2.2297421053    -6.1704782644     2.1323661814
   28      C      -0.9598448086    -5.6787241823     2.4012207490
   29      C     -13.7627083786     4.2174971296    -0.0131603634
   30      H     -12.7376720294     2.1608900554    -1.6753823176
   31      H     -10.8182895880     0.7163233321    -1.2251723377
   32      H     -10.2583713950     3.0020161996     2.5155437345
   33      H      -7.9099426217     2.4751386343     1.8563652097
   34      H      -1.4470281171     1.3503634813     1.8933782123
   35      H      -1.0278447735    -1.3339417479     2.1016851035
   36      H      -2.5603299737    -7.1943645469     2.2374449223
   37      H      -0.0697299545    -6.2550547714     2.6178600771
   38      H     -14.3218994810     3.8765397884    -0.8937984289
   39      C     -13.3410667599     5.6743851312    -0.2771029637
   40      H     -14.4554939121     4.2580080747     0.8364701845
   41      H     -12.8474857268     6.0901713426     0.6103144072
   42      H     -14.2318689743     6.2874336588    -0.4622729332
   43      C     -12.3563447552     5.7313357293    -1.4348720265
   44      H     -12.0941795653     6.7963418517    -1.4060384982
   45      C     -12.9557527270     5.6072901984    -2.7754240732
   46      H     -11.4750849340     5.0931227001    -1.2973538209
   47      H     -13.7424328404     6.3577655429    -2.9229847604
   48      H     -13.4712447819     4.6422014839    -2.8527138817
   49      C     -11.8441787132     5.7566779419    -3.7919099383
   50      H     -12.2728397819     6.1395303030    -4.7256180072
   51      C     -11.1000065693     4.4728647491    -4.1479232894
   52      H     -11.1303487656     6.5468995219    -3.5299296710
   53      H     -11.9053861348     3.8698348702    -4.5855735158
   54      H     -10.7923808888     3.9729753011    -3.2200251374
   55      H     -10.2184687717     4.5196890632    -4.7984404643
   56      C      12.8069479887     1.0896887224     0.4195336326
   57      C      11.8093537946     1.1213753118     1.4119220565
   58      N      12.5348311674     0.6406091543    -0.8319938250
   59      C      10.4684144335     0.8259322545     1.0845353895
   60      C      11.2722217359     0.2253319610    -1.1130210053
   61      C      10.1945754489     0.3453458727    -0.2590917687
   62      C       8.7473182539     0.0257003948    -0.6631058527
   63      C       8.4725447786    -1.0226839895    -1.4591295458
   64      C       7.6043545282     0.6910900002    -0.0813768824
   65      N       7.2177518340    -1.3522492573    -1.8178765328
   66      N       7.6952974251     1.7973099810     0.6950416539
   67      C       6.3228751247     0.4014956056    -0.4048511859
   68      C       6.1845251237    -0.6510251418    -1.3006973522
   69      S       6.1440688605     2.3028186683     0.9827027522
   70      N       5.3938656746     1.2395992451     0.0608716190
   71      C       4.7945577706    -1.1969285527    -1.6738209552
   72      S       3.3414888246    -1.0663129481    -0.7213299043
   73      C       4.5423197920    -2.1418933814    -2.7294896885
   74      C       2.5096313511    -2.2160020823    -1.8031940540
   75      S       5.5840992443    -2.5455776990    -4.0100835135
   76      C       3.3290641687    -2.6948497906    -2.7294427947
   77      C       1.0738662187    -2.5633901869    -1.6027296196
   78      C       4.3111494875    -3.6318831713    -4.6076831600
   79      C       3.1834666975    -3.6215135442    -3.8300656474
   80      N       0.5926021217    -3.6463367919    -2.2134263690
   81      S      -0.0205635402    -1.5774440946    -0.7251831502
   82      C      -0.6876005550    -3.8475637500    -1.8260120974
   83      C      -1.2137781850    -2.7960955684    -1.1627770224
   84      C      14.2003742671     1.5559741926     0.7566153245
   85      H      12.0183602806     1.4796563547     2.4161789873
   86      H       9.6104027293     0.9203346606     1.7432706179
   87      H      11.0463902010    -0.1447848566    -2.1120023160
   88      H       9.2822624099    -1.6367592431    -1.8510299674
   89      H       4.6199006557    -4.2131720210    -5.4671556665
   90      H       2.3020092513    -4.1488931686    -4.1743874480
   91      H      -1.1063121596    -4.8244716308    -2.0324911150
   92      H      -2.2317179566    -2.6132890127    -0.8449431280
   93      H      14.1658703243     1.8809495103     1.8032797984
   94      C      14.6433135084     2.7960046323    -0.1325322095
   95      H      14.9158901354     0.7419163628     0.5893523822
   96      H      13.9239416674     3.6208386979    -0.0610555094
   97      H      14.6571843740     2.4953961201    -1.1880586760
   98      C      16.1001570933     3.2446954878     0.3612615585
   99      H      16.6285407037     2.3444804618     0.6964520524
  100      C      16.1579153878     4.3334240875     1.4708434688
  101      H      16.5438560342     3.7062562316    -0.5299729390
  102      H      15.6866059564     3.9425551240     2.3810604063
  103      H      15.4294348132     5.0656116818     1.1012729352
  104      C      17.5427233541     5.0004099544     1.6662245063
  105      H      18.3150946739     4.2293620582     1.5589832538
  106      C      17.6779286562     5.8306494162     3.0272707812
  107      H      17.6780408938     5.6567338169     0.7972888638
  108      H      16.8910779554     6.5301955625     3.3362144067
  109      H      18.5945575269     6.3940137894     3.2420662572
  110      H      17.6691073622     5.1216057647     3.8649922653
 ----------------------------------------------------------------

   10   -5663.4935263360      4.29E-06 Convergence criterion met
 Total energy in the final basis set = -5663.4935263360

                    Orbital Energies (a.u.)
 --------------------------------------------------------------

 Alpha MOs
 -- Occupied --
-88.995 -88.991 -88.933 -88.927 -88.925 -88.922 -88.914 -88.899
-14.397 -14.391 -14.388 -14.382 -14.355 -14.348 -14.339 -14.339
-14.336 -14.329 -10.268 -10.267 -10.266 -10.266 -10.259 -10.257
-10.255 -10.251 -10.242 -10.241 -10.240 -10.240 -10.239 -10.239
-10.237 -10.236 -10.233 -10.233 -10.232 -10.231 -10.230 -10.230
-10.229 -10.224 -10.224 -10.223 -10.222 -10.220 -10.219 -10.218
-10.214 -10.212 -10.211 -10.209 -10.208 -10.198 -10.198 -10.196
-10.190 -10.189 -10.186 -10.183 -10.181 -10.179 -10.178 -10.176
-10.174 -10.173 -10.173 -10.167  -8.051  -8.047  -7.993  -7.988
 -7.984  -7.980  -7.974  -7.961  -6.016  -6.012  -6.011  -6.009
 -6.006  -6.004  -5.957  -5.954  -5.952  -5.950  -5.949  -5.948
 -5.945  -5.945  -5.945  -5.941  -5.941  -5.938  -5.937  -5.935
 -5.930  -5.925  -5.921  -5.917  -1.050  -1.044  -0.973  -0.972
 -0.966  -0.961  -0.941  -0.931  -0.920  -0.920  -0.913  -0.905
 -0.846  -0.843  -0.830  -0.829  -0.819  -0.816  -0.815  -0.807
 -0.804  -0.799  -0.797  -0.788  -0.785  -0.780  -0.772  -0.766
 -0.751  -0.746  -0.741  -0.738  -0.727  -0.720  -0.712  -0.705
 -0.696  -0.691  -0.681  -0.677  -0.659  -0.655  -0.650  -0.648
 -0.641  -0.637  -0.627  -0.622  -0.614  -0.606  -0.606  -0.597
 -0.595  -0.589  -0.586  -0.584  -0.583  -0.581  -0.566  -0.559
 -0.552  -0.547  -0.545  -0.541  -0.529  -0.527  -0.520  -0.514
 -0.506  -0.505  -0.501  -0.498  -0.490  -0.489  -0.480  -0.479
 -0.475  -0.474  -0.472  -0.471  -0.465  -0.456  -0.455  -0.448
 -0.447  -0.442  -0.439  -0.439  -0.438  -0.436  -0.435  -0.433
 -0.428  -0.425  -0.423  -0.423  -0.417  -0.416  -0.415  -0.412
 -0.412  -0.408  -0.404  -0.403  -0.402  -0.401  -0.400  -0.399
 -0.396  -0.395  -0.395  -0.392  -0.388  -0.387  -0.386  -0.384
 -0.382  -0.380  -0.373  -0.371  -0.365  -0.360  -0.360  -0.359
 -0.358  -0.354  -0.353  -0.352  -0.350  -0.346  -0.344  -0.342
 -0.340  -0.337  -0.336  -0.335  -0.333  -0.331  -0.325  -0.322
 -0.314  -0.313  -0.309  -0.308  -0.308  -0.304  -0.303  -0.303
 -0.301  -0.297  -0.295  -0.290  -0.289  -0.282  -0.281  -0.279
 -0.276  -0.272  -0.268  -0.267  -0.266  -0.256  -0.251  -0.247
 -0.245  -0.245  -0.236  -0.232  -0.196  -0.190

          Ground-State Mulliken Net Atomic Charges

     Atom                 Charge (a.u.)
  ----------------------------------------
      1 C                     0.255839
      2 C                    -0.125312
      3 N                    -0.457236
      4 C                    -0.050318
      5 C                     0.076799
      6 C                     0.013133
      7 C                     0.036739
      8 C                     0.061204
      9 C                     0.217419
     10 N                    -0.517352
     11 N                    -0.550884
     12 C                     0.244706
     13 C                     0.284770
     14 S                     0.596155
     15 N                    -0.560044
     16 C                    -0.220698
     17 S                     0.348137
     18 C                    -0.132317
     19 C                    -0.219929
     20 S                     0.291746
     21 C                     0.152772
     22 C                     0.063014
     23 C                    -0.309189
     24 C                    -0.096756
     25 N                    -0.432904
     26 S                     0.282976
     27 C                     0.126524
     28 C                    -0.315713
     29 C                    -0.219728
     30 H                     0.102978
     31 H                     0.113694
     32 H                     0.103979
     33 H                     0.117123
     34 H                     0.132028
     35 H                     0.112136
     36 H                     0.121176
     37 H                     0.130435
     38 H                     0.090553
     39 C                    -0.182156
     40 H                     0.109377
     41 H                     0.109075
     42 H                     0.088698
     43 C                    -0.167462
     44 H                     0.089546
     45 C                    -0.166927
     46 H                     0.104658
     47 H                     0.090520
     48 H                     0.080217
     49 C                    -0.178760
     50 H                     0.083946
     51 C                    -0.317131
     52 H                     0.091597
     53 H                     0.100675
     54 H                     0.100399
     55 H                     0.104552
     56 C                     0.286718
     57 C                    -0.135395
     58 N                    -0.501284
     59 C                    -0.052482
     60 C                     0.062334
     61 C                     0.042418
     62 C                     0.067717
     63 C                     0.052239
     64 C                     0.206377
     65 N                    -0.514411
     66 N                    -0.566030
     67 C                     0.237294
     68 C                     0.275605
     69 S                     0.607125
     70 N                    -0.553296
     71 C                    -0.221959
     72 S                     0.300721
     73 C                    -0.123084
     74 C                    -0.289325
     75 S                     0.266374
     76 C                     0.226035
     77 C                     0.060801
     78 C                    -0.305473
     79 C                    -0.051499
     80 N                    -0.437221
     81 S                     0.266854
     82 C                     0.144331
     83 C                    -0.324179
     84 C                    -0.226817
     85 H                     0.088188
     86 H                     0.115072
     87 H                     0.096491
     88 H                     0.116931
     89 H                     0.129541
     90 H                     0.125310
     91 H                     0.120164
     92 H                     0.140067
     93 H                     0.099413
     94 C                    -0.185601
     95 H                     0.122307
     96 H                     0.094945
     97 H                     0.121837
     98 C                    -0.189729
     99 H                     0.092581
    100 C                    -0.173404
    101 H                     0.090936
    102 H                     0.087682
    103 H                     0.093477
    104 C                    -0.172039
    105 H                     0.100911
    106 C                    -0.335835
    107 H                     0.100634
    108 H                     0.106068
    109 H                     0.102050
    110 H                     0.103040
  ----------------------------------------
  Sum of atomic charges =     0.000000

                    Cartesian Multipole Moments
 -----------------------------------------------------------------
    Charge (ESU x 10^10)
                 0.0000
    Dipole Moment (Debye)
         X      -1.0927      Y      -0.0175      Z       0.7819
       Tot       1.3438
    Quadrupole Moments (Debye-Ang)
        XX    -445.2600     XY       9.1119     YY    -430.7607
        XZ      44.8592     YZ       0.5024     ZZ    -444.4290

 Total job time:  93.25s(wall), 1017.28s(cpu)
        *  Thank you very much for using Q-Chem.  Have a nice day.  *
