 Q-Chem 4.4, Q-Chem, Inc., Pleasanton, CA (2016)
 Q-Chem 4.4.2 for Intel X86 Linux

User input:
--------------------------------------------------------------
$comment
SP
$end

$rem
MEM_STATIC 5000
MEM_TOTAL 20000
JOBTYPE SP
EXCHANGE B3LYP
BASIS 6-31g(d,p)
$end

$molecule
0 1
C          20.722000     12.487000      3.551000
C          19.826000     12.729000      4.632000
N          21.984000     12.181000      3.764000
C          20.254000     12.734000      5.976000
C          22.374000     12.115000      5.000000
C          21.629000     12.368000      6.152000
C          22.199000     12.392000      7.542000
C          21.576000     13.202000      8.531000
C          23.406000     11.741000      8.000000
N          21.939000     13.124000      9.831000
N          24.161000     10.945000      7.263000
C          23.895000     11.801000      9.286000
C          23.080000     12.515000     10.232000
S          25.309000     10.276000      8.217000
N          25.019000     11.130000      9.566000
C          23.455000     12.714000     11.687000
S          25.155000     12.517000     12.313000
C          22.681000     13.124000     12.776000
C          24.644000     13.008000     13.933000
S          20.958000     13.592000     12.836000
C          23.296000     13.157000     14.028000
C          25.542000     13.085000     15.027000
C          21.049000     13.741000     14.631000
C          22.357000     13.497000     15.019000
N          26.845000     12.895000     14.851000
S          25.060000     13.533000     16.657000
C          27.514000     13.002000     16.034000
C          26.706000     13.198000     17.126000
C          20.192000     12.494000      2.104000
H          18.784000     12.983000      4.462000
H          19.521000     12.783000      6.775000
H          23.418000     11.879000      5.201000
H          20.658000     13.749000      8.322000
H          20.249000     14.059000     15.287000
H          22.615000     13.415000     16.069000
H          28.594000     12.969000     15.981000
H          26.960000     13.088000     18.172000
H          20.709000     11.718000      1.526000
C          20.334000     13.927000      1.532000
H          19.156000     12.162000      2.246000
H          21.372000     14.267000      1.433000
H          19.849000     14.586000      2.262000
C          19.867000     14.014000      0.062000
H          20.269000     15.013000     -0.146000
C          18.345000     13.999000     -0.077000
H          20.341000     13.279000     -0.601000
H          18.057000     14.730000     -0.842000
H          17.840000     14.284000      0.854000
C          17.689000     12.718000     -0.640000
H          17.923000     12.661000     -1.710000
C          16.198000     12.660000     -0.321000
H          18.186000     11.835000     -0.221000
H          16.003000     12.282000      0.691000
H          15.775000     11.942000     -1.034000
H          15.713000     13.640000     -0.401000
C           6.164000     21.993000     13.470000
C           6.242000     20.611000     13.215000
N           7.218000     22.811000     13.221000
C           7.367000     20.070000     12.556000
C           8.355000     22.269000     12.712000
C           8.487000     20.959000     12.298000
C           9.726000     20.416000     11.570000
C          10.960000     20.818000     11.922000
C           9.665000     19.330000     10.619000
N          12.073000     20.350000     11.327000
N           8.508000     18.841000     10.112000
C          10.750000     18.821000      9.991000
C          11.956000     19.383000     10.390000
S           8.929000     17.742000      8.946000
N          10.507000     17.967000      8.994000
C          13.297000     18.831000      9.874000
S          13.591000     17.223000      9.271000
C          14.574000     19.464000     10.073000
C          15.350000     17.523000      9.282000
S          14.855000     21.076000     10.532000
C          15.639000     18.713000      9.791000
C          16.311000     16.496000      8.788000
C          16.594000     20.732000     10.409000
C          16.864000     19.446000     10.022000
N          17.598000     16.625000      9.111000
S          15.868000     15.224000      7.727000
C          18.283000     15.549000      8.661000
C          17.572000     14.787000      7.803000
C           4.891000     22.570000     14.035000
H           5.403000     19.949000     13.411000
H           7.483000     19.044000     12.220000
H           9.209000     22.916000     12.517000
H          11.088000     21.560000     12.709000
H          17.213000     21.562000     10.725000
H          17.886000     19.169000      9.793000
H          19.270000     15.396000      9.079000
H          17.885000     13.950000      7.193000
H           4.194000     21.729000     14.131000
C           4.241000     23.643000     13.060000
H           5.098000     23.060000     14.994000
H           4.075000     23.229000     12.058000
H           4.938000     24.481000     12.931000
C           2.868000     24.129000     13.728000
H           2.999000     24.097000     14.816000
C           1.582000     23.350000     13.329000
H           2.734000     25.144000     13.333000
H           1.676000     22.309000     13.662000
H           1.694000     23.280000     12.240000
C           0.249000     24.052000     13.691000
H           0.366000     24.530000     14.671000
C          -1.031000     23.095000     13.615000
H           0.153000     24.884000     12.982000
H          -1.189000     22.440000     12.749000
H          -2.035000     23.500000     13.793000
H          -0.958000     22.358000     14.425000
$end

--------------------------------------------------------------

             Standard Nuclear Orientation (Angstroms)
    I     Atom           X                Y                Z
 ----------------------------------------------------------------
    1      C      -6.1745200463    -5.7643742382    -0.1217236375
    2      C      -5.1376301969    -4.8746471647    -0.5256867237
    3      N      -7.3951210742    -5.3314029080     0.1113384955
    4      C      -5.3372296119    -3.4815066271    -0.6198382814
    5      C      -7.6082699714    -4.0600989948    -0.0386811967
    6      C      -6.6894733774    -3.0683110164    -0.3826396604
    7      C      -6.9987885688    -1.5981964204    -0.4083920751
    8      C      -5.9495371022    -0.6666030329    -0.1769722829
    9      C      -8.2996538435    -0.9840410322    -0.5532254142
   10      N      -6.1363401833     0.6594662580    -0.3627082371
   11      N      -9.4256276305    -1.6418179230    -0.7684522543
   12      C      -8.5346780975     0.3728772765    -0.5605263478
   13      C      -7.3672209882     1.2099038079    -0.4872632365
   14      S     -10.6192095055    -0.5618474813    -1.0593253417
   15      N      -9.7950144647     0.7944745911    -0.7212277664
   16      C      -7.4160667023     2.7244978680    -0.4577686718
   17      S      -8.9167693582     3.6640982039    -0.0268072495
   18      C      -6.4071400195     3.6694251127    -0.6633810523
   19      C      -8.0323447131     5.1894603843    -0.1597179933
   20      S      -4.6721543752     3.4246897540    -1.0116373061
   21      C      -6.7695058533     5.0164824360    -0.6326309276
   22      C      -8.6427010489     6.4488002633     0.0654424215
   23      C      -4.4514612192     5.2023583689    -1.2206727733
   24      C      -5.6610649179     5.8226076916    -0.9503143630
   25      N      -9.8955576131     6.5285046580     0.5000487248
   26      S      -7.8023526889     7.9844085203    -0.0947134872
   27      C     -10.2798166248     7.8296617038     0.6335940503
   28      C      -9.3399773242     8.7426588246     0.2250816924
   29      C      -5.8932285618    -7.2772737438    -0.0394546467
   30      H      -4.1284325037    -5.2262803115    -0.7181812587
   31      H      -4.5690783987    -2.8555907387    -1.0628552274
   32      H      -8.6068753300    -3.6756804097     0.1639087570
   33      H      -4.9181255911    -0.9919932390    -0.0507759734
   34      H      -3.5182278565     5.7103653544    -1.4267416776
   35      H      -5.7899135261     6.8837853580    -1.1322154249
   36      H     -11.2485380598     8.0018108215     1.0833066947
   37      H      -9.4788246708     9.7954973156     0.0177545930
   38      H      -6.7808345394    -7.8285998592    -0.3737361794
   39      C      -5.4266397068    -7.6162880015     1.3986695389
   40      H      -5.1209238878    -7.4010974343    -0.8088031920
   41      H      -6.1914445079    -7.4493446381     2.1668157032
   42      H      -4.6017674681    -6.9260631645     1.6121676989
   43      C      -5.1664179513    -9.1278436361     1.5831748273
   44      H      -5.0821305297    -9.1154458958     2.6766147784
   45      C      -3.8573099350    -9.5854474905     0.9406291760
   46      H      -6.0082705609    -9.7652960516     1.2841621158
   47      H      -3.3643691921   -10.2929052522     1.6181562525
   48      H      -3.1625017296    -8.7530389453     0.7752551406
   49      C      -3.9491567204   -10.4349089776    -0.3470995803
   50      H      -4.3185881162   -11.4296742082    -0.0698495489
   51      C      -2.6281418429   -10.4477681607    -1.1106179723
   52      H      -4.7403817603   -10.0382715587    -0.9943249616
   53      H      -2.5021622790    -9.5572131953    -1.7399779670
   54      H      -2.6823626431   -11.3206430500    -1.7724121491
   55      H      -1.7587477537   -10.5008700754    -0.4447658083
   56      C      12.2731729197     2.0050828039    -0.1859303513
   57      C      11.5308406585     1.5957896727    -1.3095205553
   58      N      11.6967558706     2.0918592220     1.0397344637
   59      C      10.2089205702     1.1245873539    -1.1575907857
   60      C      10.3831855786     1.7683965943     1.1643098083
   61      C       9.6064335813     1.2257416922     0.1607650949
   62      C       8.1747762749     0.7114674361     0.3748523353
   63      C       7.3250685628     1.3647455890     1.1869412830
   64      C       7.6018888939    -0.3632420801    -0.4025262756
   65      N       6.0557785045     0.9624610890     1.3841415087
   66      N       8.3237741448    -1.1617115785    -1.2248079455
   67      C       6.3338672303    -0.8087066636    -0.2464097639
   68      C       5.5889810997    -0.0951091435     0.6838612890
   69      S       7.2946916984    -2.3447677375    -1.7595653141
   70      N       6.0221922281    -1.9363762503    -0.8895225039
   71      C       4.0910708066    -0.3836241488     0.8894454459
   72      S       3.0097329089    -1.1137660777    -0.2652450384
   73      C       3.2911172524     0.1603417806     1.9549004561
   74      C       1.6086170759    -0.6933562387     0.7566805899
   75      S       3.8517851921     0.8727416657     3.3923718002
   76      C       1.9729527780     0.0146197726     1.8172141648
   77      C       0.2262480491    -1.1021047375     0.3768562375
   78      C       2.1521801196     1.0758403203     3.8695295668
   79      C       1.2690890606     0.5915527944     2.9410465169
   80      N      -0.8002934141    -0.5010418489     0.9787491086
   81      S      -0.1122906025    -2.3880045935    -0.7056441744
   82      C      -1.9578184470    -0.9317000823     0.4272327587
   83      C      -1.7987155958    -2.0114952040    -0.3671586925
   84      C      13.7293958688     2.3586479812    -0.3505188929
   85      H      11.9843551307     1.5231712099    -2.2942195867
   86      H       9.5879908534     0.6908501433    -1.9356308354
   87      H       9.9096945571     1.8432081927     2.1421438828
   88      H       7.6585168877     2.2502089580     1.7264631424
   89      H       2.0354066827     1.6198687379     4.7981382278
   90      H       0.2153298622     0.5493948666     3.1889744517
   91      H      -2.8399959742    -0.3383162210     0.6320751462
   92      H      -2.5399443473    -2.6447359188    -0.8364391365
   93      H      13.9625273055     2.1959431582    -1.4095197776
   94      C      14.6712058097     1.4155867056     0.5143992915
   95      H      13.8988680795     3.3948475317    -0.0339755921
   96      H      14.4955130165     0.3561957443     0.2912875850
   97      H      14.4324298032     1.5459292745     1.5777387638
   98      C      16.1861348555     1.8360964494     0.2050280878
   99      H      16.1966894098     2.9137733826     0.0039558892
  100      C      16.9004726907     1.0775729532    -0.9500483439
  101      H      16.7235303364     1.5563338501     1.1199843628
  102      H      16.3780842532     1.2854652228    -1.8920128467
  103      H      16.6294907742     0.0369881675    -0.7329835962
  104      C      18.4411089430     1.2379535707    -0.9881927473
  105      H      18.6866026483     2.2739683950    -0.7255539755
  106      C      19.1092411106     0.7706448324    -2.3648724304
  107      H      18.8198389023     0.6383050550    -0.1508718556
  108      H      18.8322645901    -0.1864426686    -2.8244510660
  109      H      20.2000300380     0.7837320355    -2.4820613421
  110      H      18.8077564009     1.4755856078    -3.1502153319
 ----------------------------------------------------------------

   10   -5663.4935002679      5.66E-06 Convergence criterion met
 Total energy in the final basis set = -5663.4935002679

                    Orbital Energies (a.u.)
 --------------------------------------------------------------

 Alpha MOs
 -- Occupied --
-88.996 -88.990 -88.931 -88.926 -88.926 -88.923 -88.911 -88.900
-14.389 -14.388 -14.382 -14.379 -14.351 -14.349 -14.340 -14.340
-14.330 -14.328 -10.271 -10.270 -10.267 -10.265 -10.256 -10.256
-10.255 -10.252 -10.248 -10.244 -10.241 -10.238 -10.238 -10.235
-10.234 -10.234 -10.233 -10.232 -10.230 -10.229 -10.228 -10.228
-10.227 -10.224 -10.224 -10.221 -10.220 -10.220 -10.219 -10.219
-10.215 -10.211 -10.208 -10.205 -10.205 -10.199 -10.199 -10.196
-10.190 -10.189 -10.188 -10.186 -10.186 -10.181 -10.180 -10.179
-10.178 -10.178 -10.175 -10.174  -8.052  -8.046  -7.993  -7.988
 -7.985  -7.981  -7.969  -7.961  -6.017  -6.011  -6.011  -6.010
 -6.006  -6.004  -5.956  -5.953  -5.952  -5.950  -5.949  -5.948
 -5.946  -5.945  -5.945  -5.942  -5.941  -5.937  -5.934  -5.930
 -5.926  -5.926  -5.922  -5.918  -1.051  -1.049  -0.975  -0.969
 -0.961  -0.959  -0.952  -0.931  -0.921  -0.913  -0.908  -0.906
 -0.847  -0.839  -0.831  -0.829  -0.817  -0.812  -0.811  -0.810
 -0.806  -0.798  -0.796  -0.789  -0.786  -0.780  -0.768  -0.767
 -0.751  -0.748  -0.741  -0.738  -0.728  -0.724  -0.712  -0.706
 -0.694  -0.692  -0.678  -0.677  -0.661  -0.656  -0.651  -0.646
 -0.640  -0.638  -0.623  -0.622  -0.616  -0.607  -0.603  -0.601
 -0.597  -0.591  -0.587  -0.586  -0.583  -0.582  -0.567  -0.566
 -0.553  -0.544  -0.542  -0.540  -0.528  -0.528  -0.521  -0.519
 -0.512  -0.507  -0.502  -0.499  -0.490  -0.486  -0.480  -0.478
 -0.473  -0.471  -0.470  -0.467  -0.462  -0.457  -0.454  -0.449
 -0.444  -0.443  -0.442  -0.440  -0.439  -0.437  -0.434  -0.434
 -0.430  -0.426  -0.424  -0.422  -0.418  -0.416  -0.414  -0.413
 -0.409  -0.409  -0.406  -0.405  -0.404  -0.402  -0.401  -0.401
 -0.397  -0.397  -0.394  -0.391  -0.389  -0.387  -0.387  -0.386
 -0.384  -0.379  -0.376  -0.366  -0.366  -0.362  -0.361  -0.359
 -0.353  -0.352  -0.351  -0.351  -0.348  -0.346  -0.344  -0.344
 -0.342  -0.337  -0.335  -0.334  -0.333  -0.333  -0.331  -0.314
 -0.313  -0.311  -0.310  -0.309  -0.306  -0.304  -0.303  -0.300
 -0.299  -0.298  -0.296  -0.290  -0.289  -0.283  -0.282  -0.280
 -0.274  -0.273  -0.269  -0.268  -0.254  -0.252  -0.251  -0.250
 -0.246  -0.246  -0.237  -0.233  -0.193  -0.192

          Ground-State Mulliken Net Atomic Charges

     Atom                 Charge (a.u.)
  ----------------------------------------
      1 C                     0.251133
      2 C                    -0.130612
      3 N                    -0.457745
      4 C                    -0.085444
      5 C                     0.078523
      6 C                     0.049801
      7 C                     0.051515
      8 C                     0.053156
      9 C                     0.245870
     10 N                    -0.519509
     11 N                    -0.563562
     12 C                     0.203937
     13 C                     0.289880
     14 S                     0.603824
     15 N                    -0.561962
     16 C                    -0.216129
     17 S                     0.353605
     18 C                    -0.143358
     19 C                    -0.225426
     20 S                     0.268266
     21 C                     0.189130
     22 C                     0.063951
     23 C                    -0.303036
     24 C                    -0.097354
     25 N                    -0.438099
     26 S                     0.272585
     27 C                     0.130034
     28 C                    -0.320203
     29 C                    -0.212097
     30 H                     0.081757
     31 H                     0.105887
     32 H                     0.115995
     33 H                     0.103063
     34 H                     0.139560
     35 H                     0.111356
     36 H                     0.116406
     37 H                     0.133986
     38 H                     0.114484
     39 C                    -0.177819
     40 H                     0.101885
     41 H                     0.108047
     42 H                     0.098061
     43 C                    -0.183796
     44 H                     0.092006
     45 C                    -0.169689
     46 H                     0.098311
     47 H                     0.093926
     48 H                     0.087107
     49 C                    -0.179758
     50 H                     0.093992
     51 C                    -0.319605
     52 H                     0.091411
     53 H                     0.103819
     54 H                     0.101981
     55 H                     0.104562
     56 C                     0.286264
     57 C                    -0.135063
     58 N                    -0.500771
     59 C                    -0.052720
     60 C                     0.062216
     61 C                     0.043004
     62 C                     0.068238
     63 C                     0.052182
     64 C                     0.206152
     65 N                    -0.513373
     66 N                    -0.565408
     67 C                     0.237413
     68 C                     0.275848
     69 S                     0.608691
     70 N                    -0.553681
     71 C                    -0.221503
     72 S                     0.306417
     73 C                    -0.123069
     74 C                    -0.291100
     75 S                     0.267157
     76 C                     0.226584
     77 C                     0.065932
     78 C                    -0.305469
     79 C                    -0.051091
     80 N                    -0.441105
     81 S                     0.273695
     82 C                     0.147662
     83 C                    -0.327203
     84 C                    -0.226678
     85 H                     0.088364
     86 H                     0.115361
     87 H                     0.096561
     88 H                     0.117346
     89 H                     0.130658
     90 H                     0.126663
     91 H                     0.133256
     92 H                     0.115426
     93 H                     0.099510
     94 C                    -0.185874
     95 H                     0.122370
     96 H                     0.094883
     97 H                     0.121964
     98 C                    -0.189394
     99 H                     0.092535
    100 C                    -0.173199
    101 H                     0.090911
    102 H                     0.087583
    103 H                     0.093440
    104 C                    -0.172255
    105 H                     0.100951
    106 C                    -0.335759
    107 H                     0.100684
    108 H                     0.106084
    109 H                     0.102069
    110 H                     0.103037
  ----------------------------------------
  Sum of atomic charges =     0.000000

                    Cartesian Multipole Moments
 -----------------------------------------------------------------
    Charge (ESU x 10^10)
                 0.0000
    Dipole Moment (Debye)
         X       0.8056      Y       0.2417      Z      -3.2077
       Tot       3.3161
    Quadrupole Moments (Debye-Ang)
        XX    -449.8222     XY     -22.7363     YY    -405.9446
        XZ     -17.4855     YZ       1.4102     ZZ    -441.2175

 Total job time:  90.03s(wall), 988.63s(cpu)
        *  Thank you very much for using Q-Chem.  Have a nice day.  *
