 Q-Chem 4.4, Q-Chem, Inc., Pleasanton, CA (2016)
 Q-Chem 4.4.2 for Intel X86 Linux

User input:
--------------------------------------------------------------
$comment
SP
$end

$rem
MEM_STATIC 5000
MEM_TOTAL 20000
JOBTYPE SP
EXCHANGE B3LYP
BASIS 6-31g(d,p)
$end

$molecule
0 1
C           2.323000     19.230000     10.867000
C           3.662000     19.577000     10.754000
N           1.738000     18.394000     10.026000
C           4.456000     19.046000      9.744000
C           2.446000     17.848000      9.017000
C           3.830000     18.183000      8.770000
C           4.577000     17.637000      7.588000
C           5.826000     17.042000      7.759000
C           4.143000     17.737000      6.240000
N           6.632000     16.673000      6.748000
N           2.903000     18.234000      5.878000
C           4.944000     17.368000      5.163000
C           6.258000     16.895000      5.461000
S           2.830000     18.082000      4.253000
N           4.348000     17.546000      3.953000
C           7.256000     16.456000      4.502000
S           8.670000     15.639000      5.086000
C           7.531000     17.024000      3.248000
C           9.481000     15.646000      3.471000
S           6.598000     17.994000      2.190000
C           8.722000     16.515000      2.675000
C          10.874000     15.324000      3.262000
C           7.866000     17.891000      0.963000
C           8.874000     17.022000      1.347000
N          11.404000     15.434000      2.047000
S          12.014000     14.874000      4.539000
C          12.706000     15.188000      2.053000
C          13.215000     14.790000      3.249000
C           1.327000     19.895000     11.871000
H           4.110000     20.295000     11.435000
H           5.474000     19.414000      9.651000
H           1.881000     17.200000      8.349000
H           6.124000     17.032000      8.806000
H           7.668000     18.528000      0.111000
H           9.771000     16.774000      0.792000
H          13.203000     15.107000      1.095000
H          14.233000     14.466000      3.418000
H           1.580000     20.963000     11.872000
C           1.476000     19.369000     13.242000
H           0.283000     19.803000     11.547000
H           1.043000     20.061000     13.975000
H           2.557000     19.384000     13.428000
C           0.898000     17.897000     13.448000
H          -0.188000     17.963000     13.311000
C           0.874000     17.395000     14.870000
H           1.220000     17.143000     12.720000
H           0.533000     18.145000     15.593000
H           1.909000     17.220000     15.190000
C          -0.037000     16.127000     15.076000
H          -1.112000     16.245000     14.889000
C           0.004000     15.592000     16.567000
H           0.199000     15.379000     14.310000
H          -0.338000     14.551000     16.635000
H          -0.538000     16.215000     17.288000
H           1.045000     15.511000     16.903000
C           6.164000     21.993000     13.470000
C           6.242000     20.611000     13.215000
N           7.218000     22.811000     13.221000
C           7.367000     20.070000     12.556000
C           8.355000     22.269000     12.712000
C           8.487000     20.959000     12.298000
C           9.726000     20.416000     11.570000
C          10.960000     20.818000     11.922000
C           9.665000     19.330000     10.619000
N          12.073000     20.350000     11.327000
N           8.508000     18.841000     10.112000
C          10.750000     18.821000      9.991000
C          11.956000     19.383000     10.390000
S           8.929000     17.742000      8.946000
N          10.507000     17.967000      8.994000
C          13.297000     18.831000      9.874000
S          13.591000     17.223000      9.271000
C          14.574000     19.464000     10.073000
C          15.350000     17.523000      9.282000
S          14.855000     21.076000     10.532000
C          15.639000     18.713000      9.791000
C          16.311000     16.496000      8.788000
C          16.594000     20.732000     10.409000
C          16.864000     19.446000     10.022000
N          17.598000     16.625000      9.111000
S          15.868000     15.224000      7.727000
C          18.283000     15.549000      8.661000
C          17.572000     14.787000      7.803000
C           4.891000     22.570000     14.035000
H           5.403000     19.949000     13.411000
H           7.483000     19.044000     12.220000
H           9.209000     22.916000     12.517000
H          11.088000     21.560000     12.709000
H          17.213000     21.562000     10.725000
H          17.886000     19.169000      9.793000
H          19.270000     15.396000      9.079000
H          17.885000     13.950000      7.193000
H           4.194000     21.729000     14.131000
C           4.241000     23.643000     13.060000
H           5.098000     23.060000     14.994000
H           4.075000     23.229000     12.058000
H           4.938000     24.481000     12.931000
C           2.868000     24.129000     13.728000
H           2.999000     24.097000     14.816000
C           1.582000     23.350000     13.329000
H           2.734000     25.144000     13.333000
H           1.676000     22.309000     13.662000
H           1.694000     23.280000     12.240000
C           0.249000     24.052000     13.691000
H           0.366000     24.530000     14.671000
C          -1.031000     23.095000     13.615000
H           0.153000     24.884000     12.982000
H          -1.189000     22.440000     12.749000
H          -2.035000     23.500000     13.793000
H          -0.958000     22.358000     14.425000
$end

--------------------------------------------------------------

             Standard Nuclear Orientation (Angstroms)
    I     Atom           X                Y                Z
 ----------------------------------------------------------------
    1      C       6.1382408422    -0.9037305506    -0.4539509715
    2      C       5.0085372787    -0.2276151075    -0.0149330150
    3      N       6.0869598614    -2.1481803118    -0.8979296340
    4      C       3.7586503808    -0.8358675348    -0.0325036477
    5      C       4.9087986450    -2.8024439443    -0.9344843547
    6      C       3.6803903885    -2.2165919209    -0.4481916836
    7      C       2.3952948221    -2.9914312318    -0.4107426844
    8      C       1.2303850540    -2.4480025517    -0.9501289114
    9      C       2.2305343997    -4.2554352482     0.2142435951
   10      N       0.0097496015    -2.9965449871    -0.8194832501
   11      N       3.2828107808    -4.9816046594     0.7443807510
   12      C       0.9864440308    -4.8596288831     0.3719782004
   13      C      -0.1514121462    -4.1410404159    -0.1055602119
   14      S       2.6239498289    -6.3787921117     1.2761960096
   15      N       1.0404912935    -6.0646670262     1.0012332894
   16      C      -1.5349650279    -4.5780630991    -0.0490040647
   17      S      -2.7247538672    -3.6964204723    -0.9518051484
   18      C      -2.1626319744    -5.2640441632     1.0027702380
   19      C      -4.1111483946    -4.6026769436    -0.2288913066
   20      S      -1.5543000511    -6.2427480154     2.2687971101
   21      C      -3.5692057635    -5.3197176173     0.8467521551
   22      C      -5.4941859246    -4.2036110222    -0.3544603355
   23      C      -3.2030808443    -6.6513720318     2.7571722827
   24      C      -4.1358783850    -6.1456844687     1.8667511259
   25      N      -6.4413466094    -4.8889554388     0.2799012868
   26      S      -6.0619435459    -2.7722520428    -1.2272098732
   27      C      -7.6355552400    -4.3350334817     0.1289303889
   28      C      -7.6741220878    -3.2577952149    -0.6993034638
   29      C       7.5950140200    -0.3531516312    -0.3238288675
   30      H       5.0826557589     0.7814568240     0.3803760893
   31      H       2.9225996893    -0.2923823622     0.3988200226
   32      H       4.9595674644    -3.8342052725    -1.2783507366
   33      H       1.4092232641    -1.4623762850    -1.3763574379
   34      H      -3.2316069816    -7.2195239940     3.6776431444
   35      H      -5.2137272487    -6.2414696245     1.9233641196
   36      H      -8.4929393272    -4.8936305225     0.4813447372
   37      H      -8.5712155911    -2.7366436552    -1.0050571198
   38      H       7.6393671914     0.1310393148     0.6601558499
   39      C       7.9125282845     0.6472149167    -1.3616002593
   40      H       8.3463834172    -1.1523606808    -0.3330442849
   41      H       8.7706493016     1.2617104454    -1.0621581695
   42      H       7.0516410974     1.3271071608    -1.3629372637
   43      C       8.1388229826     0.0357743616    -2.8170160615
   44      H       9.0447940488    -0.5796857330    -2.7627362394
   45      C       8.6346929832     1.0013776294    -3.8641011926
   46      H       7.3642760923    -0.6495113439    -3.1812201479
   47      H       9.4227158216     1.6720562054    -3.5025486323
   48      H       7.8233305280     1.7028536916    -4.0962052650
   49      C       9.2020237317     0.2971321212    -5.1534246920
   50      H      10.0902106596    -0.3357534213    -5.0305512974
   51      C       9.6620959655     1.3387957194    -6.2553582144
   52      H       8.4879688973    -0.4585256481    -5.5013658208
   53      H       9.7311519279     0.8761525102    -7.2485659142
   54      H      10.5931470680     1.8673998020    -6.0198681545
   55      H       8.8755345708     2.0878214211    -6.4083930817
   56      C       4.5692909509     3.9929889963     1.1963801823
   57      C       4.0513384342     3.3586661464     0.0516563237
   58      N       3.7475904460     4.5800686246     2.1031253451
   59      C       2.6581639292     3.1907940856    -0.1015454058
   60      C       2.4069196620     4.5386479281     1.8874863530
   61      C       1.7926886559     3.8266286955     0.8772047667
   62      C       0.2704911861     3.6577864664     0.7573666900
   63      C      -0.5580083060     4.6764761122     1.0474080612
   64      C      -0.3462012410     2.4946382817     0.1621400519
   65      N      -1.8956528880     4.5790331733     0.9332597113
   66      N       0.3282442670     1.3589670895    -0.1381817754
   67      C      -1.6834878203     2.3431479081     0.0228372462
   68      C      -2.4281077034     3.4401601436     0.4370671160
   69      S      -0.8027504143     0.2520650356    -0.6283010201
   70      N      -2.1033164533     1.1328638802    -0.3531022310
   71      C      -3.9521632955     3.4887622441     0.2269876356
   72      S      -4.8612090364     2.6023789710    -0.9661886020
   73      C      -4.8254191884     4.4829309602     0.7927364398
   74      C      -6.3166784340     3.5665368859    -0.5971217412
   75      S      -4.4776667914     5.5337074888     2.0823576855
   76      C      -6.0593962513     4.5190535457     0.2890045993
   77      C      -7.6176710419     3.2880296870    -1.2695337980
   78      C      -6.1317382527     6.1626842127     1.9210446924
   79      C      -6.8490254237     5.5475406969     0.9292974618
   80      N      -8.5722717724     4.2169018109    -1.2123234609
   81      S      -7.9935795370     1.7879186859    -2.0100159301
   82      C      -9.6260963965     3.8233346522    -1.9633624434
   83      C      -9.5562918207     2.5289837264    -2.3403398990
   84      C       6.0608739444     4.0253558518     1.4127492190
   85      H       4.7018031837     2.8858953189    -0.6790723224
   86      H       2.1611350355     2.6297842529    -0.8872032489
   87      H       1.7400745679     5.0144438801     2.6050418091
   88      H      -0.1541200657     5.6237681049     1.4021321372
   89      H      -6.3328718438     6.9982456754     2.5792994459
   90      H      -7.9057049752     5.7655464430     0.8315435868
   91      H     -10.3488320028     4.5879624683    -2.2189002022
   92      H     -10.2938210116     1.9064655517    -2.8293795853
   93      H       6.5009672165     3.4804558646     0.5691213888
   94      C       6.4828377264     3.2857558426     2.7541635447
   95      H       6.4058978372     5.0646332537     1.4718338641
   96      H       6.1027566417     2.2573654411     2.7842891374
   97      H       6.0280928030     3.8030312169     3.6087554015
   98      C       8.0825168526     3.3219119391     2.8394186320
   99      H       8.4188640930     4.2520944364     2.3665972539
  100      C       8.8431546343     2.1128010354     2.2235298534
  101      H       8.2844322626     3.2809767456     3.9172685645
  102      H       8.6435595787     2.0755404606     1.1454855764
  103      H       8.2691341328     1.2653559740     2.6181212011
  104      C      10.3324936773     1.9945336423     2.6341623399
  105      H      10.7619052232     3.0029989711     2.6684610988
  106      C      11.1799247061     0.9887173221     1.7229986985
  107      H      10.3235762911     1.6570523763     3.6782638078
  108      H      10.7904681222    -0.0074763000     1.4783216940
  109      H      12.2311238551     0.7815354502     1.9591787595
  110      H      11.2750131164     1.4285517046     0.7219482951
 ----------------------------------------------------------------

   10   -5663.5050366842      9.81E-06 Convergence criterion met
 Total energy in the final basis set = -5663.5050366842

                    Orbital Energies (a.u.)
 --------------------------------------------------------------

 Alpha MOs
 -- Occupied --
-88.995 -88.993 -88.930 -88.930 -88.925 -88.924 -88.910 -88.899
-14.391 -14.386 -14.385 -14.381 -14.356 -14.347 -14.341 -14.339
-14.332 -14.326 -10.274 -10.270 -10.270 -10.265 -10.263 -10.261
-10.254 -10.249 -10.248 -10.243 -10.241 -10.239 -10.237 -10.235
-10.233 -10.233 -10.230 -10.229 -10.228 -10.228 -10.227 -10.227
-10.227 -10.226 -10.226 -10.224 -10.223 -10.220 -10.219 -10.217
-10.215 -10.214 -10.214 -10.202 -10.200 -10.198 -10.198 -10.196
-10.193 -10.192 -10.189 -10.184 -10.183 -10.183 -10.182 -10.180
-10.179 -10.176 -10.175 -10.174  -8.050  -8.048  -7.992  -7.991
 -7.984  -7.983  -7.971  -7.960  -6.015  -6.013  -6.009  -6.008
 -6.007  -6.006  -5.956  -5.954  -5.952  -5.951  -5.949  -5.948
 -5.948  -5.947  -5.945  -5.944  -5.941  -5.940  -5.935  -5.931
 -5.927  -5.925  -5.921  -5.916  -1.048  -1.036  -0.978  -0.974
 -0.963  -0.960  -0.941  -0.934  -0.920  -0.914  -0.904  -0.899
 -0.850  -0.846  -0.832  -0.828  -0.816  -0.813  -0.809  -0.805
 -0.804  -0.800  -0.799  -0.790  -0.783  -0.782  -0.770  -0.768
 -0.750  -0.748  -0.740  -0.739  -0.727  -0.725  -0.712  -0.707
 -0.699  -0.692  -0.678  -0.676  -0.657  -0.651  -0.650  -0.648
 -0.637  -0.632  -0.628  -0.624  -0.613  -0.608  -0.599  -0.597
 -0.594  -0.590  -0.587  -0.583  -0.583  -0.580  -0.572  -0.570
 -0.555  -0.552  -0.547  -0.540  -0.528  -0.523  -0.516  -0.514
 -0.509  -0.507  -0.504  -0.501  -0.491  -0.486  -0.479  -0.478
 -0.476  -0.473  -0.470  -0.467  -0.460  -0.458  -0.453  -0.448
 -0.444  -0.442  -0.440  -0.438  -0.435  -0.434  -0.434  -0.431
 -0.427  -0.425  -0.423  -0.418  -0.418  -0.416  -0.414  -0.414
 -0.413  -0.409  -0.405  -0.404  -0.403  -0.402  -0.401  -0.400
 -0.397  -0.394  -0.392  -0.390  -0.389  -0.387  -0.386  -0.385
 -0.384  -0.380  -0.374  -0.368  -0.367  -0.363  -0.362  -0.361
 -0.353  -0.351  -0.350  -0.348  -0.346  -0.345  -0.345  -0.342
 -0.341  -0.337  -0.336  -0.334  -0.333  -0.331  -0.324  -0.317
 -0.315  -0.311  -0.310  -0.309  -0.306  -0.306  -0.304  -0.301
 -0.298  -0.297  -0.297  -0.294  -0.287  -0.284  -0.284  -0.281
 -0.279  -0.274  -0.269  -0.267  -0.254  -0.254  -0.249  -0.249
 -0.246  -0.246  -0.238  -0.237  -0.196  -0.191

          Ground-State Mulliken Net Atomic Charges

     Atom                 Charge (a.u.)
  ----------------------------------------
      1 C                     0.278189
      2 C                    -0.122767
      3 N                    -0.474792
      4 C                    -0.087009
      5 C                     0.090851
      6 C                    -0.006269
      7 C                     0.024027
      8 C                     0.081460
      9 C                     0.209686
     10 N                    -0.548148
     11 N                    -0.543028
     12 C                     0.252321
     13 C                     0.297519
     14 S                     0.620089
     15 N                    -0.572730
     16 C                    -0.215918
     17 S                     0.316173
     18 C                    -0.137289
     19 C                    -0.213816
     20 S                     0.294634
     21 C                     0.128857
     22 C                     0.045460
     23 C                    -0.320569
     24 C                    -0.049616
     25 N                    -0.421301
     26 S                     0.275981
     27 C                     0.136800
     28 C                    -0.311358
     29 C                    -0.217029
     30 H                     0.094229
     31 H                     0.128002
     32 H                     0.112976
     33 H                     0.110244
     34 H                     0.140622
     35 H                     0.125589
     36 H                     0.113163
     37 H                     0.128356
     38 H                     0.100437
     39 C                    -0.189116
     40 H                     0.115891
     41 H                     0.096996
     42 H                     0.085788
     43 C                    -0.179503
     44 H                     0.096242
     45 C                    -0.169736
     46 H                     0.108711
     47 H                     0.089586
     48 H                     0.086334
     49 C                    -0.186670
     50 H                     0.096348
     51 C                    -0.328733
     52 H                     0.095071
     53 H                     0.100519
     54 H                     0.106942
     55 H                     0.102301
     56 C                     0.287190
     57 C                    -0.148823
     58 N                    -0.500096
     59 C                    -0.057776
     60 C                     0.063205
     61 C                     0.042602
     62 C                     0.067055
     63 C                     0.053108
     64 C                     0.211421
     65 N                    -0.514869
     66 N                    -0.591350
     67 C                     0.228802
     68 C                     0.276519
     69 S                     0.643628
     70 N                    -0.554402
     71 C                    -0.218959
     72 S                     0.308420
     73 C                    -0.123057
     74 C                    -0.291417
     75 S                     0.266854
     76 C                     0.226896
     77 C                     0.065429
     78 C                    -0.304449
     79 C                    -0.051861
     80 N                    -0.434177
     81 S                     0.268016
     82 C                     0.144288
     83 C                    -0.320731
     84 C                    -0.230008
     85 H                     0.095289
     86 H                     0.118706
     87 H                     0.098570
     88 H                     0.116140
     89 H                     0.129354
     90 H                     0.124098
     91 H                     0.117897
     92 H                     0.124810
     93 H                     0.101189
     94 C                    -0.189537
     95 H                     0.124394
     96 H                     0.095144
     97 H                     0.123989
     98 C                    -0.191406
     99 H                     0.093856
    100 C                    -0.185853
    101 H                     0.092668
    102 H                     0.099167
    103 H                     0.100656
    104 C                    -0.173410
    105 H                     0.101360
    106 C                    -0.339930
    107 H                     0.102175
    108 H                     0.110482
    109 H                     0.103625
    110 H                     0.104115
  ----------------------------------------
  Sum of atomic charges =     0.000000

                    Cartesian Multipole Moments
 -----------------------------------------------------------------
    Charge (ESU x 10^10)
                 0.0000
    Dipole Moment (Debye)
         X      -2.3905      Y      -0.9989      Z      -0.3883
       Tot       2.6197
    Quadrupole Moments (Debye-Ang)
        XX    -399.5358     XY       3.8990     YY    -448.0786
        XZ       7.8766     YZ     -11.0190     ZZ    -442.5217

 Total job time:  99.10s(wall), 1105.71s(cpu)
        *  Thank you very much for using Q-Chem.  Have a nice day.  *
