 Q-Chem 4.4, Q-Chem, Inc., Pleasanton, CA (2016)
 Q-Chem 4.4.2 for Intel X86 Linux

User input:
--------------------------------------------------------------
$comment
SP
$end

$rem
MEM_STATIC 5000
MEM_TOTAL 20000
JOBTYPE SP
EXCHANGE B3LYP
BASIS 6-31g(d,p)
$end

$molecule
0 1
C          27.968000     26.070000      3.404000
C          27.382000     24.860000      3.807000
N          27.170000     27.183000      3.227000
C          26.070000     24.830000      4.268000
C          25.839000     27.162000      3.600000
C          25.258000     26.034000      4.285000
C          23.879000     26.000000      4.854000
C          23.521000     25.086000      5.850000
C          22.863000     26.880000      4.396000
N          22.353000     24.982000      6.376000
N          22.961000     27.736000      3.350000
C          21.578000     26.754000      4.951000
C          21.316000     25.793000      5.931000
S          21.516000     28.428000      3.187000
N          20.703000     27.663000      4.371000
C          19.975000     25.470000      6.325000
S          18.526000     25.930000      5.492000
C          19.662000     24.664000      7.380000
C          17.510000     25.168000      6.783000
S          20.671000     24.092000      8.700000
C          18.282000     24.444000      7.655000
C          16.084000     25.308000      6.811000
C          19.249000     23.355000      9.485000
C          18.063000     23.707000      8.843000
N          15.442000     24.843000      7.879000
S          15.135000     26.134000      5.485000
C          14.090000     25.035000      7.688000
C          13.794000     25.644000      6.448000
C          29.411000     26.301000      3.006000
H          28.033000     23.992000      3.868000
H          25.720000     23.827000      4.493000
H          25.320000     28.117000      3.546000
H          24.299000     24.409000      6.201000
H          19.384000     22.761000     10.379000
H          17.082000     23.379000      9.167000
H          13.404000     24.706000      8.457000
H          12.788000     25.832000      6.096000
H          29.801000     25.689000      2.183000
C          30.470000     26.283000      4.175000
H          29.402000     27.318000      2.595000
H          30.303000     25.274000      4.572000
H          30.253000     27.019000      4.959000
C          31.923000     26.424000      3.733000
H          32.366000     25.633000      3.115000
C          32.829000     26.532000      4.950000
H          31.938000     27.329000      3.114000
H          33.017000     25.506000      5.291000
H          32.406000     27.085000      5.797000
C          34.214000     27.020000      4.565000
H          34.621000     26.330000      3.816000
C          35.100000     27.073000      5.839000
H          34.256000     27.995000      4.066000
H          35.299000     26.040000      6.149000
H          34.648000     27.726000      6.595000
H          36.043000     27.551000      5.545000
C           6.164000     21.993000     13.470000
C           6.242000     20.611000     13.215000
N           7.218000     22.811000     13.221000
C           7.367000     20.070000     12.556000
C           8.355000     22.269000     12.712000
C           8.487000     20.959000     12.298000
C           9.726000     20.416000     11.570000
C          10.960000     20.818000     11.922000
C           9.665000     19.330000     10.619000
N          12.073000     20.350000     11.327000
N           8.508000     18.841000     10.112000
C          10.750000     18.821000      9.991000
C          11.956000     19.383000     10.390000
S           8.929000     17.742000      8.946000
N          10.507000     17.967000      8.994000
C          13.297000     18.831000      9.874000
S          13.591000     17.223000      9.271000
C          14.574000     19.464000     10.073000
C          15.350000     17.523000      9.282000
S          14.855000     21.076000     10.532000
C          15.639000     18.713000      9.791000
C          16.311000     16.496000      8.788000
C          16.594000     20.732000     10.409000
C          16.864000     19.446000     10.022000
N          17.598000     16.625000      9.111000
S          15.868000     15.224000      7.727000
C          18.283000     15.549000      8.661000
C          17.572000     14.787000      7.803000
C           4.891000     22.570000     14.035000
H           5.403000     19.949000     13.411000
H           7.483000     19.044000     12.220000
H           9.209000     22.916000     12.517000
H          11.088000     21.560000     12.709000
H          17.213000     21.562000     10.725000
H          17.886000     19.169000      9.793000
H          19.270000     15.396000      9.079000
H          17.885000     13.950000      7.193000
H           4.194000     21.729000     14.131000
C           4.241000     23.643000     13.060000
H           5.098000     23.060000     14.994000
H           4.075000     23.229000     12.058000
H           4.938000     24.481000     12.931000
C           2.868000     24.129000     13.728000
H           2.999000     24.097000     14.816000
C           1.582000     23.350000     13.329000
H           2.734000     25.144000     13.333000
H           1.676000     22.309000     13.662000
H           1.694000     23.280000     12.240000
C           0.249000     24.052000     13.691000
H           0.366000     24.530000     14.671000
C          -1.031000     23.095000     13.615000
H           0.153000     24.884000     12.982000
H          -1.189000     22.440000     12.749000
H          -2.035000     23.500000     13.793000
H          -0.958000     22.358000     14.425000
$end

--------------------------------------------------------------

             Standard Nuclear Orientation (Angstroms)
    I     Atom           X                Y                Z
 ----------------------------------------------------------------
    1      C      12.6807214180    -0.3776690899     0.5947144281
    2      C      11.7252907745     0.6504637578     0.5943496326
    3      N      12.2738802802    -1.6800922572     0.8070259490
    4      C      10.3673055710     0.3522913282     0.5527036331
    5      C      10.9296556500    -1.9997026327     0.8521961985
    6      C       9.9053590455    -1.0244841602     0.5712417589
    7      C       8.4496181551    -1.3283001915     0.4484725479
    8      C       7.5774525903    -0.4689016558    -0.2270549381
    9      C       7.8808240481    -2.4927699219     1.0289064465
   10      N       6.3120927531    -0.6505376614    -0.3596778766
   11      N       8.5180884344    -3.3735597363     1.8379549029
   12      C       6.4937668275    -2.6835491145     0.9072447582
   13      C       5.7034504646    -1.7537653964     0.2264604427
   14      S       7.4154498598    -4.4527639844     2.2994355252
   15      N       6.1008998187    -3.8468234472     1.5559005531
   16      C       4.2715017477    -1.7855322954     0.3062083968
   17      S       3.3308591634    -2.7012609925     1.4383402275
   18      C       3.4466546797    -1.0118184430    -0.4564345006
   19      C       1.7962568101    -2.1457135374     0.6535194566
   20      S       3.7981882162    -0.0701637419    -1.8977448754
   21      C       2.0427079831    -1.1631617093    -0.2708169132
   22      C       0.5170686730    -2.6753342990     1.0237080014
   23      C       2.0651682532     0.3048519928    -2.0913501611
   24      C       1.2763276311    -0.4178236833    -1.1979665145
   25      N      -0.5318034426    -2.3185000755     0.2878074497
   26      S       0.2826209584    -3.8436822481     2.4097636781
   27      C      -1.6588829152    -2.8959237879     0.8332638811
   28      C      -1.3763951328    -3.6670664862     1.9828884249
   29      C      14.1853706765    -0.2297766930     0.5043128349
   30      H      12.0941450470     1.6676033418     0.4927642387
   31      H       9.7353086681     1.2331098874     0.6149336929
   32      H      10.6997731541    -3.0626000196     0.8934900607
   33      H       8.0121653194     0.4258181480    -0.6712568247
   34      H       1.7530832634     0.9871102504    -2.8707240310
   35      H       0.1952469028    -0.3502885907    -1.1576617982
   36      H      -2.6171966315    -2.7070171593     0.3683476448
   37      H      -2.1351868988    -4.1578354145     2.5784259257
   38      H      14.6676565673     0.3940532616     1.2673393791
   39      C      14.7638093143     0.1830661180    -0.9039966323
   40      H      14.5538792572    -1.2401186714     0.7204181627
   41      H      14.2409687396     1.1354230941    -1.0564201328
   42      H      14.4818976558    -0.5143965763    -1.7024404981
   43      C      16.2707336551     0.4160654993    -0.9406615974
   44      H      16.6914466264     1.2434230789    -0.3555684157
   45      C      16.7234383699     0.6697889165    -2.3704419542
   46      H      16.7031146753    -0.4982447220    -0.5169937174
   47      H      16.5394368839     1.7327262912    -2.5719576876
   48      H      16.1890873246     0.0952272384    -3.1362714642
   49      C      18.2317890814     0.5567999586    -2.4996922023
   50      H      18.6867240513     1.2663053408    -1.7979897826
   51      C      18.6343876128     0.8624174758    -3.9678179992
   52      H      18.6659267822    -0.4066595757    -2.2087279737
   53      H      18.4689894345     1.9324697436    -4.1422358501
   54      H      18.1272418294     0.1763350615    -4.6565436886
   55      H      19.7064551137     0.6433756714    -4.0506489196
   56      C     -11.5288375559    -1.7048300390    -1.7497682659
   57      C     -11.7015170478    -0.3830858952    -1.2978753456
   58      N     -10.2894679850    -2.2142175395    -1.9654727884
   59      C     -10.5847067946     0.3920633420    -0.9177891471
   60      C      -9.2113406325    -1.4219338529    -1.7297993449
   61      C      -9.2652076341    -0.1675736477    -1.1565639467
   62      C      -8.0219605051     0.6354145986    -0.7448596202
   63      C      -6.9147919761     0.6255485187    -1.5079746240
   64      C      -8.0221528834     1.5757302054     0.3521018753
   65      N      -5.8127071099     1.3330019525    -1.1969495663
   66      N      -9.0285397110     1.6770467369     1.2530677535
   67      C      -6.9445156071     2.3117576687     0.7093853396
   68      C      -5.8404484789     2.1450663163    -0.1168898988
   69      S      -8.5205046041     2.7459759179     2.4123299051
   70      N      -7.0408245443     2.9754380577     1.8637799558
   71      C      -4.5759575141     3.0032691029     0.0669349552
   72      S      -4.4902356445     4.5717077759     0.8208320900
   73      C      -3.3242733279     2.7713900888    -0.6042861863
   74      C      -2.8151573591     4.7768063588     0.2409620105
   75      S      -2.8361313219     1.3473417537    -1.3929494359
   76      C      -2.4363198724     3.7628774861    -0.5252836417
   77      C      -2.0179088483     5.9851010959     0.5969179635
   78      C      -1.2880167360     2.1513328567    -1.7313656517
   79      C      -1.2189675142     3.4235753196    -1.2282788593
   80      N      -0.9175374905     6.2486549012    -0.1081077569
   81      S      -2.3751061820     6.9872558678     1.9415554158
   82      C      -0.3986413144     7.4305223877     0.2961656688
   83      C      -0.9466005051     7.8874410158     1.4421565468
   84      C     -12.7413934546    -2.5637684480    -2.0039650444
   85      H     -12.6899238543     0.0325918238    -1.1222478454
   86      H     -10.6114940719     1.3770032460    -0.4614955714
   87      H      -8.2131147423    -1.8189919661    -1.9082368043
   88      H      -6.8809806104     0.0189222893    -2.4119538325
   89      H      -0.6294546844     1.5573414283    -2.3521612760
   90      H      -0.2752847457     3.9542463155    -1.2670748202
   91      H       0.3293513199     7.8881562961    -0.3617856442
   92      H      -0.6582430574     8.7231842493     2.0658722113
   93      H     -13.6095668798    -1.9457989738    -1.7457120042
   94      C     -12.7596008443    -3.8548595299    -1.0781106771
   95      H     -12.7518471858    -2.8926115918    -3.0500926209
   96      H     -12.6794778088    -3.5909352215    -0.0165645130
   97      H     -11.8812686851    -4.4727818588    -1.3048233003
   98      C     -14.1190692571    -4.6458734955    -1.3842014165
   99      H     -14.3653478498    -4.4856504454    -2.4404231873
  100      C     -15.3477427828    -4.2939732968    -0.4974288316
  101      H     -13.8705404889    -5.6878323147    -1.1459551773
  102      H     -15.6185730014    -3.2436170289    -0.6611624667
  103      H     -14.9032683989    -4.2888851457     0.5054578184
  104      C     -16.5185964669    -5.3065757965    -0.5643229872
  105      H     -16.6210645023    -5.6472725319    -1.6016267211
  106      C     -17.8904286588    -4.7551348184     0.0472440860
  107      H     -16.1753321086    -6.1897533211    -0.0108900281
  108      H     -17.9049866381    -4.2468487983     1.0195497925
  109      H     -18.7704858499    -5.4075639694     0.1069143746
  110      H     -18.2654385459    -3.9606012064    -0.6105415357
 ----------------------------------------------------------------

   10   -5663.5025986445      6.91E-06 Convergence criterion met
 Total energy in the final basis set = -5663.5025986445

                    Orbital Energies (a.u.)
 --------------------------------------------------------------

 Alpha MOs
 -- Occupied --
-88.996 -88.992 -88.931 -88.929 -88.926 -88.922 -88.906 -88.901
-14.389 -14.384 -14.383 -14.378 -14.349 -14.348 -14.346 -14.338
-14.330 -14.327 -10.270 -10.269 -10.267 -10.259 -10.256 -10.253
-10.252 -10.252 -10.241 -10.241 -10.238 -10.235 -10.234 -10.233
-10.232 -10.231 -10.230 -10.228 -10.228 -10.227 -10.227 -10.226
-10.226 -10.225 -10.224 -10.221 -10.221 -10.221 -10.219 -10.215
-10.212 -10.212 -10.209 -10.199 -10.199 -10.199 -10.197 -10.196
-10.191 -10.189 -10.186 -10.182 -10.182 -10.181 -10.179 -10.178
-10.176 -10.174 -10.173 -10.171  -8.052  -8.047  -7.991  -7.991
 -7.985  -7.982  -7.966  -7.962  -6.017  -6.012  -6.011  -6.010
 -6.007  -6.005  -5.955  -5.954  -5.952  -5.951  -5.949  -5.948
 -5.948  -5.946  -5.945  -5.943  -5.942  -5.938  -5.930  -5.926
 -5.926  -5.922  -5.922  -5.918  -1.051  -1.035  -0.974  -0.964
 -0.962  -0.962  -0.932  -0.921  -0.917  -0.912  -0.906  -0.895
 -0.847  -0.842  -0.830  -0.828  -0.817  -0.812  -0.809  -0.809
 -0.807  -0.798  -0.792  -0.789  -0.781  -0.780  -0.767  -0.764
 -0.748  -0.745  -0.738  -0.735  -0.728  -0.724  -0.711  -0.706
 -0.692  -0.691  -0.678  -0.674  -0.656  -0.651  -0.651  -0.642
 -0.638  -0.632  -0.623  -0.616  -0.608  -0.607  -0.597  -0.593
 -0.591  -0.589  -0.585  -0.583  -0.581  -0.575  -0.574  -0.567
 -0.553  -0.548  -0.542  -0.540  -0.528  -0.522  -0.516  -0.508
 -0.507  -0.502  -0.501  -0.497  -0.490  -0.482  -0.480  -0.477
 -0.473  -0.473  -0.469  -0.466  -0.459  -0.457  -0.451  -0.448
 -0.440  -0.439  -0.439  -0.437  -0.434  -0.433  -0.428  -0.427
 -0.425  -0.424  -0.422  -0.416  -0.416  -0.415  -0.414  -0.413
 -0.410  -0.409  -0.405  -0.404  -0.402  -0.400  -0.399  -0.397
 -0.394  -0.391  -0.390  -0.389  -0.387  -0.386  -0.386  -0.385
 -0.384  -0.379  -0.368  -0.366  -0.365  -0.361  -0.360  -0.355
 -0.352  -0.351  -0.350  -0.347  -0.346  -0.345  -0.343  -0.343
 -0.338  -0.336  -0.335  -0.334  -0.333  -0.330  -0.320  -0.315
 -0.314  -0.310  -0.309  -0.309  -0.307  -0.305  -0.304  -0.301
 -0.299  -0.297  -0.296  -0.293  -0.292  -0.283  -0.279  -0.278
 -0.273  -0.272  -0.269  -0.265  -0.252  -0.250  -0.247  -0.246
 -0.244  -0.243  -0.237  -0.227  -0.192  -0.188

          Ground-State Mulliken Net Atomic Charges

     Atom                 Charge (a.u.)
  ----------------------------------------
      1 C                     0.274224
      2 C                    -0.110389
      3 N                    -0.494084
      4 C                    -0.095651
      5 C                     0.091829
      6 C                     0.016235
      7 C                     0.045132
      8 C                     0.082964
      9 C                     0.218966
     10 N                    -0.510835
     11 N                    -0.557812
     12 C                     0.188251
     13 C                     0.280719
     14 S                     0.622916
     15 N                    -0.565528
     16 C                    -0.184220
     17 S                     0.317995
     18 C                    -0.141276
     19 C                    -0.253999
     20 S                     0.280540
     21 C                     0.183494
     22 C                     0.070953
     23 C                    -0.318365
     24 C                    -0.046629
     25 N                    -0.437714
     26 S                     0.277884
     27 C                     0.124213
     28 C                    -0.306579
     29 C                    -0.253169
     30 H                     0.087993
     31 H                     0.105210
     32 H                     0.125450
     33 H                     0.105855
     34 H                     0.131373
     35 H                     0.127941
     36 H                     0.122479
     37 H                     0.127014
     38 H                     0.105272
     39 C                    -0.177051
     40 H                     0.125437
     41 H                     0.089014
     42 H                     0.105400
     43 C                    -0.172090
     44 H                     0.090633
     45 C                    -0.165343
     46 H                     0.094391
     47 H                     0.093046
     48 H                     0.089703
     49 C                    -0.181465
     50 H                     0.088230
     51 C                    -0.316549
     52 H                     0.091559
     53 H                     0.104119
     54 H                     0.105901
     55 H                     0.095828
     56 C                     0.286534
     57 C                    -0.134832
     58 N                    -0.500833
     59 C                    -0.052839
     60 C                     0.062129
     61 C                     0.043027
     62 C                     0.066475
     63 C                     0.051497
     64 C                     0.206175
     65 N                    -0.513840
     66 N                    -0.565821
     67 C                     0.236943
     68 C                     0.274615
     69 S                     0.608605
     70 N                    -0.552733
     71 C                    -0.223363
     72 S                     0.307290
     73 C                    -0.122993
     74 C                    -0.288558
     75 S                     0.269183
     76 C                     0.225620
     77 C                     0.064661
     78 C                    -0.306006
     79 C                    -0.050993
     80 N                    -0.433842
     81 S                     0.274177
     82 C                     0.143823
     83 C                    -0.319519
     84 C                    -0.226918
     85 H                     0.088514
     86 H                     0.115661
     87 H                     0.095091
     88 H                     0.117141
     89 H                     0.126128
     90 H                     0.126275
     91 H                     0.117854
     92 H                     0.126632
     93 H                     0.099723
     94 C                    -0.186023
     95 H                     0.122589
     96 H                     0.094686
     97 H                     0.121650
     98 C                    -0.189378
     99 H                     0.092720
    100 C                    -0.173110
    101 H                     0.090835
    102 H                     0.087685
    103 H                     0.093262
    104 C                    -0.172192
    105 H                     0.101084
    106 C                    -0.335727
    107 H                     0.100542
    108 H                     0.106038
    109 H                     0.102127
    110 H                     0.103114
  ----------------------------------------
  Sum of atomic charges =     0.000000

                    Cartesian Multipole Moments
 -----------------------------------------------------------------
    Charge (ESU x 10^10)
                 0.0000
    Dipole Moment (Debye)
         X      -2.6994      Y       3.3364      Z       2.3184
       Tot       4.8779
    Quadrupole Moments (Debye-Ang)
        XX    -413.7530     XY      11.5480     YY    -417.2914
        XZ     -16.0721     YZ       0.3416     ZZ    -442.4009

 Total job time:  88.61s(wall), 976.00s(cpu)
        *  Thank you very much for using Q-Chem.  Have a nice day.  *
