 Q-Chem 4.4, Q-Chem, Inc., Pleasanton, CA (2016)
 Q-Chem 4.4.2 for Intel X86 Linux

User input:
--------------------------------------------------------------
$comment
SP
$end

$rem
MEM_STATIC 5000
MEM_TOTAL 20000
JOBTYPE SP
EXCHANGE B3LYP
BASIS 6-31g(d,p)
$end

$molecule
0 1
C          13.549000      8.901000     -3.064000
C          14.836000      9.407000     -3.316000
N          12.506000      9.739000     -2.844000
C          15.003000     10.798000     -3.318000
C          12.691000     11.095000     -2.928000
C          13.924000     11.698000     -3.135000
C          14.135000     13.192000     -3.074000
C          15.317000     13.738000     -3.678000
C          13.183000     14.076000     -2.563000
N          15.487000     15.083000     -3.825000
N          12.018000     13.848000     -1.941000
C          13.431000     15.457000     -2.757000
C          14.605000     15.965000     -3.387000
S          11.287000     15.299000     -1.635000
N          12.399000     16.235000     -2.433000
C          14.882000     17.410000     -3.753000
S          13.851000     18.781000     -3.332000
C          15.913000     17.837000     -4.545000
C          14.785000     19.894000     -4.291000
S          17.257000     17.014000     -5.283000
C          15.839000     19.176000     -4.796000
C          14.580000     21.264000     -4.513000
C          17.752000     18.539000     -5.953000
C          16.833000     19.585000     -5.715000
N          15.564000     22.122000     -4.661000
S          12.968000     21.962000     -4.321000
C          14.991000     23.406000     -4.961000
C          13.614000     23.504000     -4.833000
C          13.253000      7.413000     -3.110000
H          15.667000      8.718000     -3.432000
H          15.987000     11.125000     -3.638000
H          11.810000     11.723000     -2.802000
H          15.972000     13.032000     -4.186000
H          18.606000     18.593000     -6.615000
H          17.000000     20.600000     -6.057000
H          15.679000     24.231000     -5.092000
H          13.051000     24.423000     -4.926000
H          14.097000      6.733000     -3.283000
C          12.230000      7.078000     -4.250000
H          12.838000      7.068000     -2.155000
H          12.351000      7.730000     -5.124000
H          11.208000      7.143000     -3.857000
C          12.392000      5.638000     -4.763000
H          12.583000      4.855000     -4.018000
C          13.464000      5.573000     -5.895000
H          11.410000      5.417000     -5.200000
H          14.384000      6.134000     -5.693000
H          12.991000      6.128000     -6.715000
C          13.662000      4.100000     -6.288000
H          14.337000      3.690000     -5.526000
C          14.271000      4.161000     -7.727000
H          12.715000      3.546000     -6.301000
H          13.645000      4.660000     -8.477000
H          14.632000      3.174000     -8.042000
H          15.148000      4.810000     -7.605000
C           4.702000     12.722000     -0.640000
C           5.754000     13.660000     -0.607000
N           4.717000     11.685000     -1.457000
C           6.778000     13.553000     -1.542000
C           5.767000     11.482000     -2.338000
C           6.833000     12.406000     -2.369000
C           8.111000     12.099000     -3.206000
C           8.991000     13.107000     -3.533000
C           8.411000     10.847000     -3.906000
N          10.014000     13.068000     -4.403000
N           7.707000      9.755000     -3.754000
C           9.519000     10.757000     -4.716000
C          10.312000     11.915000     -4.969000
S           8.455000      8.669000     -4.664000
N           9.598000      9.545000     -5.348000
C          11.477000     11.863000     -5.861000
S          12.321000     10.368000     -6.340000
C          12.335000     12.961000     -6.180000
C          13.660000     11.283000     -6.974000
S          12.278000     14.617000     -5.705000
C          13.470000     12.638000     -6.815000
C          14.777000     10.633000     -7.620000
C          13.781000     14.801000     -6.459000
C          14.282000     13.733000     -7.141000
N          15.873000     11.333000     -7.728000
S          14.944000      8.930000     -8.036000
C          16.923000     10.574000     -8.174000
C          16.583000      9.314000     -8.504000
C           3.469000     12.707000      0.204000
H           5.599000     14.509000      0.052000
H           7.555000     14.302000     -1.423000
H           5.721000     10.551000     -2.901000
H           8.913000     14.142000     -3.206000
H          14.261000     15.761000     -6.328000
H          15.237000     13.796000     -7.650000
H          17.912000     10.998000     -8.293000
H          17.312000      8.592000     -8.849000
H           3.531000     11.906000      0.951000
C           2.124000     12.702000     -0.616000
H           3.367000     13.605000      0.825000
H           1.997000     11.712000     -1.069000
H           2.069000     13.380000     -1.476000
C           0.923000     13.075000      0.335000
H           1.084000     12.747000      1.369000
C          -0.309000     12.393000     -0.090000
H           0.812000     14.166000      0.295000
H          -0.229000     11.302000      0.001000
H          -0.459000     12.623000     -1.152000
C          -1.517000     12.820000      0.789000
H          -1.365000     12.577000      1.848000
C          -2.728000     12.146000      0.196000
H          -1.632000     13.910000      0.745000
H          -2.643000     11.112000     -0.158000
H          -2.997000     12.706000     -0.709000
H          -3.619000     12.042000      0.828000
$end

--------------------------------------------------------------

             Standard Nuclear Orientation (Angstroms)
    I     Atom           X                Y                Z
 ----------------------------------------------------------------
    1      C       0.4247561911    -4.1815862024    -2.4055544608
    2      C      -0.9674527160    -4.2541430696    -2.5855512935
    3      N       1.0205193713    -3.0088763194    -2.0764484543
    4      C      -1.7096237176    -3.0765061184    -2.4270349982
    5      C       0.2547557407    -1.8931461388    -1.8556108977
    6      C      -1.1201566314    -1.8472763521    -2.0407025819
    7      C      -1.9265148359    -0.5745125418    -1.9400212557
    8      C      -3.3456198883    -0.6804653567    -1.7530163063
    9      C      -1.3461312612     0.6946188221    -1.9033949336
   10      N      -4.1116353840     0.4118326884    -1.4708120520
   11      N      -0.0733158917     1.0826729447    -2.0629193299
   12      C      -2.2078028335     1.7777594756    -1.6023477176
   13      C      -3.6110648913     1.6330275476    -1.3946261107
   14      S       0.0156379615     2.7176053559    -1.8338315243
   15      N      -1.5662010673     2.9244672252    -1.3816839219
   16      C      -4.5738393029     2.7114780844    -0.9377674103
   17      S      -4.1607557397     4.4138944822    -0.7119724185
   18      C      -5.8655591834     2.4958972465    -0.5408560187
   19      C      -5.7117709813     4.7916476246    -0.0173788080
   20      S      -6.8724734286     1.0769221254    -0.5101589760
   21      C      -6.4493034415     3.6364301947    -0.0720007797
   22      C      -6.1883542309     6.0138922071     0.4798088697
   23      C      -8.1426167671     2.0597650155     0.1533964120
   24      C      -7.7375312132     3.3796706727     0.4518520203
   25      N      -7.4428402811     6.3904948462     0.3760822969
   26      S      -5.0525734816     7.2513315605     1.0287696479
   27      C      -7.5890843945     7.6407094905     1.0707484057
   28      C      -6.4147136638     8.2441702122     1.4936024517
   29      C       1.3056380349    -5.4150177095    -2.4866093477
   30      H      -1.4161545213    -5.1896955110    -2.9051546715
   31      H      -2.7843635228    -3.2233152295    -2.4581225511
   32      H       0.7753912016    -0.9914534619    -1.5357515016
   33      H      -3.7471651718    -1.6873993705    -1.6511817487
   34      H      -9.0853274835     1.6130633651     0.4401543947
   35      H      -8.4142206038     4.1213447553     0.8606172633
   36      H      -8.5708441465     8.0958339972     1.0589385482
   37      H      -6.3538696446     9.2285103277     1.9380701586
   38      H       0.8257788194    -6.3641518157    -2.7578003908
   39      C       2.0037758426    -5.6989356967    -1.1117100140
   40      H       2.0802405539    -5.2916067173    -3.2534441829
   41      H       1.3720290329    -5.4231908070    -0.2581986056
   42      H       2.9631071327    -5.1686978345    -1.0706090974
   43      C       2.3391806755    -7.1885382873    -0.9339441005
   44      H       2.7233276123    -7.7276452360    -1.8093810365
   45      C       1.1277072635    -7.9574072657    -0.3207510918
   46      H       3.1522182756    -7.1748817140    -0.1971148402
   47      H       0.1549792691    -7.7177388282    -0.7660423325
   48      H       1.0621287369    -7.5454862398     0.6942240435
   49      C       1.4804368962    -9.4529047641    -0.2712431269
   50      H       1.2940625328    -9.8234540820    -1.2872779687
   51      C       0.5246676535   -10.0409821915     0.8177899735
   52      H       2.5268209106    -9.6203880005     0.0132280669
   53      H       0.6341492292    -9.6047544558     1.8183378970
   54      H       0.5506768108   -11.1377932603     0.8111564937
   55      H      -0.4717202579    -9.7321321483     0.4756835853
   56      C       7.0504269248     3.0113469372    -0.6427651431
   57      C       5.7544953883     3.4896358236    -0.9246129633
   58      N       7.2523525771     1.8399073108    -0.0682756023
   59      C       4.6580252712     2.7590904415    -0.4792965286
   60      C       6.1901924911     1.0311872987     0.3027471652
   61      C       4.8701594882     1.4730108094     0.0716674028
   62      C       3.6697766639     0.5058857585     0.2993782088
   63      C       2.3892047328     0.9983047145     0.4220652124
   64      C       3.7530525931    -0.9205373094     0.6247800386
   65      N       1.2827435524     0.3480020050     0.8193057470
   66      N       4.8693475293    -1.6011080180     0.5812699694
   67      C       2.6126685333    -1.6277081154     0.9269350441
   68      C       1.3630889847    -0.9496207239     1.0390530226
   69      S       4.4377321903    -3.0984098932     0.9538223733
   70      N       2.8874209116    -2.9214991435     1.2808063570
   71      C       0.1342763416    -1.6673608897     1.4002476274
   72      S      -0.0815977067    -3.4324262400     1.2788198526
   73      C      -1.1638943382    -1.0849240908     1.5382666891
   74      C      -1.8025280993    -3.2739276873     1.4918428386
   75      S      -1.6929922260     0.5488124450     1.3893695542
   76      C      -2.1776155837    -1.9561414309     1.6338103054
   77      C      -2.6632479704    -4.4328017119     1.5524835716
   78      C      -3.2739735185    -0.0352094061     1.5335833888
   79      C      -3.4370494198    -1.3624973713     1.7952356537
   80      N      -3.9344282088    -4.2235221475     1.3446786978
   81      S      -2.1915056658    -6.1288298920     1.5983268948
   82      C      -4.6341835006    -5.3961225999     1.2313309559
   83      C      -3.8941106980    -6.4966864851     1.4618767894
   84      C       8.3527575927     3.6787774035    -0.9449594584
   85      H       5.7087088191     4.4952895486    -1.3316402051
   86      H       3.7034780945     3.1906304132    -0.7647854782
   87      H       6.4707313881     0.0511822073     0.6858058398
   88      H       2.1033713524     2.0431210714     0.3176810223
   89      H      -4.0613314752     0.6905505257     1.3835801572
   90      H      -4.4268739749    -1.7904521205     1.9055854736
   91      H      -5.6980188990    -5.3982776427     1.0305634263
   92      H      -4.3060390192    -7.4947240792     1.3845074235
   93      H       8.8557865373     3.1690560124    -1.7759829144
   94      C       9.2755404692     3.8957383193     0.3131540992
   95      H       8.2296991968     4.6982009288    -1.3297727992
   96      H       9.6820439755     2.9243551126     0.6174690102
   97      H       8.7874292446     4.2598821219     1.2249960391
   98      C      10.4138124497     4.9289217771    -0.0372739834
   99      H      10.7097599693     4.8911309704    -1.0925691652
  100      C      11.6428739378     4.6232609271     0.7107583042
  101      H      10.0282368810     5.9250748420     0.2141470820
  102      H      12.0694641226     3.6531403748     0.4246657872
  103      H      11.3717316311     4.5617544377     1.7718628237
  104      C      12.7435226056     5.6853070617     0.4371444926
  105      H      13.0176941293     5.7336675839    -0.6240459877
  106      C      13.9035645529     5.3291626645     1.3315212863
  107      H      12.3606730422     6.6807623577     0.6935737528
  108      H      14.1753212927     4.2747205033     1.4580005456
  109      H      13.6369058483     5.6492556661     2.3471095914
  110      H      14.8910054427     5.7352905080     1.0782592404
 ----------------------------------------------------------------

   10   -5663.5070573622      4.75E-06 Convergence criterion met
 Total energy in the final basis set = -5663.5070573622

                    Orbital Energies (a.u.)
 --------------------------------------------------------------

 Alpha MOs
 -- Occupied --
-88.986 -88.984 -88.928 -88.926 -88.923 -88.923 -88.911 -88.906
-14.385 -14.381 -14.376 -14.374 -14.350 -14.347 -14.341 -14.338
-14.326 -14.318 -10.268 -10.268 -10.266 -10.256 -10.253 -10.252
-10.250 -10.249 -10.245 -10.244 -10.239 -10.236 -10.234 -10.233
-10.233 -10.230 -10.228 -10.227 -10.227 -10.226 -10.224 -10.224
-10.222 -10.221 -10.221 -10.220 -10.220 -10.219 -10.212 -10.211
-10.210 -10.209 -10.201 -10.198 -10.197 -10.197 -10.193 -10.186
-10.186 -10.182 -10.181 -10.176 -10.176 -10.176 -10.175 -10.175
-10.175 -10.169 -10.168 -10.165  -8.041  -8.041  -7.989  -7.985
 -7.984  -7.982  -7.971  -7.967  -6.006  -6.006  -6.001  -6.000
 -5.999  -5.998  -5.953  -5.950  -5.949  -5.948  -5.946  -5.946
 -5.945  -5.945  -5.943  -5.942  -5.941  -5.939  -5.935  -5.932
 -5.932  -5.928  -5.927  -5.924  -1.054  -1.029  -0.976  -0.963
 -0.962  -0.958  -0.930  -0.927  -0.922  -0.920  -0.911  -0.897
 -0.855  -0.849  -0.831  -0.825  -0.809  -0.806  -0.806  -0.805
 -0.804  -0.801  -0.794  -0.793  -0.781  -0.779  -0.767  -0.766
 -0.752  -0.749  -0.742  -0.742  -0.727  -0.726  -0.710  -0.705
 -0.694  -0.692  -0.676  -0.672  -0.652  -0.650  -0.646  -0.639
 -0.635  -0.634  -0.623  -0.620  -0.609  -0.605  -0.592  -0.591
 -0.590  -0.587  -0.584  -0.583  -0.579  -0.577  -0.570  -0.568
 -0.553  -0.552  -0.542  -0.538  -0.524  -0.520  -0.509  -0.509
 -0.507  -0.506  -0.500  -0.499  -0.481  -0.481  -0.479  -0.474
 -0.473  -0.470  -0.468  -0.466  -0.462  -0.458  -0.450  -0.447
 -0.444  -0.441  -0.440  -0.439  -0.433  -0.431  -0.429  -0.428
 -0.426  -0.424  -0.422  -0.421  -0.420  -0.417  -0.413  -0.411
 -0.409  -0.408  -0.405  -0.404  -0.403  -0.399  -0.398  -0.397
 -0.395  -0.392  -0.391  -0.391  -0.386  -0.386  -0.382  -0.381
 -0.378  -0.374  -0.372  -0.370  -0.367  -0.363  -0.358  -0.355
 -0.354  -0.352  -0.350  -0.347  -0.346  -0.345  -0.340  -0.340
 -0.337  -0.337  -0.335  -0.332  -0.329  -0.328  -0.326  -0.320
 -0.315  -0.314  -0.312  -0.306  -0.304  -0.300  -0.295  -0.294
 -0.291  -0.290  -0.287  -0.287  -0.281  -0.280  -0.279  -0.278
 -0.274  -0.270  -0.267  -0.265  -0.255  -0.254  -0.248  -0.246
 -0.242  -0.239  -0.229  -0.229  -0.194  -0.190

          Ground-State Mulliken Net Atomic Charges

     Atom                 Charge (a.u.)
  ----------------------------------------
      1 C                     0.286172
      2 C                    -0.120282
      3 N                    -0.508708
      4 C                    -0.095274
      5 C                     0.055917
      6 C                     0.069385
      7 C                     0.035061
      8 C                     0.073269
      9 C                     0.311703
     10 N                    -0.538258
     11 N                    -0.595925
     12 C                     0.183814
     13 C                     0.326206
     14 S                     0.588365
     15 N                    -0.565299
     16 C                    -0.242403
     17 S                     0.327604
     18 C                    -0.093756
     19 C                    -0.207623
     20 S                     0.286671
     21 C                     0.154989
     22 C                     0.050245
     23 C                    -0.311084
     24 C                    -0.073332
     25 N                    -0.426112
     26 S                     0.258587
     27 C                     0.093940
     28 C                    -0.293516
     29 C                    -0.229851
     30 H                     0.090582
     31 H                     0.094284
     32 H                     0.136724
     33 H                     0.127830
     34 H                     0.125196
     35 H                     0.123156
     36 H                     0.114419
     37 H                     0.137914
     38 H                     0.096143
     39 C                    -0.173803
     40 H                     0.118390
     41 H                     0.114793
     42 H                     0.100094
     43 C                    -0.197946
     44 H                     0.086812
     45 C                    -0.178505
     46 H                     0.090819
     47 H                     0.095080
     48 H                     0.098106
     49 C                    -0.174810
     50 H                     0.097809
     51 C                    -0.321048
     52 H                     0.099068
     53 H                     0.109800
     54 H                     0.094646
     55 H                     0.097664
     56 C                     0.277448
     57 C                    -0.123690
     58 N                    -0.489105
     59 C                    -0.079726
     60 C                     0.064296
     61 C                     0.032664
     62 C                     0.089604
     63 C                     0.026650
     64 C                     0.204620
     65 N                    -0.531099
     66 N                    -0.545665
     67 C                     0.216437
     68 C                     0.303528
     69 S                     0.604266
     70 N                    -0.540289
     71 C                    -0.246663
     72 S                     0.346825
     73 C                    -0.122152
     74 C                    -0.254847
     75 S                     0.286415
     76 C                     0.178960
     77 C                     0.056340
     78 C                    -0.307057
     79 C                    -0.052593
     80 N                    -0.435499
     81 S                     0.259515
     82 C                     0.125380
     83 C                    -0.306233
     84 C                    -0.221336
     85 H                     0.088051
     86 H                     0.100551
     87 H                     0.138190
     88 H                     0.096808
     89 H                     0.138573
     90 H                     0.128460
     91 H                     0.115069
     92 H                     0.127764
     93 H                     0.121142
     94 C                    -0.176200
     95 H                     0.086523
     96 H                     0.117916
     97 H                     0.093498
     98 C                    -0.179616
     99 H                     0.088814
    100 C                    -0.166530
    101 H                     0.089963
    102 H                     0.096964
    103 H                     0.089044
    104 C                    -0.176877
    105 H                     0.092675
    106 C                    -0.318154
    107 H                     0.093896
    108 H                     0.099900
    109 H                     0.102436
    110 H                     0.090425
  ----------------------------------------
  Sum of atomic charges =     0.000000

                    Cartesian Multipole Moments
 -----------------------------------------------------------------
    Charge (ESU x 10^10)
                 0.0000
    Dipole Moment (Debye)
         X      -2.5753      Y      -0.8758      Z      -0.0355
       Tot       2.7204
    Quadrupole Moments (Debye-Ang)
        XX    -441.3601     XY       7.6885     YY    -385.6592
        XZ     -10.6467     YZ       9.2580     ZZ    -452.0235

 Total job time:  115.51s(wall), 1266.85s(cpu)
        *  Thank you very much for using Q-Chem.  Have a nice day.  *
