 Q-Chem 4.4, Q-Chem, Inc., Pleasanton, CA (2016)
 Q-Chem 4.4.2 for Intel X86 Linux

User input:
--------------------------------------------------------------
$comment
SP
$end

$rem
MEM_STATIC 5000
MEM_TOTAL 20000
JOBTYPE SP
EXCHANGE B3LYP
BASIS 6-31g(d,p)
$end

$molecule
0 1
C          11.657000     11.567000      1.569000
C          10.556000     11.708000      0.751000
N          11.552000     11.690000      2.871000
C           9.301000     12.059000      1.255000
C          10.317000     11.924000      3.433000
C           9.149000     12.129000      2.685000
C           7.832000     12.454000      3.346000
C           6.951000     13.288000      2.622000
C           7.248000     11.793000      4.484000
N           5.686000     13.575000      3.067000
N           7.843000     10.876000      5.183000
C           5.961000     11.991000      4.881000
C           5.216000     12.986000      4.160000
S           6.767000     10.331000      6.257000
N           5.534000     11.254000      5.878000
C           3.938000     13.530000      4.674000
S           2.667000     13.860000      3.632000
C           3.664000     13.797000      5.962000
C           1.691000     14.400000      4.977000
S           4.743000     13.844000      7.363000
C           2.407000     14.326000      6.139000
C           0.339000     14.941000      4.981000
C           3.356000     14.419000      8.264000
C           2.262000     14.618000      7.497000
N          -0.301000     14.761000      3.822000
S          -0.426000     16.072000      6.150000
C          -1.523000     15.402000      3.875000
C          -1.765000     16.160000      4.948000
C          13.046000     11.201000      0.998000
H          10.673000     11.575000     -0.321000
H           8.405000     12.091000      0.643000
H          10.384000     12.087000      4.508000
H           7.263000     13.830000      1.730000
H           3.419000     14.578000      9.332000
H           1.328000     15.003000      7.892000
H          -2.185000     15.142000      3.060000
H          -2.632000     16.770000      5.164000
H          13.174000     11.832000      0.109000
C          13.292000      9.785000      0.489000
H          13.808000     11.456000      1.745000
H          14.251000      9.607000     -0.013000
H          12.563000      9.547000     -0.295000
C          13.124000      8.709000      1.639000
H          13.911000      8.877000      2.384000
C          13.057000      7.241000      1.146000
H          12.225000      8.952000      2.217000
H          12.334000      7.155000      0.325000
H          12.809000      6.599000      2.001000
C          14.439000      6.752000      0.524000
H          14.671000      7.386000     -0.341000
C          14.392000      5.326000      0.026000
H          15.269000      6.909000      1.224000
H          15.418000      4.938000      0.023000
H          13.953000      5.242000     -0.976000
H          13.816000      4.835000      0.820000
C           4.702000     12.722000     -0.640000
C           5.754000     13.660000     -0.607000
N           4.717000     11.685000     -1.457000
C           6.778000     13.553000     -1.542000
C           5.767000     11.482000     -2.338000
C           6.833000     12.406000     -2.369000
C           8.111000     12.099000     -3.206000
C           8.991000     13.107000     -3.533000
C           8.411000     10.847000     -3.906000
N          10.014000     13.068000     -4.403000
N           7.707000      9.755000     -3.754000
C           9.519000     10.757000     -4.716000
C          10.312000     11.915000     -4.969000
S           8.455000      8.669000     -4.664000
N           9.598000      9.545000     -5.348000
C          11.477000     11.863000     -5.861000
S          12.321000     10.368000     -6.340000
C          12.335000     12.961000     -6.180000
C          13.660000     11.283000     -6.974000
S          12.278000     14.617000     -5.705000
C          13.470000     12.638000     -6.815000
C          14.777000     10.633000     -7.620000
C          13.781000     14.801000     -6.459000
C          14.282000     13.733000     -7.141000
N          15.873000     11.333000     -7.728000
S          14.944000      8.930000     -8.036000
C          16.923000     10.574000     -8.174000
C          16.583000      9.314000     -8.504000
C           3.469000     12.707000      0.204000
H           5.599000     14.509000      0.052000
H           7.555000     14.302000     -1.423000
H           5.721000     10.551000     -2.901000
H           8.913000     14.142000     -3.206000
H          14.261000     15.761000     -6.328000
H          15.237000     13.796000     -7.650000
H          17.912000     10.998000     -8.293000
H          17.312000      8.592000     -8.849000
H           3.531000     11.906000      0.951000
C           2.124000     12.702000     -0.616000
H           3.367000     13.605000      0.825000
H           1.997000     11.712000     -1.069000
H           2.069000     13.380000     -1.476000
C           0.923000     13.075000      0.335000
H           1.084000     12.747000      1.369000
C          -0.309000     12.393000     -0.090000
H           0.812000     14.166000      0.295000
H          -0.229000     11.302000      0.001000
H          -0.459000     12.623000     -1.152000
C          -1.517000     12.820000      0.789000
H          -1.365000     12.577000      1.848000
C          -2.728000     12.146000      0.196000
H          -1.632000     13.910000      0.745000
H          -2.643000     11.112000     -0.158000
H          -2.997000     12.706000     -0.709000
H          -3.619000     12.042000      0.828000
$end

--------------------------------------------------------------

             Standard Nuclear Orientation (Angstroms)
    I     Atom           X                Y                Z
 ----------------------------------------------------------------
    1      C      -1.9350578290    -3.7452769007    -1.0405465563
    2      C      -1.6238179161    -2.4382688924    -0.7306017503
    3      N      -0.9923663869    -4.6372818213    -1.2329473530
    4      C      -0.3030627261    -1.9852038577    -0.6798099941
    5      C       0.3270775199    -4.2728938395    -1.0842389954
    6      C       0.7459286616    -2.9616759630    -0.8177349589
    7      C       2.2082782979    -2.5986878714    -0.7352232233
    8      C       2.5605787472    -1.2972735475    -1.1572399895
    9      C       3.2366332451    -3.3054898389    -0.0169349238
   10      N       3.8374794602    -0.8115564527    -1.0379819800
   11      N       3.0616049697    -4.4433475935     0.5815296391
   12      C       4.4804747339    -2.7954561896     0.1973219955
   13      C       4.7676948284    -1.5308858149    -0.4217558547
   14      S       4.4345032964    -4.7800606120     1.3625875934
   15      N       5.2867144006    -3.5087967446     0.9460741924
   16      C       6.1514529592    -1.0176185642    -0.5449880124
   17      S       6.4820413887     0.6123914557    -0.3355038230
   18      C       7.2390301228    -1.7592623156    -0.8141523848
   19      C       8.1790005904     0.3164592416    -0.6286839593
   20      S       7.3587856126    -3.4429847767    -1.3432915882
   21      C       8.3867912917    -1.0067522021    -0.9012834819
   22      C       9.2874925995     1.2594367203    -0.6800643095
   23      C       9.0788431469    -3.1507412610    -1.4922573770
   24      C       9.4297507420    -1.8702393163    -1.2434509680
   25      N       8.9735648263     2.4643008267    -0.1952624549
   26      S      10.8369624722     1.1394418498    -1.5832206330
   27      C      10.0385507813     3.3218836848    -0.3884736270
   28      C      11.0646530377     2.8627524039    -1.1101173247
   29      C      -3.4007281137    -4.2303856122    -1.1166921699
   30      H      -2.4289742302    -1.7306991785    -0.5527523480
   31      H      -0.0321152357    -0.9855831854    -0.3546485433
   32      H       1.0049374884    -5.0823393550    -1.3525425933
   33      H       1.8666783882    -0.6509580744    -1.6934774379
   34      H       9.7543080740    -3.9536500808    -1.7548569950
   35      H      10.4509496840    -1.5133545741    -1.3234009633
   36      H       9.9463678380     4.2560568963     0.1490128528
   37      H      11.9672397968     3.3794524587    -1.4081159749
   38      H      -3.9390277300    -3.4532756919    -1.6745449237
   39      C      -4.2009244776    -4.3867797760     0.1716709950
   40      H      -3.4270343655    -5.1730672274    -1.6773501347
   41      H      -5.2670653167    -4.6189016671     0.0583919633
   42      H      -4.2192860309    -3.4306085358     0.7084581155
   43      C      -3.5561351794    -5.4636811160     1.1376059125
   44      H      -3.6199901406    -6.4439953694     0.6502410507
   45      C      -4.1263701520    -5.4630657621     2.5789225665
   46      H      -2.4717557355    -5.3061914243     1.1631444854
   47      H      -4.1418145707    -4.4395782452     2.9743979422
   48      H      -3.5239701455    -6.1470037826     3.1905074064
   49      C      -5.6450536669    -5.9399518799     2.6248465494
   50      H      -6.2437759739    -5.2412793090     2.0270227979
   51      C      -6.2246083357    -5.9354706296     4.0204773402
   52      H      -5.7718459017    -6.9144518292     2.1371759863
   53      H      -7.0611628761    -6.6447568520     4.0383254699
   54      H      -6.5654149543    -4.9407895964     4.3339123268
   55      H      -5.3892182237    -6.3380459034     4.6064376713
   56      C       1.9942822247     2.3399896326     0.4139461252
   57      C       1.4340760958     1.9610950544    -0.8230845905
   58      N       1.2431248365     2.6596165223     1.4515800826
   59      C       0.0552707415     2.0394381662    -0.9874261608
   60      C      -0.1396762956     2.6547027071     1.3637912254
   61      C      -0.7543573669     2.3122277229     0.1406922655
   62      C      -2.2978863309     2.1107908858     0.0696743936
   63      C      -2.9494652301     2.1258276414    -1.1438377958
   64      C      -3.2273969992     2.1137951043     1.2025931428
   65      N      -4.2716289942     2.1745484094    -1.3772028911
   66      N      -2.8354966554     2.1046204231     2.4505971275
   67      C      -4.5838591858     2.0527201873     0.9831752972
   68      C      -5.0928719928     2.1048643143    -0.3479929688
   69      S      -4.1960865040     2.0506665099     3.2949218511
   70      N      -5.2986598233     2.1451239845     2.1472760604
   71      C      -6.5363884755     2.0832504389    -0.6151745633
   72      S      -7.7734690047     1.5307429486     0.5429140506
   73      C      -7.1481384119     2.1304480399    -1.9063226577
   74      C      -8.9799917858     1.4831359523    -0.7117326537
   75      S      -6.4596770994     2.2691843187    -3.4804837887
   76      C      -8.4593796388     1.8551507106    -1.9315580560
   77      C     -10.3522248035     1.1347768744    -0.4234142570
   78      C      -8.0143967673     2.0107479125    -4.0948439258
   79      C      -9.0424146691     1.9338269662    -3.2037707741
   80      N     -11.0846592497     0.7701246342    -1.4400009605
   81      S     -11.0932041844     0.8734501023     1.1525971248
   82      C     -12.3009121890     0.2786396157    -1.0441875394
   83      C     -12.5223779824     0.3743348827     0.2801595896
   84      C       3.4431043674     2.4191176243     0.7710219709
   85      H       2.1476926516     1.7907154296    -1.6236026695
   86      H      -0.2858928863     1.7035731721    -1.9619481384
   87      H      -0.6602795781     2.8471692794     2.3006876129
   88      H      -2.4685567886     2.2145529541    -2.1159966768
   89      H      -8.0859552425     1.8995117380    -5.1680013691
   90      H     -10.0606480996     1.7771563882    -3.5410095781
   91      H     -13.0183789181    -0.0924717371    -1.7650036438
   92      H     -13.4296596006     0.0050735563     0.7408505251
   93      H       3.7150614809     1.5904111897     1.4364083051
   94      C       3.9026187256     3.8298429797     1.3003144479
   95      H       4.1032614465     2.2602445671    -0.0900244754
   96      H       3.5004861908     3.9697805711     2.3103366729
   97      H       3.5273384581     4.7056115239     0.7576329779
   98      C       5.4766038582     3.9181041328     1.2736354092
   99      H       5.9580289479     2.9464753107     1.4374289224
  100      C       5.9688631254     4.7722350672     2.3652920222
  101      H       5.7564684150     4.3205209074     0.2918316766
  102      H       5.7447192489     4.3493097872     3.3531461259
  103      H       5.4411546849     5.7310920804     2.2920729664
  104      C       7.5126247559     4.9344456987     2.2965771110
  105      H       8.0342565484     3.9730347579     2.3815669698
  106      C       7.8826644324     5.9060132862     3.3881690956
  107      H       7.7926461091     5.3419659372     1.3174058813
  108      H       7.3793875309     5.8339529033     4.3593625169
  109      H       7.6115849775     6.9083985734     3.0321836112
  110      H       8.9247585940     5.9202125892     3.7316208947
 ----------------------------------------------------------------

    9   -5663.5034771275      6.28E-06 Convergence criterion met
 Total energy in the final basis set = -5663.5034771275

                    Orbital Energies (a.u.)
 --------------------------------------------------------------

 Alpha MOs
 -- Occupied --
-88.990 -88.990 -88.929 -88.928 -88.928 -88.925 -88.911 -88.909
-14.391 -14.384 -14.381 -14.376 -14.351 -14.345 -14.340 -14.337
-14.325 -14.320 -10.269 -10.269 -10.262 -10.261 -10.256 -10.255
-10.252 -10.250 -10.243 -10.240 -10.240 -10.233 -10.232 -10.231
-10.228 -10.228 -10.228 -10.227 -10.227 -10.226 -10.226 -10.226
-10.225 -10.225 -10.224 -10.221 -10.221 -10.220 -10.220 -10.215
-10.214 -10.214 -10.202 -10.199 -10.199 -10.198 -10.198 -10.190
-10.184 -10.182 -10.178 -10.175 -10.173 -10.172 -10.170 -10.168
-10.168 -10.161 -10.161 -10.160  -8.047  -8.046  -7.990  -7.987
 -7.987  -7.985  -7.972  -7.971  -6.012  -6.011  -6.006  -6.006
 -6.005  -6.004  -5.954  -5.952  -5.951  -5.951  -5.949  -5.948
 -5.947  -5.947  -5.945  -5.944  -5.944  -5.942  -5.937  -5.935
 -5.933  -5.931  -5.928  -5.928  -1.068  -1.060  -0.977  -0.967
 -0.961  -0.957  -0.939  -0.932  -0.928  -0.926  -0.921  -0.918
 -0.859  -0.858  -0.831  -0.829  -0.815  -0.812  -0.807  -0.799
 -0.799  -0.797  -0.795  -0.794  -0.780  -0.779  -0.768  -0.767
 -0.753  -0.749  -0.743  -0.741  -0.735  -0.731  -0.711  -0.710
 -0.698  -0.694  -0.678  -0.676  -0.653  -0.652  -0.649  -0.643
 -0.633  -0.633  -0.629  -0.626  -0.611  -0.606  -0.602  -0.597
 -0.592  -0.590  -0.586  -0.584  -0.575  -0.574  -0.563  -0.558
 -0.556  -0.551  -0.546  -0.538  -0.529  -0.524  -0.522  -0.511
 -0.509  -0.508  -0.503  -0.502  -0.491  -0.485  -0.483  -0.480
 -0.471  -0.470  -0.469  -0.464  -0.459  -0.455  -0.449  -0.447
 -0.445  -0.442  -0.441  -0.437  -0.435  -0.434  -0.432  -0.430
 -0.429  -0.425  -0.421  -0.420  -0.417  -0.414  -0.414  -0.411
 -0.410  -0.409  -0.407  -0.405  -0.403  -0.402  -0.400  -0.398
 -0.396  -0.395  -0.392  -0.391  -0.390  -0.385  -0.383  -0.381
 -0.378  -0.376  -0.373  -0.370  -0.363  -0.362  -0.361  -0.360
 -0.357  -0.354  -0.353  -0.351  -0.351  -0.345  -0.343  -0.341
 -0.339  -0.337  -0.333  -0.332  -0.325  -0.322  -0.320  -0.318
 -0.317  -0.310  -0.308  -0.306  -0.305  -0.301  -0.299  -0.298
 -0.298  -0.293  -0.289  -0.287  -0.287  -0.281  -0.280  -0.279
 -0.278  -0.277  -0.269  -0.267  -0.257  -0.255  -0.251  -0.250
 -0.247  -0.241  -0.234  -0.232  -0.198  -0.193

          Ground-State Mulliken Net Atomic Charges

     Atom                 Charge (a.u.)
  ----------------------------------------
      1 C                     0.297351
      2 C                    -0.122528
      3 N                    -0.485829
      4 C                    -0.082748
      5 C                     0.068121
      6 C                     0.033525
      7 C                     0.040175
      8 C                     0.048746
      9 C                     0.250753
     10 N                    -0.510297
     11 N                    -0.543413
     12 C                     0.204946
     13 C                     0.250063
     14 S                     0.597745
     15 N                    -0.530860
     16 C                    -0.219148
     17 S                     0.378255
     18 C                    -0.111533
     19 C                    -0.241175
     20 S                     0.252688
     21 C                     0.176572
     22 C                     0.052493
     23 C                    -0.292726
     24 C                    -0.082965
     25 N                    -0.442371
     26 S                     0.252567
     27 C                     0.140220
     28 C                    -0.315210
     29 C                    -0.228097
     30 H                     0.089982
     31 H                     0.119295
     32 H                     0.112134
     33 H                     0.112800
     34 H                     0.130393
     35 H                     0.102534
     36 H                     0.115641
     37 H                     0.132365
     38 H                     0.098601
     39 C                    -0.179148
     40 H                     0.116368
     41 H                     0.102829
     42 H                     0.085182
     43 C                    -0.179513
     44 H                     0.092312
     45 C                    -0.176934
     46 H                     0.101528
     47 H                     0.091383
     48 H                     0.090149
     49 C                    -0.182150
     50 H                     0.089764
     51 C                    -0.311503
     52 H                     0.091837
     53 H                     0.099851
     54 H                     0.103850
     55 H                     0.102156
     56 C                     0.273627
     57 C                    -0.134287
     58 N                    -0.484999
     59 C                    -0.091307
     60 C                     0.062381
     61 C                     0.032119
     62 C                     0.075853
     63 C                     0.024079
     64 C                     0.209618
     65 N                    -0.532811
     66 N                    -0.545304
     67 C                     0.180583
     68 C                     0.324923
     69 S                     0.602330
     70 N                    -0.531299
     71 C                    -0.242474
     72 S                     0.323518
     73 C                    -0.119127
     74 C                    -0.242060
     75 S                     0.292969
     76 C                     0.178772
     77 C                     0.060644
     78 C                    -0.304751
     79 C                    -0.047115
     80 N                    -0.431948
     81 S                     0.261581
     82 C                     0.127944
     83 C                    -0.302387
     84 C                    -0.231254
     85 H                     0.108354
     86 H                     0.105612
     87 H                     0.138354
     88 H                     0.103638
     89 H                     0.123239
     90 H                     0.127676
     91 H                     0.116024
     92 H                     0.129269
     93 H                     0.119637
     94 C                    -0.178925
     95 H                     0.113833
     96 H                     0.112848
     97 H                     0.090444
     98 C                    -0.184338
     99 H                     0.111570
    100 C                    -0.169406
    101 H                     0.092413
    102 H                     0.094215
    103 H                     0.084312
    104 C                    -0.181154
    105 H                     0.107232
    106 C                    -0.318857
    107 H                     0.091896
    108 H                     0.098728
    109 H                     0.099769
    110 H                     0.086772
  ----------------------------------------
  Sum of atomic charges =     0.000000

                    Cartesian Multipole Moments
 -----------------------------------------------------------------
    Charge (ESU x 10^10)
                 0.0000
    Dipole Moment (Debye)
         X      -0.8001      Y      -1.1066      Z      -0.7243
       Tot       1.5457
    Quadrupole Moments (Debye-Ang)
        XX    -358.1687     XY      -0.4386     YY    -451.6994
        XZ     -12.7986     YZ      -6.0174     ZZ    -441.1928

 Total job time:  88.92s(wall), 998.97s(cpu)
        *  Thank you very much for using Q-Chem.  Have a nice day.  *
