 Q-Chem 4.4, Q-Chem, Inc., Pleasanton, CA (2016)
 Q-Chem 4.4.2 for Intel X86 Linux

User input:
--------------------------------------------------------------
$comment
SP
$end

$rem
MEM_STATIC 5000
MEM_TOTAL 20000
JOBTYPE SP
EXCHANGE B3LYP
BASIS 6-31g(d,p)
$end

$molecule
0 1
C           0.249000     14.535000     -4.178000
C           0.763000     14.896000     -5.439000
N           0.802000     14.992000     -3.035000
C           1.815000     15.752000     -5.544000
C           1.723000     15.898000     -3.104000
C           2.265000     16.360000     -4.382000
C           3.267000     17.475000     -4.489000
C           2.966000     18.596000     -5.342000
C           4.332000     17.647000     -3.537000
N           3.708000     19.764000     -5.299000
N           4.746000     16.708000     -2.666000
C           5.053000     18.871000     -3.537000
C           4.586000     19.991000     -4.356000
S           6.001000     17.349000     -1.863000
N           6.040000     18.806000     -2.631000
C           5.121000     21.360000     -4.407000
S           5.079000     22.438000     -5.852000
C           5.715000     22.054000     -3.376000
C           5.629000     23.810000     -4.913000
S           5.689000     21.689000     -1.665000
C           5.965000     23.440000     -3.635000
C           5.853000     25.085000     -5.546000
C           6.242000     23.337000     -1.353000
C           6.306000     24.160000     -2.467000
N           6.804000     25.863000     -5.135000
S           5.366000     25.210000     -7.225000
C           7.088000     26.835000     -6.036000
C           6.471000     26.584000     -7.243000
C          -0.740000     13.470000     -4.235000
H           0.396000     14.321000     -6.284000
H           2.151000     16.026000     -6.540000
H           1.994000     16.366000     -2.159000
H           2.246000     18.509000     -6.155000
H           6.511000     23.556000     -0.329000
H           6.641000     25.191000     -2.492000
H           7.696000     27.686000     -5.760000
H           6.450000     27.121000     -8.182000
H          -0.824000     12.922000     -5.181000
C          -2.136000     13.974000     -3.971000
H          -0.404000     12.689000     -3.542000
H          -2.455000     14.735000     -4.694000
H          -2.208000     14.401000     -2.963000
C          -3.106000     12.747000     -4.169000
H          -3.087000     12.308000     -5.174000
C          -4.536000     13.188000     -3.854000
H          -2.811000     11.957000     -3.468000
H          -4.800000     14.055000     -4.473000
H          -4.605000     13.538000     -2.816000
C          -5.629000     12.083000     -4.026000
H          -5.597000     11.696000     -5.052000
C          -6.971000     12.712000     -3.724000
H          -5.522000     11.227000     -3.348000
H          -7.814000     12.049000     -3.955000
H          -7.124000     13.686000     -4.204000
H          -7.093000     13.008000     -2.675000
C           4.702000     12.722000     -0.640000
C           5.754000     13.660000     -0.607000
N           4.717000     11.685000     -1.457000
C           6.778000     13.553000     -1.542000
C           5.767000     11.482000     -2.338000
C           6.833000     12.406000     -2.369000
C           8.111000     12.099000     -3.206000
C           8.991000     13.107000     -3.533000
C           8.411000     10.847000     -3.906000
N          10.014000     13.068000     -4.403000
N           7.707000      9.755000     -3.754000
C           9.519000     10.757000     -4.716000
C          10.312000     11.915000     -4.969000
S           8.455000      8.669000     -4.664000
N           9.598000      9.545000     -5.348000
C          11.477000     11.863000     -5.861000
S          12.321000     10.368000     -6.340000
C          12.335000     12.961000     -6.180000
C          13.660000     11.283000     -6.974000
S          12.278000     14.617000     -5.705000
C          13.470000     12.638000     -6.815000
C          14.777000     10.633000     -7.620000
C          13.781000     14.801000     -6.459000
C          14.282000     13.733000     -7.141000
N          15.873000     11.333000     -7.728000
S          14.944000      8.930000     -8.036000
C          16.923000     10.574000     -8.174000
C          16.583000      9.314000     -8.504000
C           3.469000     12.707000      0.204000
H           5.599000     14.509000      0.052000
H           7.555000     14.302000     -1.423000
H           5.721000     10.551000     -2.901000
H           8.913000     14.142000     -3.206000
H          14.261000     15.761000     -6.328000
H          15.237000     13.796000     -7.650000
H          17.912000     10.998000     -8.293000
H          17.312000      8.592000     -8.849000
H           3.531000     11.906000      0.951000
C           2.124000     12.702000     -0.616000
H           3.367000     13.605000      0.825000
H           1.997000     11.712000     -1.069000
H           2.069000     13.380000     -1.476000
C           0.923000     13.075000      0.335000
H           1.084000     12.747000      1.369000
C          -0.309000     12.393000     -0.090000
H           0.812000     14.166000      0.295000
H          -0.229000     11.302000      0.001000
H          -0.459000     12.623000     -1.152000
C          -1.517000     12.820000      0.789000
H          -1.365000     12.577000      1.848000
C          -2.728000     12.146000      0.196000
H          -1.632000     13.910000      0.745000
H          -2.643000     11.112000     -0.158000
H          -2.997000     12.706000     -0.709000
H          -3.619000     12.042000      0.828000
$end

--------------------------------------------------------------

             Standard Nuclear Orientation (Angstroms)
    I     Atom           X                Y                Z
 ----------------------------------------------------------------
    1      C      -4.5086067582    -3.3543471899    -1.6817258774
    2      C      -3.9647922914    -2.5715812946    -2.7191175002
    3      N      -4.4994469678    -2.9303147394    -0.4006249528
    4      C      -3.4453582156    -1.3403798717    -2.4645663324
    5      C      -4.1233910319    -1.7190788904    -0.1450322082
    6      C      -3.5994794756    -0.8320257181    -1.1838514181
    7      C      -3.2442778229     0.6055956508    -0.9274248485
    8      C      -3.8438116614     1.6237971315    -1.7512427416
    9      C      -2.6216344030     1.0384954842     0.2952876713
   10      N      -3.7684959213     2.9660874338    -1.4207563066
   11      N      -2.0150622849     0.2261483162     1.1806804339
   12      C      -2.5812833353     2.4291274873     0.5825704994
   13      C      -3.3296813486     3.3676437316    -0.2554853893
   14      S      -1.4183160962     1.1828462181     2.3465869956
   15      N      -1.9037724893     2.6283986836     1.7229651872
   16      C      -3.5055340372     4.8145701096    -0.0593556144
   17      S      -3.7346194477     6.0210680576    -1.3798689903
   18      C      -3.5485177387     5.4863601098     1.1424278924
   19      C      -4.1143602121     7.2876661375    -0.2317700155
   20      S      -3.7710424710     4.8264769339     2.7475630697
   21      C      -3.9308307012     6.8639282917     1.0604540969
   22      C      -4.3853196454     8.6278651298    -0.6866740125
   23      C      -4.1417764151     6.4571647513     3.3154280054
   24      C      -4.2321784700     7.4221754044     2.3239629743
   25      N      -4.0277495698     9.6477006639     0.0279483524
   26      S      -4.4954315187     8.8470961316    -2.4220840918
   27      C      -4.0464959487    10.7988148912    -0.6874715306
   28      C      -4.1934278237    10.5403544716    -2.0336320840
   29      C      -4.8405619520    -4.7109353468    -2.0880131180
   30      H      -3.8241742621    -3.0754385102    -3.6707967929
   31      H      -3.0704246579    -0.7623868393    -3.3044096999
   32      H      -4.3174768230    -1.3702897274     0.8679667185
   33      H      -4.2416975831     1.3893127747    -2.7379756739
   34      H      -4.2375459427     6.5709435382     4.3863064229
   35      H      -4.4255980863     8.4797185052     2.4653929640
   36      H      -3.9872154939    11.7593153742    -0.1935427403
   37      H      -4.2599454069    11.1832854247    -2.9012415588
   38      H      -4.4487047709    -5.0484565524    -3.0548654260
   39      C      -6.3288839661    -4.9261523420    -2.1934039502
   40      H      -4.3363463483    -5.3842069211    -1.3840400985
   41      H      -6.8026249551    -4.2573261520    -2.9226857907
   42      H      -6.8106587006    -4.7748713463    -1.2194510943
   43      C      -6.5376735377    -6.3899694674    -2.7404682408
   44      H      -6.0962211102    -6.5754627292    -3.7272909220
   45      C      -8.0365042538    -6.6851706113    -2.8109577384
   46      H      -6.0660189856    -7.0905452818    -2.0409959313
   47      H      -8.5357296492    -5.9190610657    -3.4179142186
   48      H      -8.4859933454    -6.6060537925    -1.8127568140
   49      C      -8.4135478789    -8.1002245573    -3.3593357418
   50      H      -7.9808895791    -8.2302976484    -4.3590140834
   51      C      -9.9227994129    -8.1892482059    -3.4045419042
   52      H      -8.0665765288    -8.9363298793    -2.7393294734
   53      H     -10.2813001118    -9.0953486002    -3.9085640510
   54      H     -10.4077080067    -7.3072856693    -3.8398472450
   55      H     -10.3945807612    -8.1828176948    -2.4144499853
   56      C      -0.6170386449    -3.6868607672     2.8325574922
   57      C      -0.1662146557    -2.4099482128     3.2248444523
   58      N       0.0615931135    -4.4360760825     1.9833117398
   59      C       0.9630779919    -1.8791118351     2.6107102192
   60      C       1.2465619533    -3.9886928745     1.4215581338
   61      C       1.7298653050    -2.7057466741     1.7555639981
   62      C       3.1491737871    -2.2589626467     1.2929091965
   63      C       3.4982685412    -0.9264805279     1.2970632074
   64      C       4.1472569831    -3.0955596590     0.6210168147
   65      N       4.5805617898    -0.3487095586     0.7495487957
   66      N       4.0262516969    -4.3917769217     0.4931007141
   67      C       5.3131883626    -2.5371127256     0.1513307057
   68      C       5.5011925896    -1.1247478288     0.2121731975
   69      S       5.3749357822    -4.8470489049    -0.2422758285
   70      N       6.0886854858    -3.4477939279    -0.5149072096
   71      C       6.7158087037    -0.4923554957    -0.3173366065
   72      S       8.2453673342    -1.3480681327    -0.6413864156
   73      C       7.0019882353     0.9081766947    -0.3055104041
   74      C       9.0974780824     0.1612834938    -0.8083203553
   75      S       6.0704506627     2.2490289364     0.2472671433
   76      C       8.2626236065     1.2399412151    -0.6161706109
   77      C      10.4990370497     0.1996885438    -1.1571218940
   78      C       7.4329789339     3.2097973730    -0.0387778206
   79      C       8.5124046487     2.6191402724    -0.6241950356
   80      N      11.1301773086     1.3134115705    -0.9038177419
   81      S      11.5339239940    -1.1458897766    -1.6257176645
   82      C      12.4822591344     1.1884782764    -1.0875659624
   83      C      12.8564004770    -0.0047162801    -1.5859684164
   84      C      -1.8478226133    -4.3986135418     3.2923713795
   85      H      -0.8417004301    -1.8568260093     3.8705082940
   86      H       1.2490206829    -0.9046732408     2.9948940336
   87      H       1.7679003418    -4.7198581438     0.8055633014
   88      H       2.8732727224    -0.1126697057     1.6594582573
   89      H       7.3630377684     4.2381805579     0.2878676423
   90      H       9.4100319170     3.1879129292    -0.8382930319
   91      H      13.1542160008     2.0149389115    -0.8939302520
   92      H      13.8946251996    -0.2562419479    -1.7608233955
   93      H      -1.5802241560    -5.2191477933     3.9695483191
   94      C      -2.8171997110    -4.8318364174     2.1287236740
   95      H      -2.4927907056    -3.7720347933     3.9199574150
   96      H      -2.3612720162    -5.6712307064     1.5911502701
   97      H      -2.9963403957    -4.0948130975     1.3368813657
   98      C      -4.2265275093    -5.2088531763     2.7267073866
   99      H      -4.1593398115    -5.6251605638     3.7390487186
  100      C      -4.8665142486    -6.2639516220     1.9262342494
  101      H      -4.8262863298    -4.2899088091     2.7324176574
  102      H      -4.3043537327    -7.2061594622     1.9606136071
  103      H      -4.8720772097    -5.9236935367     0.8834315409
  104      C      -6.2915875728    -6.5827374630     2.4570596521
  105      H      -6.2775428095    -6.9329849050     3.4966573983
  106      C      -6.8808475682    -7.5894955487     1.5022524388
  107      H      -6.8934260329    -5.6656491381     2.4577469550
  108      H      -6.2444651399    -8.3942099083     1.1160540384
  109      H      -7.1776416664    -7.0408529577     0.5989858278
  110      H      -7.7312011975    -8.1900015210     1.8492571683
 ----------------------------------------------------------------

    9   -5663.5065594946      8.17E-06 Convergence criterion met
 Total energy in the final basis set = -5663.5065594946

                    Orbital Energies (a.u.)
 --------------------------------------------------------------

 Alpha MOs
 -- Occupied --
-88.989 -88.986 -88.926 -88.924 -88.923 -88.921 -88.906 -88.906
-14.388 -14.382 -14.379 -14.377 -14.348 -14.343 -14.341 -14.337
-14.332 -14.315 -10.267 -10.267 -10.264 -10.261 -10.257 -10.256
-10.252 -10.251 -10.245 -10.240 -10.238 -10.237 -10.234 -10.234
-10.232 -10.231 -10.228 -10.228 -10.228 -10.225 -10.225 -10.225
-10.224 -10.224 -10.223 -10.220 -10.219 -10.217 -10.216 -10.211
-10.210 -10.205 -10.204 -10.199 -10.197 -10.195 -10.191 -10.187
-10.183 -10.180 -10.178 -10.178 -10.175 -10.174 -10.170 -10.167
-10.163 -10.162 -10.160 -10.159  -8.044  -8.043  -7.987  -7.985
 -7.984  -7.980  -7.968  -7.967  -6.009  -6.008  -6.004  -6.002
 -6.002  -6.001  -5.951  -5.949  -5.948  -5.948  -5.946  -5.944
 -5.944  -5.944  -5.942  -5.941  -5.941  -5.937  -5.932  -5.931
 -5.928  -5.928  -5.924  -5.923  -1.057  -1.034  -0.981  -0.974
 -0.963  -0.957  -0.952  -0.928  -0.922  -0.914  -0.908  -0.898
 -0.855  -0.843  -0.832  -0.825  -0.818  -0.808  -0.806  -0.805
 -0.804  -0.798  -0.797  -0.792  -0.788  -0.776  -0.767  -0.765
 -0.750  -0.750  -0.742  -0.738  -0.728  -0.720  -0.711  -0.708
 -0.691  -0.690  -0.673  -0.671  -0.651  -0.648  -0.642  -0.639
 -0.632  -0.631  -0.626  -0.622  -0.606  -0.603  -0.599  -0.590
 -0.590  -0.587  -0.585  -0.583  -0.580  -0.576  -0.572  -0.562
 -0.553  -0.550  -0.543  -0.538  -0.524  -0.521  -0.514  -0.508
 -0.508  -0.506  -0.504  -0.500  -0.490  -0.481  -0.480  -0.479
 -0.473  -0.471  -0.467  -0.465  -0.465  -0.456  -0.448  -0.444
 -0.442  -0.439  -0.439  -0.434  -0.433  -0.432  -0.430  -0.428
 -0.426  -0.424  -0.423  -0.417  -0.416  -0.414  -0.413  -0.413
 -0.411  -0.409  -0.406  -0.402  -0.400  -0.398  -0.397  -0.396
 -0.393  -0.392  -0.389  -0.389  -0.387  -0.385  -0.384  -0.381
 -0.380  -0.378  -0.375  -0.370  -0.368  -0.358  -0.357  -0.355
 -0.353  -0.348  -0.348  -0.346  -0.342  -0.340  -0.339  -0.338
 -0.335  -0.334  -0.332  -0.330  -0.329  -0.328  -0.323  -0.319
 -0.315  -0.311  -0.308  -0.306  -0.303  -0.301  -0.299  -0.296
 -0.295  -0.293  -0.292  -0.290  -0.284  -0.282  -0.278  -0.276
 -0.274  -0.273  -0.265  -0.260  -0.254  -0.253  -0.252  -0.247
 -0.243  -0.237  -0.229  -0.227  -0.191  -0.190

          Ground-State Mulliken Net Atomic Charges

     Atom                 Charge (a.u.)
  ----------------------------------------
      1 C                     0.280934
      2 C                    -0.114594
      3 N                    -0.472667
      4 C                    -0.068621
      5 C                     0.112784
      6 C                     0.019851
      7 C                     0.001687
      8 C                     0.059626
      9 C                     0.200764
     10 N                    -0.497223
     11 N                    -0.542006
     12 C                     0.236967
     13 C                     0.299747
     14 S                     0.596230
     15 N                    -0.565181
     16 C                    -0.219148
     17 S                     0.314556
     18 C                    -0.124902
     19 C                    -0.238399
     20 S                     0.271360
     21 C                     0.150947
     22 C                     0.070451
     23 C                    -0.314537
     24 C                    -0.045584
     25 N                    -0.413139
     26 S                     0.255814
     27 C                     0.132286
     28 C                    -0.314667
     29 C                    -0.240207
     30 H                     0.088785
     31 H                     0.098257
     32 H                     0.107424
     33 H                     0.115742
     34 H                     0.129963
     35 H                     0.124106
     36 H                     0.120929
     37 H                     0.131724
     38 H                     0.102344
     39 C                    -0.178823
     40 H                     0.122701
     41 H                     0.096944
     42 H                     0.115922
     43 C                    -0.186128
     44 H                     0.089741
     45 C                    -0.175916
     46 H                     0.100549
     47 H                     0.088468
     48 H                     0.096060
     49 C                    -0.173620
     50 H                     0.091085
     51 C                    -0.319075
     52 H                     0.097037
     53 H                     0.094439
     54 H                     0.098234
     55 H                     0.101348
     56 C                     0.284554
     57 C                    -0.122526
     58 N                    -0.489315
     59 C                    -0.076273
     60 C                     0.065364
     61 C                     0.030575
     62 C                     0.082747
     63 C                     0.025763
     64 C                     0.208470
     65 N                    -0.532403
     66 N                    -0.543950
     67 C                     0.182542
     68 C                     0.325017
     69 S                     0.599801
     70 N                    -0.534240
     71 C                    -0.242810
     72 S                     0.323725
     73 C                    -0.118842
     74 C                    -0.243148
     75 S                     0.293029
     76 C                     0.178534
     77 C                     0.059815
     78 C                    -0.304465
     79 C                    -0.047927
     80 N                    -0.432339
     81 S                     0.260578
     82 C                     0.127841
     83 C                    -0.302696
     84 C                    -0.223043
     85 H                     0.084951
     86 H                     0.102150
     87 H                     0.136014
     88 H                     0.100904
     89 H                     0.122407
     90 H                     0.126672
     91 H                     0.114953
     92 H                     0.128006
     93 H                     0.116978
     94 C                    -0.190078
     95 H                     0.084123
     96 H                     0.107836
     97 H                     0.120914
     98 C                    -0.171172
     99 H                     0.081404
    100 C                    -0.179212
    101 H                     0.093779
    102 H                     0.090536
    103 H                     0.105592
    104 C                    -0.176605
    105 H                     0.090754
    106 C                    -0.326322
    107 H                     0.095262
    108 H                     0.097907
    109 H                     0.108045
    110 H                     0.088457
  ----------------------------------------
  Sum of atomic charges =     0.000000

                    Cartesian Multipole Moments
 -----------------------------------------------------------------
    Charge (ESU x 10^10)
                 0.0000
    Dipole Moment (Debye)
         X       1.4560      Y       2.1791      Z      -1.3533
       Tot       2.9495
    Quadrupole Moments (Debye-Ang)
        XX    -402.6421     XY     -10.1269     YY    -414.2872
        XZ       0.2799     YZ       5.7582     ZZ    -427.4815

 Total job time:  86.33s(wall), 968.66s(cpu)
        *  Thank you very much for using Q-Chem.  Have a nice day.  *
