 Q-Chem 4.4, Q-Chem, Inc., Pleasanton, CA (2016)
 Q-Chem 4.4.2 for Intel X86 Linux

User input:
--------------------------------------------------------------
$comment
SP
$end

$rem
MEM_STATIC 5000
MEM_TOTAL 20000
JOBTYPE SP
EXCHANGE B3LYP
BASIS 6-31g(d,p)
$end

$molecule
0 1
C           4.702000     12.722000     -0.640000
C           5.754000     13.660000     -0.607000
N           4.717000     11.685000     -1.457000
C           6.778000     13.553000     -1.542000
C           5.767000     11.482000     -2.338000
C           6.833000     12.406000     -2.369000
C           8.111000     12.099000     -3.206000
C           8.991000     13.107000     -3.533000
C           8.411000     10.847000     -3.906000
N          10.014000     13.068000     -4.403000
N           7.707000      9.755000     -3.754000
C           9.519000     10.757000     -4.716000
C          10.312000     11.915000     -4.969000
S           8.455000      8.669000     -4.664000
N           9.598000      9.545000     -5.348000
C          11.477000     11.863000     -5.861000
S          12.321000     10.368000     -6.340000
C          12.335000     12.961000     -6.180000
C          13.660000     11.283000     -6.974000
S          12.278000     14.617000     -5.705000
C          13.470000     12.638000     -6.815000
C          14.777000     10.633000     -7.620000
C          13.781000     14.801000     -6.459000
C          14.282000     13.733000     -7.141000
N          15.873000     11.333000     -7.728000
S          14.944000      8.930000     -8.036000
C          16.923000     10.574000     -8.174000
C          16.583000      9.314000     -8.504000
C           3.469000     12.707000      0.204000
H           5.599000     14.509000      0.052000
H           7.555000     14.302000     -1.423000
H           5.721000     10.551000     -2.901000
H           8.913000     14.142000     -3.206000
H          14.261000     15.761000     -6.328000
H          15.237000     13.796000     -7.650000
H          17.912000     10.998000     -8.293000
H          17.312000      8.592000     -8.849000
H           3.531000     11.906000      0.951000
C           2.124000     12.702000     -0.616000
H           3.367000     13.605000      0.825000
H           1.997000     11.712000     -1.069000
H           2.069000     13.380000     -1.476000
C           0.923000     13.075000      0.335000
H           1.084000     12.747000      1.369000
C          -0.309000     12.393000     -0.090000
H           0.812000     14.166000      0.295000
H          -0.229000     11.302000      0.001000
H          -0.459000     12.623000     -1.152000
C          -1.517000     12.820000      0.789000
H          -1.365000     12.577000      1.848000
C          -2.728000     12.146000      0.196000
H          -1.632000     13.910000      0.745000
H          -2.643000     11.112000     -0.158000
H          -2.997000     12.706000     -0.709000
H          -3.619000     12.042000      0.828000
C           0.771000     12.829000    -14.012000
C           1.787000     13.344000    -14.808000
N           0.872000     12.777000    -12.697000
C           3.057000     13.631000    -14.316000
C           2.129000     12.986000    -12.204000
C           3.300000     13.387000    -12.950000
C           4.677000     13.669000    -12.335000
C           5.859000     13.254000    -12.995000
C           4.799000     14.222000    -11.076000
N           7.108000     13.447000    -12.516000
N           3.787000     14.640000    -10.335000
C           6.100000     14.322000    -10.573000
C           7.258000     13.932000    -11.272000
S           4.413000     14.988000     -8.934000
N           6.035000     14.721000     -9.295000
C           8.652000     14.072000    -10.711000
S           9.102000     15.425000     -9.598000
C           9.759000     13.534000    -11.283000
C          10.865000     15.266000    -10.053000
S           9.864000     12.325000    -12.540000
C          10.971000     14.184000    -10.946000
C          11.961000     16.000000     -9.550000
C          11.660000     12.458000    -12.416000
C          12.055000     13.526000    -11.591000
N          13.072000     16.014000    -10.317000
S          11.827000     17.321000     -8.404000
C          13.935000     16.913000     -9.736000
C          13.532000     17.463000     -8.587000
C          -0.612000     12.612000    -14.556000
H           1.542000     13.443000    -15.862000
H           3.931000     13.868000    -14.915000
H           2.191000     12.961000    -11.117000
H           5.877000     12.821000    -13.994000
H          12.324000     11.859000    -13.025000
H          13.049000     13.926000    -11.428000
H          14.939000     16.990000    -10.132000
H          14.097000     18.242000     -8.094000
H          -0.465000     12.401000    -15.622000
C          -1.531000     13.827000    -14.341000
H          -1.046000     11.683000    -14.165000
H          -1.624000     14.090000    -13.280000
H          -2.568000     13.528000    -14.536000
C          -1.184000     15.064000    -15.240000
H          -0.335000     15.541000    -14.735000
C          -2.310000     16.099000    -15.379000
H          -0.733000     14.747000    -16.188000
H          -3.075000     15.665000    -16.035000
H          -1.851000     16.918000    -15.945000
C          -3.070000     16.615000    -14.115000
H          -3.433000     15.754000    -13.540000
C          -4.325000     17.432000    -14.521000
H          -2.494000     17.367000    -13.561000
H          -4.021000     18.268000    -15.163000
H          -4.792000     17.783000    -13.593000
H          -5.018000     16.787000    -15.075000
$end

--------------------------------------------------------------

             Standard Nuclear Orientation (Angstroms)
    I     Atom           X                Y                Z
 ----------------------------------------------------------------
    1      C       0.5012677534     7.7773304650     0.7848499682
    2      C      -0.3730976603     7.3373533289     1.7995135790
    3      N       0.5660581284     7.1770639300    -0.3892732341
    4      C      -1.1009732585     6.1694791786     1.5982250236
    5      C      -0.2152529882     6.0680200701    -0.6711325181
    6      C      -1.0871160882     5.5660370863     0.3182919706
    7      C      -2.1120941208     4.4471510256    -0.0361315273
    8      C      -2.7129507864     3.7089820993     0.9595947924
    9      C      -2.3812798975     3.9069060378    -1.3714885472
   10      N      -3.4482374628     2.5912089213     0.8375840300
   11      N      -1.9109268733     4.4417824705    -2.4686937397
   12      C      -3.2212808471     2.8284454816    -1.5237555281
   13      C      -3.7386458156     2.1610520373    -0.3745203565
   14      S      -2.5235115136     3.5423522773    -3.6446041895
   15      N      -3.2937469797     2.4117608658    -2.8259581201
   16      C      -4.6045498395     0.9821621073    -0.5010974248
   17      S      -5.4866509039     0.5265746677    -1.9813473352
   18      C      -5.1738726007     0.2432022097     0.5821102484
   19      C      -6.4513901132    -0.6223071418    -1.0973502505
   20      S      -5.0151807634     0.4322530744     2.2880664821
   21      C      -6.1214933121    -0.6403636615     0.2399036755
   22      C      -7.4255872150    -1.4566450101    -1.7624256811
   23      C      -6.2067892035    -0.7574877499     2.4492095753
   24      C      -6.6456047819    -1.3716020732     1.3147257782
   25      N      -8.3365419137    -2.0028641787    -1.0043451070
   26      S      -7.7118897479    -1.6154856088    -3.4927304299
   27      C      -9.3183050312    -2.6111581484    -1.7416487267
   28      C      -9.0836428951    -2.6104736253    -3.0671800214
   29      C       1.4355369539     8.9426254134     0.8304432167
   30      H      -0.2878309707     7.8623284936     2.7462118774
   31      H      -1.7650612647     5.9241029505     2.4214313322
   32      H      -0.1480205895     5.7071165188    -1.6963517294
   33      H      -2.5818975302     3.8681528196     2.0281113930
   34      H      -6.5619546905    -0.9374344103     3.4545143431
   35      H      -7.4021332148    -2.1467290190     1.3585201645
   36      H     -10.1640108977    -3.0898951754    -1.2645214414
   37      H      -9.7833088654    -3.0337071100    -3.7764690650
   38      H       1.0544002121     9.7584609979     0.2038643445
   39      C       2.9404446304     8.5766292994     0.5427806890
   40      H       1.4880338364     9.4078848944     1.8220210970
   41      H       3.0455873204     8.3531382188    -0.5251307079
   42      H       3.3287837864     7.6729090440     1.0273334726
   43      C       3.8700086399     9.7685792050     0.9912192855
   44      H       3.3826092682    10.7459901086     0.8923720400
   45      C       5.0609642962     9.8518949059     0.1320009671
   46      H       4.1424878168     9.5835987357     2.0379949655
   47      H       4.8037452569    10.0940875448    -0.9072983601
   48      H       5.5316975968     8.8611112974     0.1305864909
   49      C       6.0249207963    10.9693607586     0.6180996546
   50      H       5.5512643245    11.9588792158     0.6064048034
   51      C       7.2438005949    10.8872243246    -0.2650943459
   52      H       6.3021690170    10.7819882025     1.6627459820
   53      H       7.1137511121    10.7004228505    -1.3374232793
   54      H       7.8310597826    10.0249768859     0.0764345708
   55      H       7.8994678641    11.7654929296    -0.3186264829
   56      C       7.9697142335    -3.6232902708    -2.1345246244
   57      C       7.2996690175    -4.7612044689    -1.7017571507
   58      N       7.5005927934    -2.4096088022    -1.9130920902
   59      C       5.9975322271    -4.7275533490    -1.2112060511
   60      C       6.1993785249    -2.3581987521    -1.4995979134
   61      C       5.3519073701    -3.4767610434    -1.1543892197
   62      C       3.9132108534    -3.3588316708    -0.6346556379
   63      C       2.9147525772    -4.2647462550    -1.0674937563
   64      C       3.5261820712    -2.3042667254     0.1677628923
   65      N       1.6227444303    -4.2214382022    -0.6731203788
   66      N       4.3410653710    -1.3737565987     0.6347373153
   67      C       2.1648153019    -2.2386090260     0.4807798024
   68      C       1.2035737663    -3.1781023936     0.0624116362
   69      S       3.4065191512    -0.3030436570     1.3099988644
   70      N       1.9281146790    -1.0845844512     1.1202405877
   71      C      -0.2565445170    -3.0924835853     0.4342731943
   72      S      -0.8001831614    -2.4059881328     2.0170110178
   73      C      -1.2258190615    -3.8728531407    -0.1075821500
   74      C      -2.3709362761    -3.3360271593     1.9262527574
   75      S      -1.1487145388    -4.8849881684    -1.5296906474
   76      C      -2.3778746326    -4.0275394742     0.7010296848
   77      C      -3.4469758749    -3.3138769237     2.8398331582
   78      C      -2.8701249822    -5.3293535589    -1.2166946650
   79      C      -3.3221481807    -4.8497123367     0.0254379068
   80      N      -4.2869232598    -4.3700671060     2.7979202781
   81      S      -3.4496546678    -2.4158706148     4.3464487340
   82      C      -5.1397620544    -4.2320658485     3.8675709890
   83      C      -4.9979534056    -3.1228349086     4.5987392523
   84      C       9.4036513269    -3.6834850289    -2.5771474924
   85      H       7.8396909699    -5.6942732862    -1.8377750651
   86      H       5.3678414454    -5.5917490476    -1.0227881276
   87      H       5.8345759956    -1.3514822035    -1.3009049206
   88      H       3.1136357131    -5.1369334740    -1.6884196402
   89      H      -3.4170430574    -6.0014722442    -1.8645488862
   90      H      -4.2544689507    -5.0610507886     0.5360444486
   91      H      -5.9722621818    -4.9180551078     3.9519704798
   92      H      -5.5604106348    -2.9582244176     5.5073977423
   93      H       9.5303665218    -4.6940873148    -2.9834875950
   94      C      10.3904040126    -3.4070329927    -1.4295829370
   95      H       9.5743646463    -3.0320833777    -3.4436409150
   96      H      10.2212192614    -2.4259416167    -0.9687410640
   97      H      11.3869032111    -3.2295849401    -1.8518346819
   98      C      10.4876408967    -4.5605859806    -0.3719253872
   99      H       9.6089285369    -4.4198856780     0.2694972608
  100      C      11.7437494374    -4.5247805604     0.5108720448
  101      H      10.2776324093    -5.5339814395    -0.8312637328
  102      H      12.5908190902    -4.8396605142    -0.1114145596
  103      H      11.5822438748    -5.3298659619     1.2371994155
  104      C      12.1878088560    -3.1947764910     1.2004026156
  105      H      12.2496232220    -2.4030810175     0.4433608324
  106      C      13.6095560157    -3.3349931574     1.8056499207
  107      H      11.5940779952    -2.9716879638     2.0958975480
  108      H      13.6188452925    -4.1677897439     2.5196804206
  109      H      13.8451840131    -2.3812178366     2.2927495863
  110      H      14.3297111118    -3.5407025013     1.0042447153
 ----------------------------------------------------------------

   10   -5663.4943634002      3.83E-06 Convergence criterion met
 Total energy in the final basis set = -5663.4943634002

                    Orbital Energies (a.u.)
 --------------------------------------------------------------

 Alpha MOs
 -- Occupied --
-88.988 -88.985 -88.926 -88.924 -88.923 -88.921 -88.908 -88.905
-14.387 -14.382 -14.379 -14.376 -14.352 -14.341 -14.340 -14.336
-14.327 -14.318 -10.267 -10.266 -10.265 -10.256 -10.252 -10.251
-10.250 -10.250 -10.243 -10.241 -10.241 -10.238 -10.236 -10.228
-10.226 -10.226 -10.225 -10.225 -10.224 -10.224 -10.223 -10.223
-10.222 -10.221 -10.221 -10.220 -10.219 -10.219 -10.217 -10.211
-10.210 -10.210 -10.207 -10.198 -10.196 -10.194 -10.193 -10.187
-10.181 -10.181 -10.180 -10.178 -10.177 -10.177 -10.176 -10.175
-10.171 -10.169 -10.167 -10.165  -8.044  -8.042  -7.987  -7.986
 -7.982  -7.979  -7.967  -7.966  -6.009  -6.007  -6.004  -6.002
 -6.002  -6.000  -5.951  -5.950  -5.947  -5.947  -5.946  -5.944
 -5.943  -5.943  -5.943  -5.940  -5.939  -5.936  -5.932  -5.930
 -5.928  -5.927  -5.923  -5.923  -1.056  -1.048  -0.973  -0.969
 -0.962  -0.961  -0.940  -0.930  -0.921  -0.913  -0.908  -0.900
 -0.854  -0.837  -0.830  -0.825  -0.810  -0.808  -0.805  -0.805
 -0.803  -0.801  -0.796  -0.792  -0.779  -0.778  -0.766  -0.764
 -0.750  -0.744  -0.742  -0.737  -0.727  -0.716  -0.710  -0.708
 -0.693  -0.692  -0.677  -0.672  -0.652  -0.650  -0.644  -0.639
 -0.634  -0.633  -0.628  -0.623  -0.612  -0.604  -0.598  -0.592
 -0.586  -0.584  -0.582  -0.581  -0.577  -0.575  -0.570  -0.556
 -0.552  -0.549  -0.542  -0.539  -0.523  -0.520  -0.510  -0.508
 -0.507  -0.501  -0.500  -0.495  -0.485  -0.480  -0.480  -0.476
 -0.474  -0.474  -0.466  -0.465  -0.462  -0.458  -0.446  -0.443
 -0.439  -0.438  -0.438  -0.433  -0.432  -0.428  -0.427  -0.427
 -0.426  -0.423  -0.420  -0.418  -0.417  -0.416  -0.413  -0.411
 -0.410  -0.408  -0.405  -0.401  -0.398  -0.398  -0.396  -0.395
 -0.393  -0.392  -0.391  -0.391  -0.386  -0.383  -0.380  -0.379
 -0.378  -0.377  -0.372  -0.371  -0.363  -0.356  -0.356  -0.354
 -0.352  -0.349  -0.347  -0.347  -0.345  -0.344  -0.340  -0.339
 -0.338  -0.336  -0.333  -0.328  -0.327  -0.325  -0.320  -0.318
 -0.315  -0.313  -0.310  -0.308  -0.305  -0.303  -0.301  -0.299
 -0.295  -0.291  -0.288  -0.286  -0.285  -0.282  -0.279  -0.277
 -0.276  -0.273  -0.266  -0.261  -0.253  -0.251  -0.250  -0.246
 -0.242  -0.239  -0.232  -0.230  -0.191  -0.188

          Ground-State Mulliken Net Atomic Charges

     Atom                 Charge (a.u.)
  ----------------------------------------
      1 C                     0.276876
      2 C                    -0.123670
      3 N                    -0.489156
      4 C                    -0.081237
      5 C                     0.062336
      6 C                     0.033222
      7 C                     0.080447
      8 C                     0.027354
      9 C                     0.209850
     10 N                    -0.532488
     11 N                    -0.545736
     12 C                     0.181709
     13 C                     0.327780
     14 S                     0.600071
     15 N                    -0.532217
     16 C                    -0.240081
     17 S                     0.325390
     18 C                    -0.116314
     19 C                    -0.243766
     20 S                     0.294558
     21 C                     0.178564
     22 C                     0.061854
     23 C                    -0.301499
     24 C                    -0.045901
     25 N                    -0.432731
     26 S                     0.260957
     27 C                     0.127643
     28 C                    -0.303493
     29 C                    -0.221204
     30 H                     0.088268
     31 H                     0.105238
     32 H                     0.137606
     33 H                     0.101086
     34 H                     0.118246
     35 H                     0.125228
     36 H                     0.113814
     37 H                     0.127458
     38 H                     0.120674
     39 C                    -0.175952
     40 H                     0.086523
     41 H                     0.117877
     42 H                     0.092939
     43 C                    -0.179468
     44 H                     0.088708
     45 C                    -0.166421
     46 H                     0.089818
     47 H                     0.096992
     48 H                     0.088976
     49 C                    -0.176492
     50 H                     0.092449
     51 C                    -0.318163
     52 H                     0.093734
     53 H                     0.100022
     54 H                     0.102558
     55 H                     0.090378
     56 C                     0.272526
     57 C                    -0.108909
     58 N                    -0.466346
     59 C                    -0.078546
     60 C                     0.072276
     61 C                     0.033543
     62 C                     0.017820
     63 C                     0.046380
     64 C                     0.237768
     65 N                    -0.512218
     66 N                    -0.536961
     67 C                     0.222822
     68 C                     0.303112
     69 S                     0.601262
     70 N                    -0.574649
     71 C                    -0.211872
     72 S                     0.303745
     73 C                    -0.104141
     74 C                    -0.225433
     75 S                     0.283401
     76 C                     0.159159
     77 C                     0.055969
     78 C                    -0.314585
     79 C                    -0.051081
     80 N                    -0.430097
     81 S                     0.275339
     82 C                     0.115377
     83 C                    -0.291231
     84 C                    -0.231629
     85 H                     0.083818
     86 H                     0.098469
     87 H                     0.108315
     88 H                     0.115036
     89 H                     0.128431
     90 H                     0.126935
     91 H                     0.109674
     92 H                     0.121355
     93 H                     0.087753
     94 C                    -0.171860
     95 H                     0.110705
     96 H                     0.118696
     97 H                     0.086035
     98 C                    -0.183599
     99 H                     0.100594
    100 C                    -0.174601
    101 H                     0.085213
    102 H                     0.088521
    103 H                     0.087376
    104 C                    -0.177528
    105 H                     0.101306
    106 C                    -0.316873
    107 H                     0.098689
    108 H                     0.102888
    109 H                     0.100098
    110 H                     0.100539
  ----------------------------------------
  Sum of atomic charges =     0.000000

                    Cartesian Multipole Moments
 -----------------------------------------------------------------
    Charge (ESU x 10^10)
                 0.0000
    Dipole Moment (Debye)
         X      -2.9531      Y      -1.8729      Z       1.6781
       Tot       3.8788
    Quadrupole Moments (Debye-Ang)
        XX    -410.4175     XY       6.1133     YY    -432.7053
        XZ       1.7344     YZ      14.0518     ZZ    -419.4627

 Total job time:  93.11s(wall), 1015.78s(cpu)
        *  Thank you very much for using Q-Chem.  Have a nice day.  *
