 Q-Chem 4.4, Q-Chem, Inc., Pleasanton, CA (2016)
 Q-Chem 4.4.2 for Intel X86 Linux

User input:
--------------------------------------------------------------
$comment
SP
$end

$rem
MEM_STATIC 5000
MEM_TOTAL 20000
JOBTYPE SP
EXCHANGE B3LYP
BASIS 6-31g(d,p)
$end

$molecule
0 1
C          32.212000      5.247000    -11.761000
C          30.940000      4.979000    -12.231000
N          32.446000      6.218000    -10.885000
C          29.856000      5.789000    -11.844000
C          31.462000      7.049000    -10.499000
C          30.144000      6.863000    -10.887000
C          29.077000      7.843000    -10.516000
C          27.950000      7.943000    -11.398000
C          28.947000      8.572000     -9.326000
N          26.858000      8.714000    -11.207000
N          29.892000      8.642000     -8.439000
C          27.836000      9.400000     -9.078000
C          26.718000      9.370000    -10.030000
S          29.314000      9.658000     -7.260000
N          27.884000     10.140000     -7.872000
C          25.325000      9.875000     -9.952000
S          24.233000      9.718000    -11.354000
C          24.586000     10.122000     -8.801000
C          22.843000     10.191000    -10.332000
S          25.075000     10.330000     -7.158000
C          23.238000     10.361000     -9.044000
C          21.485000     10.331000    -10.837000
C          23.407000     10.832000     -6.805000
C          22.535000     10.748000     -7.865000
N          20.425000     10.546000    -10.092000
S          21.041000      9.890000    -12.512000
C          19.252000     10.511000    -10.788000
C          19.413000     10.306000    -12.128000
C          33.399000      4.452000    -12.243000
H          30.782000      4.202000    -12.972000
H          28.886000      5.607000    -12.296000
H          31.796000      7.902000     -9.910000
H          27.874000      7.396000    -12.336000
H          23.147000     11.110000     -5.792000
H          21.481000     10.994000     -7.821000
H          18.335000     10.744000    -10.263000
H          18.652000     10.157000    -12.882000
H          34.114000      4.433000    -11.411000
C          34.073000      4.862000    -13.593000
H          33.121000      3.431000    -12.531000
H          34.466000      5.881000    -13.490000
H          33.293000      4.897000    -14.363000
C          35.195000      3.898000    -13.935000
H          35.897000      3.739000    -13.107000
C          35.929000      4.340000    -15.182000
H          34.907000      2.860000    -14.141000
H          36.291000      5.358000    -14.992000
H          35.303000      4.368000    -16.082000
C          37.136000      3.494000    -15.580000
H          37.578000      3.061000    -14.674000
C          38.118000      4.294000    -16.442000
H          36.783000      2.642000    -16.173000
H          37.690000      4.815000    -17.307000
H          38.870000      3.638000    -16.896000
H          38.779000      4.939000    -15.850000
C           4.702000     12.722000     -0.640000
C           5.754000     13.660000     -0.607000
N           4.717000     11.685000     -1.457000
C           6.778000     13.553000     -1.542000
C           5.767000     11.482000     -2.338000
C           6.833000     12.406000     -2.369000
C           8.111000     12.099000     -3.206000
C           8.991000     13.107000     -3.533000
C           8.411000     10.847000     -3.906000
N          10.014000     13.068000     -4.403000
N           7.707000      9.755000     -3.754000
C           9.519000     10.757000     -4.716000
C          10.312000     11.915000     -4.969000
S           8.455000      8.669000     -4.664000
N           9.598000      9.545000     -5.348000
C          11.477000     11.863000     -5.861000
S          12.321000     10.368000     -6.340000
C          12.335000     12.961000     -6.180000
C          13.660000     11.283000     -6.974000
S          12.278000     14.617000     -5.705000
C          13.470000     12.638000     -6.815000
C          14.777000     10.633000     -7.620000
C          13.781000     14.801000     -6.459000
C          14.282000     13.733000     -7.141000
N          15.873000     11.333000     -7.728000
S          14.944000      8.930000     -8.036000
C          16.923000     10.574000     -8.174000
C          16.583000      9.314000     -8.504000
C           3.469000     12.707000      0.204000
H           5.599000     14.509000      0.052000
H           7.555000     14.302000     -1.423000
H           5.721000     10.551000     -2.901000
H           8.913000     14.142000     -3.206000
H          14.261000     15.761000     -6.328000
H          15.237000     13.796000     -7.650000
H          17.912000     10.998000     -8.293000
H          17.312000      8.592000     -8.849000
H           3.531000     11.906000      0.951000
C           2.124000     12.702000     -0.616000
H           3.367000     13.605000      0.825000
H           1.997000     11.712000     -1.069000
H           2.069000     13.380000     -1.476000
C           0.923000     13.075000      0.335000
H           1.084000     12.747000      1.369000
C          -0.309000     12.393000     -0.090000
H           0.812000     14.166000      0.295000
H          -0.229000     11.302000      0.001000
H          -0.459000     12.623000     -1.152000
C          -1.517000     12.820000      0.789000
H          -1.365000     12.577000      1.848000
C          -2.728000     12.146000      0.196000
H          -1.632000     13.910000      0.745000
H          -2.643000     11.112000     -0.158000
H          -2.997000     12.706000     -0.709000
H          -3.619000     12.042000      0.828000
$end

--------------------------------------------------------------

             Standard Nuclear Orientation (Angstroms)
    I     Atom           X                Y                Z
 ----------------------------------------------------------------
    1      C      15.1113408044     0.5678946357    -1.9429294906
    2      C      14.1517895754     1.5410999448    -1.7359491406
    3      N      14.8420898525    -0.7248676563    -1.7971811421
    4      C      12.8665184739     1.1850718219    -1.2862301488
    5      C      13.6451719620    -1.1315552021    -1.3391355073
    6      C      12.5996197598    -0.2478591590    -1.1196682075
    7      C      11.3027332107    -0.7058893646    -0.5324513740
    8      C      10.5459493863     0.2618033767     0.2084278347
    9      C      10.6381999053    -1.9216966898    -0.7437545541
   10      N       9.3274599346     0.0665249052     0.7566392669
   11      N      11.1930421016    -2.9296596843    -1.3444664143
   12      C       9.3718737522    -2.1841513460    -0.1879266783
   13      C       8.6721853124    -1.0909374942     0.4994215313
   14      S      10.0646373689    -4.1464726900    -1.2949702701
   15      N       8.8636386915    -3.4857143878    -0.4158976663
   16      C       7.2662108094    -0.9279304893     0.9446432888
   17      S       6.7678955734     0.5408469661     1.8261713440
   18      C       6.1470617243    -1.5829506046     0.4442584630
   19      C       5.0498641481     0.0807807407     1.6337652892
   20      S       5.9985410329    -3.0172037856    -0.5058433299
   21      C       4.9428294566    -1.0523733097     0.8932421816
   22      C       3.9445563435     0.8553030736     2.1789247274
   23      C       4.2464931091    -2.9342865816    -0.2189813248
   24      C       3.8203657697    -1.8278000015     0.4775407055
   25      N       2.6741190205     0.6190168002     1.9443872990
   26      S       4.1902062014     2.4399442849     2.9700065048
   27      C       1.8377192412     1.5622791600     2.4661741614
   28      C       2.4809838224     2.5403218548     3.1684484424
   29      C      16.5208424617     0.9397956630    -2.3280433750
   30      H      14.4077769715     2.5916187647    -1.8289795768
   31      H      12.1623028556     1.9768603503    -1.0506897292
   32      H      13.5882596102    -2.1934980221    -1.1043495810
   33      H      10.9001558801     1.2710292097     0.4104921258
   34      H       3.6092371607    -3.6978271088    -0.6455533815
   35      H       2.7878387520    -1.6090736039     0.7212920559
   36      H       0.7702585557     1.4097138623     2.3764272122
   37      H       2.0654955138     3.4369967931     3.6079726400
   38      H      16.8997850648     0.1127861801    -2.9414501069
   39      C      17.5214258718     1.3438084331    -1.1964592990
   40      H      16.5592798908     1.8807948060    -2.8899260825
   41      H      17.6521372576     0.4859406267    -0.5253435412
   42      H      17.0584896347     2.1434708508    -0.6059044260
   43      C      18.8560031320     1.7510960160    -1.7949276453
   44      H      19.2512721973     1.0193868850    -2.5104925366
   45      C      19.8706406670     2.0421205807    -0.7109791339
   46      H      18.8606244385     2.6507908880    -2.4221052763
   47      H      19.9434265887     1.1375566603    -0.0945910066
   48      H      19.5950150372     2.8757445382    -0.0538934396
   49      C      21.2798030762     2.3811759066    -1.1908455635
   50      H      21.4619249708     1.8672111385    -2.1428754122
   51      C      22.3229541979     2.0916146129    -0.1067062761
   52      H      21.3203930030     3.4524705323    -1.4207200573
   53      H      22.1228495995     2.5172782959     0.8840603860
   54      H      23.2957630970     2.5236440412    -0.3692884898
   55      H      22.6060509500     1.0328968114    -0.0578918758
   56      C     -15.4318523536    -1.1647019180    -1.2618811133
   57      C     -14.6551264916    -2.1759959906    -0.6605340969
   58      N     -14.9407527369     0.0341310778    -1.5162501653
   59      C     -13.3740024871    -1.8643403348    -0.2179936612
   60      C     -13.6355871846     0.3592120847    -1.1834811464
   61      C     -12.8215195472    -0.6051458787    -0.5522913173
   62      C     -11.3014257957    -0.3319911122    -0.3454013465
   63      C     -10.5740924748    -1.0765803814     0.5567993300
   64      C     -10.5463945259     0.8129664400    -0.8616415864
   65      N      -9.3290719105    -0.8513007050     1.0085989115
   66      N     -11.0360515128     1.6619034561    -1.7280860324
   67      C      -9.2337182606     0.9968930388    -0.4943324132
   68      C      -8.6404894932     0.1413400242     0.4803114544
   69      S      -9.8291538853     2.6746588332    -2.0191610449
   70      N      -8.7129408386     2.1549914202    -1.0063949247
   71      C      -7.2547721020     0.3354759907     0.9249366205
   72      S      -6.0273663672     1.2744263827     0.0368773186
   73      C      -6.5677248821    -0.4624738108     1.8917723004
   74      C      -4.7552326938     0.6214836246     1.0305793220
   75      S      -7.1002852408    -1.8000733542     2.8396208778
   76      C      -5.2448722493    -0.2620510178     1.9670757937
   77      C      -3.3823009359     1.0409049070     0.8673335692
   78      C      -5.4957520820    -1.9765821929     3.3452877365
   79      C      -4.5972122465    -1.0357923701     2.9399611110
   80      N      -2.4713428373     0.2576337970     1.3767663037
   81      S      -2.7595010857     2.3257788166    -0.1633814171
   82      C      -1.2071203242     0.6348543524     1.0067080785
   83      C      -1.1654962041     1.7776678734     0.2965357834
   84      C     -16.8509556531    -1.2582922078    -1.7203968525
   85      H     -15.1852105225    -3.0962533528    -0.4341620413
   86      H     -12.8433042691    -2.7107952943     0.2071703107
   87      H     -13.3073963389     1.3422796625    -1.5177189453
   88      H     -10.9561932087    -1.9168800703     1.1331095433
   89      H      -5.2831243863    -2.8497993402     3.9464884323
   90      H      -3.5571563202    -1.0938648261     3.2399382099
   91      H      -0.3378218638     0.0726605713     1.3234356258
   92      H      -0.2382241029     2.1856628157    -0.0848519164
   93      H     -16.8937772716    -1.2886805527    -2.8161599918
   94      C     -17.8092964169    -0.1837806866    -1.0812896852
   95      H     -17.3287575602    -2.2036178742    -1.4366474524
   96      H     -17.5817199022     0.7923460603    -1.5249376357
   97      H     -17.6979464737    -0.0022464880    -0.0056710145
   98      C     -19.3099681201    -0.6051754082    -1.3186542318
   99      H     -19.4502376769    -1.1645613026    -2.2514312001
  100      C     -20.1683531130     0.5812381780    -1.4571136351
  101      H     -19.6084340168    -1.2183427994    -0.4589183079
  102      H     -19.9157645004     1.1715649144    -2.3474367996
  103      H     -19.9895839484     1.2167935610    -0.5811256552
  104      C     -21.6613759825     0.1776856315    -1.6063183714
  105      H     -21.8347830858    -0.4484579524    -2.4903478895
  106      C     -22.4448462346     1.4653172052    -1.6313242574
  107      H     -21.9619715638    -0.4306079086    -0.7444121900
  108      H     -22.0473137376     2.3206782247    -2.1899139458
  109      H     -22.4924884858     1.8330417279    -0.5981278137
  110      H     -23.4599224200     1.4409575924    -2.0474347562
 ----------------------------------------------------------------

   10   -5663.5224112313      5.58E-06 Convergence criterion met
 Total energy in the final basis set = -5663.5224112313

                    Orbital Energies (a.u.)
 --------------------------------------------------------------

 Alpha MOs
 -- Occupied --
-88.991 -88.989 -88.930 -88.927 -88.925 -88.923 -88.912 -88.909
-14.404 -14.390 -14.384 -14.379 -14.351 -14.344 -14.344 -14.340
-14.323 -14.320 -10.273 -10.272 -10.271 -10.270 -10.260 -10.259
-10.255 -10.254 -10.245 -10.243 -10.242 -10.240 -10.239 -10.232
-10.231 -10.230 -10.229 -10.229 -10.227 -10.227 -10.227 -10.227
-10.226 -10.226 -10.223 -10.223 -10.222 -10.221 -10.221 -10.220
-10.214 -10.213 -10.208 -10.202 -10.199 -10.199 -10.198 -10.190
-10.186 -10.183 -10.182 -10.178 -10.178 -10.177 -10.176 -10.172
-10.172 -10.170 -10.168 -10.166  -8.046  -8.046  -7.991  -7.986
 -7.984  -7.983  -7.973  -7.970  -6.011  -6.011  -6.006  -6.005
 -6.004  -6.004  -5.955  -5.951  -5.950  -5.948  -5.948  -5.948
 -5.947  -5.945  -5.944  -5.943  -5.941  -5.940  -5.938  -5.935
 -5.934  -5.931  -5.929  -5.927  -1.059  -1.042  -0.978  -0.973
 -0.965  -0.957  -0.941  -0.932  -0.925  -0.918  -0.917  -0.913
 -0.858  -0.846  -0.829  -0.828  -0.812  -0.812  -0.808  -0.807
 -0.805  -0.805  -0.795  -0.795  -0.788  -0.780  -0.769  -0.767
 -0.754  -0.753  -0.746  -0.744  -0.731  -0.726  -0.713  -0.712
 -0.697  -0.696  -0.676  -0.675  -0.659  -0.653  -0.645  -0.642
 -0.640  -0.636  -0.626  -0.624  -0.612  -0.607  -0.599  -0.594
 -0.594  -0.590  -0.586  -0.585  -0.582  -0.578  -0.574  -0.571
 -0.556  -0.555  -0.545  -0.545  -0.524  -0.522  -0.515  -0.511
 -0.509  -0.509  -0.506  -0.502  -0.485  -0.484  -0.481  -0.478
 -0.476  -0.475  -0.469  -0.469  -0.466  -0.460  -0.449  -0.446
 -0.444  -0.442  -0.440  -0.436  -0.434  -0.433  -0.430  -0.430
 -0.430  -0.427  -0.426  -0.424  -0.422  -0.420  -0.419  -0.414
 -0.414  -0.410  -0.407  -0.404  -0.402  -0.402  -0.399  -0.397
 -0.396  -0.394  -0.394  -0.392  -0.391  -0.390  -0.388  -0.384
 -0.380  -0.377  -0.375  -0.373  -0.371  -0.366  -0.365  -0.360
 -0.356  -0.352  -0.350  -0.350  -0.349  -0.347  -0.345  -0.342
 -0.341  -0.339  -0.336  -0.336  -0.333  -0.329  -0.325  -0.321
 -0.319  -0.317  -0.315  -0.314  -0.309  -0.306  -0.304  -0.298
 -0.297  -0.294  -0.292  -0.289  -0.285  -0.282  -0.281  -0.280
 -0.280  -0.277  -0.272  -0.269  -0.258  -0.257  -0.250  -0.247
 -0.245  -0.241  -0.234  -0.233  -0.194  -0.193

          Ground-State Mulliken Net Atomic Charges

     Atom                 Charge (a.u.)
  ----------------------------------------
      1 C                     0.290768
      2 C                    -0.119886
      3 N                    -0.492322
      4 C                    -0.073880
      5 C                     0.077509
      6 C                     0.025521
      7 C                     0.046464
      8 C                     0.050125
      9 C                     0.253339
     10 N                    -0.512346
     11 N                    -0.552643
     12 C                     0.168718
     13 C                     0.290613
     14 S                     0.606498
     15 N                    -0.523543
     16 C                    -0.233296
     17 S                     0.322442
     18 C                    -0.127273
     19 C                    -0.236399
     20 S                     0.291833
     21 C                     0.164034
     22 C                     0.070750
     23 C                    -0.318476
     24 C                    -0.039861
     25 N                    -0.457103
     26 S                     0.252107
     27 C                     0.128366
     28 C                    -0.310749
     29 C                    -0.229394
     30 H                     0.087269
     31 H                     0.105702
     32 H                     0.124355
     33 H                     0.107494
     34 H                     0.127226
     35 H                     0.128947
     36 H                     0.105934
     37 H                     0.136727
     38 H                     0.115242
     39 C                    -0.173374
     40 H                     0.096198
     41 H                     0.108533
     42 H                     0.093561
     43 C                    -0.177954
     44 H                     0.096719
     45 C                    -0.165771
     46 H                     0.088617
     47 H                     0.092321
     48 H                     0.090320
     49 C                    -0.180143
     50 H                     0.090711
     51 C                    -0.324175
     52 H                     0.092872
     53 H                     0.105446
     54 H                     0.095071
     55 H                     0.105955
     56 C                     0.277580
     57 C                    -0.123331
     58 N                    -0.488981
     59 C                    -0.080517
     60 C                     0.062844
     61 C                     0.032779
     62 C                     0.082055
     63 C                     0.025969
     64 C                     0.208942
     65 N                    -0.532253
     66 N                    -0.544692
     67 C                     0.181914
     68 C                     0.325913
     69 S                     0.601833
     70 N                    -0.533481
     71 C                    -0.241652
     72 S                     0.325160
     73 C                    -0.118994
     74 C                    -0.243933
     75 S                     0.293260
     76 C                     0.178463
     77 C                     0.059438
     78 C                    -0.304027
     79 C                    -0.048414
     80 N                    -0.433152
     81 S                     0.263462
     82 C                     0.114843
     83 C                    -0.308214
     84 C                    -0.221444
     85 H                     0.089258
     86 H                     0.105747
     87 H                     0.137571
     88 H                     0.102361
     89 H                     0.123094
     90 H                     0.127635
     91 H                     0.133211
     92 H                     0.137240
     93 H                     0.120988
     94 C                    -0.176167
     95 H                     0.087041
     96 H                     0.117674
     97 H                     0.093675
     98 C                    -0.179606
     99 H                     0.088806
    100 C                    -0.166329
    101 H                     0.090237
    102 H                     0.096867
    103 H                     0.088983
    104 C                    -0.177069
    105 H                     0.092732
    106 C                    -0.318132
    107 H                     0.094113
    108 H                     0.099830
    109 H                     0.102529
    110 H                     0.090621
  ----------------------------------------
  Sum of atomic charges =     0.000000

                    Cartesian Multipole Moments
 -----------------------------------------------------------------
    Charge (ESU x 10^10)
                 0.0000
    Dipole Moment (Debye)
         X       0.9824      Y       0.8540      Z      -0.3886
       Tot       1.3585
    Quadrupole Moments (Debye-Ang)
        XX    -453.3877     XY      42.2280     YY    -422.2735
        XZ      -6.5215     YZ      -1.2577     ZZ    -448.6119

 Total job time:  87.29s(wall), 949.14s(cpu)
        *  Thank you very much for using Q-Chem.  Have a nice day.  *
