 Q-Chem 4.4, Q-Chem, Inc., Pleasanton, CA (2016)
 Q-Chem 4.4.2 for Intel X86 Linux

User input:
--------------------------------------------------------------
$comment
SP
$end

$rem
MEM_STATIC 5000
MEM_TOTAL 20000
JOBTYPE SP
EXCHANGE B3LYP
BASIS 6-31g(d,p)
$end

$molecule
0 1
C           8.567000     17.963000     -6.612000
C           7.163000     17.959000     -6.543000
N           9.304000     16.937000     -6.366000
C           6.449000     16.774000     -6.338000
C           8.688000     15.728000     -6.265000
C           7.278000     15.581000     -6.136000
C           6.688000     14.209000     -6.057000
C           5.381000     14.114000     -5.448000
C           7.224000     13.056000     -6.640000
N           4.864000     12.894000     -5.130000
N           8.358000     12.992000     -7.405000
C           6.488000     11.907000     -6.489000
C           5.381000     11.747000     -5.664000
S           8.411000     11.439000     -7.968000
N           7.102000     10.887000     -7.137000
C           4.640000     10.424000     -5.377000
S           5.230000      8.794000     -5.866000
C           3.492000     10.340000     -4.626000
C           3.995000      8.075000     -4.908000
S           2.471000     11.555000     -3.851000
C           3.237000      9.020000     -4.282000
C           3.915000      6.672000     -4.717000
C           1.535000     10.236000     -3.168000
C           2.075000      9.017000     -3.495000
N           4.636000      5.953000     -5.527000
S           2.882000      5.826000     -3.533000
C           4.335000      4.641000     -5.321000
C           3.382000      4.437000     -4.341000
C           9.265000     19.315000     -6.654000
H           6.566000     18.857000     -6.671000
H           5.369000     16.682000     -6.407000
H           9.456000     14.979000     -6.078000
H           4.936000     14.992000     -4.982000
H           0.560000     10.368000     -2.717000
H           1.488000      8.161000     -3.183000
H           4.747000      3.807000     -5.873000
H           3.049000      3.487000     -3.944000
H          10.339000     19.096000     -6.688000
C           8.979000     20.054000     -5.376000
H           8.975000     19.924000     -7.519000
H           9.281000     19.463000     -4.502000
H           7.900000     20.234000     -5.301000
C           9.635000     21.410000     -5.207000
H           9.679000     21.636000     -4.134000
C           9.029000     22.541000     -6.088000
H          10.680000     21.254000     -5.501000
H           7.958000     22.603000     -5.859000
H           9.076000     22.238000     -7.142000
C           9.856000     23.851000     -5.887000
H          10.893000     23.601000     -6.142000
C           9.670000     24.333000     -4.425000
H           9.540000     24.660000     -6.558000
H           8.645000     24.195000     -4.061000
H           9.811000     25.420000     -4.376000
H          10.400000     23.913000     -3.722000
C           4.702000     12.722000     -0.640000
C           5.754000     13.660000     -0.607000
N           4.717000     11.685000     -1.457000
C           6.778000     13.553000     -1.542000
C           5.767000     11.482000     -2.338000
C           6.833000     12.406000     -2.369000
C           8.111000     12.099000     -3.206000
C           8.991000     13.107000     -3.533000
C           8.411000     10.847000     -3.906000
N          10.014000     13.068000     -4.403000
N           7.707000      9.755000     -3.754000
C           9.519000     10.757000     -4.716000
C          10.312000     11.915000     -4.969000
S           8.455000      8.669000     -4.664000
N           9.598000      9.545000     -5.348000
C          11.477000     11.863000     -5.861000
S          12.321000     10.368000     -6.340000
C          12.335000     12.961000     -6.180000
C          13.660000     11.283000     -6.974000
S          12.278000     14.617000     -5.705000
C          13.470000     12.638000     -6.815000
C          14.777000     10.633000     -7.620000
C          13.781000     14.801000     -6.459000
C          14.282000     13.733000     -7.141000
N          15.873000     11.333000     -7.728000
S          14.944000      8.930000     -8.036000
C          16.923000     10.574000     -8.174000
C          16.583000      9.314000     -8.504000
C           3.469000     12.707000      0.204000
H           5.599000     14.509000      0.052000
H           7.555000     14.302000     -1.423000
H           5.721000     10.551000     -2.901000
H           8.913000     14.142000     -3.206000
H          14.261000     15.761000     -6.328000
H          15.237000     13.796000     -7.650000
H          17.912000     10.998000     -8.293000
H          17.312000      8.592000     -8.849000
H           3.531000     11.906000      0.951000
C           2.124000     12.702000     -0.616000
H           3.367000     13.605000      0.825000
H           1.997000     11.712000     -1.069000
H           2.069000     13.380000     -1.476000
C           0.923000     13.075000      0.335000
H           1.084000     12.747000      1.369000
C          -0.309000     12.393000     -0.090000
H           0.812000     14.166000      0.295000
H          -0.229000     11.302000      0.001000
H          -0.459000     12.623000     -1.152000
C          -1.517000     12.820000      0.789000
H          -1.365000     12.577000      1.848000
C          -2.728000     12.146000      0.196000
H          -1.632000     13.910000      0.745000
H          -2.643000     11.112000     -0.158000
H          -2.997000     12.706000     -0.709000
H          -3.619000     12.042000      0.828000
$end

--------------------------------------------------------------

             Standard Nuclear Orientation (Angstroms)
    I     Atom           X                Y                Z
 ----------------------------------------------------------------
    1      C       3.8428007117    -4.2521392901     1.5296621053
    2      C       2.6429251797    -4.7739107297     2.0435164354
    3      N       3.9386115976    -3.1141519438     0.9362262842
    4      C       1.4720434137    -4.0095790914     2.0731649885
    5      C       2.8756478636    -2.2687775843     1.0186173789
    6      C       1.5892659740    -2.6772848294     1.4710479976
    7      C       0.4865684805    -1.6702054435     1.5521303529
    8      C      -0.8583990057    -2.1981154473     1.5291414630
    9      C       0.6484620590    -0.3007932713     1.7868531082
   10      N      -1.9186288095    -1.3565183265     1.3728083275
   11      N       1.8355217729     0.3436365539     2.0124111632
   12      C      -0.5067900462     0.4353895466     1.8769942857
   13      C      -1.7871064129    -0.0106326206     1.5711704352
   14      S       1.4168943836     1.8944746916     2.4013059815
   15      N      -0.2006778320     1.7278475073     2.1474526599
   16      C      -3.0675811366     0.8497913223     1.5283438019
   17      S      -3.0954648533     2.6481623800     1.6242866858
   18      C      -4.3242464347     0.3371685568     1.3116153344
   19      C      -4.7660942131     2.6301864103     1.2136476638
   20      S      -4.9321787611    -1.3082103646     1.1056117146
   21      C      -5.2167984167     1.3582412851     1.0174683593
   22      C      -5.4943252983     3.8247539785     0.9813164098
   23      C      -6.5116336616    -0.6127763076     0.7830598742
   24      C      -6.4633315855     0.7591350374     0.7790385726
   25      N      -4.9147951011     4.9212247186     1.3747610270
   26      S      -7.1283973627     3.9431073042     0.2738830359
   27      C      -5.7944768004     5.9499474152     1.2255272459
   28      C      -7.0185130246     5.5641038912     0.7126090293
   29      C       5.0144845307    -5.2104182714     1.3692550541
   30      H       2.5689203820    -5.7724602528     2.4637772354
   31      H       0.5537695348    -4.3026897721     2.5736489665
   32      H       3.1353503391    -1.3562487682     0.4841645895
   33      H      -1.0201518140    -3.2593279949     1.3454870106
   34      H      -7.4277798184    -1.1890795149     0.7821473367
   35      H      -7.4256605925     1.2479034275     0.6806650848
   36      H      -5.6117828558     6.9791134673     1.5038151540
   37      H      -7.8378103372     6.2105261430     0.4264479107
   38      H       5.8316446839    -4.6150001611     0.9446145495
   39      C       4.6446291529    -6.2741380518     0.3728072489
   40      H       5.3307529982    -5.6678752392     2.3147249791
   41      H       4.3429026630    -5.8306436658    -0.5846032456
   42      H       3.7925032098    -6.8455232513     0.7596745787
   43      C       5.7095703042    -7.2995483752     0.0380431336
   44      H       5.4693871745    -7.7332067350    -0.9410347444
   45      C       5.9884793796    -8.3395531393     1.1619460735
   46      H       6.6195313864    -6.7120784969    -0.1341398237
   47      H       5.0394964285    -8.8366805681     1.3977885593
   48      H       6.2655138481    -7.8076595873     2.0813345402
   49      C       7.1658071676    -9.2686672422     0.7248233640
   50      H       8.0156649052    -8.6081153362     0.5143310713
   51      C       6.7066685128   -10.1060443484    -0.4967965759
   52      H       7.4777373704    -9.9606017919     1.5176058862
   53      H       5.6644374932   -10.4367055214    -0.4156627951
   54      H       7.2685222708   -11.0479432095    -0.5283859719
   55      H       6.8948202413    -9.6225409075    -1.4634052608
   56      C      -3.6871285894    -2.2872025783    -2.6548663555
   57      C      -2.4210059509    -2.7601938838    -3.0559270606
   58      N      -3.8304660644    -1.1581381351    -1.9857244787
   59      C      -1.2851096097    -2.0779551869    -2.6333872843
   60      C      -2.7322978689    -0.3921019374    -1.6292344254
   61      C      -1.4381663617    -0.8327235526    -1.9787615839
   62      C      -0.2087059586     0.0999425282    -1.7627451520
   63      C       1.0683366763    -0.4163449171    -1.7612015874
   64      C      -0.2455158024     1.4998884464    -1.3311197805
   65      N       2.2096483783     0.1892366568    -1.3929237623
   66      N      -1.3501812519     2.1959702638    -1.2513178490
   67      C       0.9244092343     2.1686619255    -1.0556539169
   68      C       2.1665890915     1.4683745658    -1.0758731235
   69      S      -0.8689558602     3.6566235254    -0.8019692409
   70      N       0.6961064005     3.4367046276    -0.5924536128
   71      C       3.4287906035     2.1422726490    -0.7467808618
   72      S       3.6671082470     3.9086052642    -0.7554867905
   73      C       4.7228200688     1.5348745076    -0.7376025982
   74      C       5.3952565294     3.7131596379    -0.6694256419
   75      S       5.2123567588    -0.0903202149    -1.0381120706
   76      C       5.7557144872     2.3838747909    -0.6475657200
   77      C       6.2782503537     4.8535159955    -0.5833194045
   78      C       6.8093672767     0.4615122836    -0.9579915395
   79      C       7.0124328532     1.7640917508    -0.6133176309
   80      N       7.5292356122     4.6437345922    -0.8897629490
   81      S       5.8402789132     6.5475923313    -0.3847233678
   82      C       8.2404814222     5.8124729108    -0.9651097507
   83      C       7.5364704236     6.9026987526    -0.6075120331
   84      C      -5.0179347925    -2.9142805419    -2.9167405187
   85      H      -2.4195803408    -3.7341080591    -3.5361313367
   86      H      -0.3590063816    -2.4997165438    -3.0119915218
   87      H      -2.9699543835     0.5609624796    -1.1590923214
   88      H       1.3283905982    -1.4543642992    -1.9590038118
   89      H       7.5723889071    -0.2613863488    -1.2117169005
   90      H       8.0146972137     2.1702655967    -0.5387256837
   91      H       9.2887601018     5.8156766753    -1.2355899640
   92      H       7.9598521950     7.8983975842    -0.6404014301
   93      H      -5.5653064873    -2.3391522565    -3.6737515378
   94      C      -5.8600029787    -3.2103432894    -1.6187736396
   95      H      -4.9382013711    -3.9045246260    -3.3809691645
   96      H      -6.2286419326    -2.2585516728    -1.2192288484
   97      H      -5.3196742868    -3.6459745273    -0.7699041977
   98      C      -7.0366878706    -4.2007594227    -1.9657888381
   99      H      -7.4004008935    -4.0826111774    -2.9936092646
  100      C      -8.2085867859    -3.9346569854    -1.1176052346
  101      H      -6.6529690246    -5.2173758286    -1.8126453414
  102      H      -8.6359520437    -2.9409604756    -1.3043890213
  103      H      -7.8675035982    -3.9538851517    -0.0752346016
  104      C      -9.3432097531    -4.9599184162    -1.3927483263
  105      H      -9.6870907404    -4.9275353215    -2.4340605762
  106      C     -10.4357807256    -4.6549839945    -0.3998990585
  107      H      -8.9618704609    -5.9761682450    -1.2343891471
  108      H     -10.6801749848    -3.6091499411    -0.1803550338
  109      H     -10.1088302420    -5.0514065816     0.5701207937
  110      H     -11.4446437150    -5.0290344499    -0.6153119767
 ----------------------------------------------------------------

   10   -5663.4883665255      4.81E-06 Convergence criterion met
 Total energy in the final basis set = -5663.4883665255

                    Orbital Energies (a.u.)
 --------------------------------------------------------------

 Alpha MOs
 -- Occupied --
-88.984 -88.982 -88.926 -88.925 -88.923 -88.919 -88.902 -88.902
-14.383 -14.374 -14.373 -14.372 -14.346 -14.341 -14.339 -14.335
-14.318 -14.313 -10.265 -10.261 -10.259 -10.254 -10.249 -10.246
-10.246 -10.243 -10.239 -10.238 -10.238 -10.234 -10.227 -10.225
-10.225 -10.224 -10.223 -10.222 -10.221 -10.220 -10.220 -10.220
-10.218 -10.216 -10.216 -10.216 -10.215 -10.214 -10.214 -10.214
-10.208 -10.206 -10.198 -10.196 -10.195 -10.192 -10.192 -10.184
-10.182 -10.179 -10.179 -10.179 -10.175 -10.175 -10.173 -10.172
-10.172 -10.172 -10.171 -10.169  -8.039  -8.038  -7.988  -7.986
 -7.982  -7.977  -7.964  -7.961  -6.004  -6.003  -5.998  -5.997
 -5.997  -5.996  -5.951  -5.950  -5.948  -5.946  -5.946  -5.945
 -5.943  -5.942  -5.941  -5.939  -5.938  -5.934  -5.928  -5.926
 -5.924  -5.922  -5.920  -5.917  -1.052  -1.023  -0.978  -0.972
 -0.961  -0.944  -0.942  -0.925  -0.920  -0.911  -0.910  -0.885
 -0.853  -0.843  -0.825  -0.822  -0.817  -0.808  -0.808  -0.805
 -0.802  -0.800  -0.790  -0.788  -0.779  -0.776  -0.765  -0.761
 -0.749  -0.743  -0.741  -0.735  -0.725  -0.723  -0.709  -0.702
 -0.692  -0.686  -0.670  -0.669  -0.653  -0.649  -0.641  -0.637
 -0.633  -0.629  -0.620  -0.617  -0.610  -0.603  -0.598  -0.591
 -0.590  -0.585  -0.582  -0.581  -0.576  -0.574  -0.570  -0.560
 -0.550  -0.540  -0.538  -0.533  -0.521  -0.518  -0.512  -0.506
 -0.504  -0.499  -0.498  -0.496  -0.486  -0.480  -0.478  -0.475
 -0.467  -0.464  -0.463  -0.457  -0.454  -0.451  -0.448  -0.443
 -0.442  -0.440  -0.439  -0.438  -0.437  -0.434  -0.428  -0.426
 -0.426  -0.423  -0.420  -0.418  -0.414  -0.413  -0.410  -0.410
 -0.409  -0.406  -0.405  -0.402  -0.397  -0.395  -0.394  -0.393
 -0.392  -0.390  -0.389  -0.388  -0.383  -0.382  -0.380  -0.379
 -0.377  -0.374  -0.370  -0.366  -0.360  -0.360  -0.353  -0.352
 -0.349  -0.349  -0.348  -0.345  -0.343  -0.342  -0.341  -0.337
 -0.335  -0.334  -0.333  -0.331  -0.329  -0.326  -0.321  -0.316
 -0.314  -0.312  -0.309  -0.304  -0.302  -0.300  -0.296  -0.294
 -0.292  -0.289  -0.288  -0.286  -0.285  -0.283  -0.278  -0.276
 -0.272  -0.265  -0.262  -0.260  -0.251  -0.247  -0.244  -0.242
 -0.240  -0.232  -0.227  -0.221  -0.188  -0.185

          Ground-State Mulliken Net Atomic Charges

     Atom                 Charge (a.u.)
  ----------------------------------------
      1 C                     0.278623
      2 C                    -0.110603
      3 N                    -0.470912
      4 C                    -0.075293
      5 C                     0.072543
      6 C                     0.002129
      7 C                     0.001862
      8 C                     0.062027
      9 C                     0.271550
     10 N                    -0.526098
     11 N                    -0.573632
     12 C                     0.200297
     13 C                     0.307701
     14 S                     0.627432
     15 N                    -0.585467
     16 C                    -0.234040
     17 S                     0.350262
     18 C                    -0.125077
     19 C                    -0.220695
     20 S                     0.309847
     21 C                     0.152658
     22 C                     0.084991
     23 C                    -0.300025
     24 C                    -0.100041
     25 N                    -0.443542
     26 S                     0.283744
     27 C                     0.119643
     28 C                    -0.304857
     29 C                    -0.222358
     30 H                     0.087444
     31 H                     0.106496
     32 H                     0.136985
     33 H                     0.117061
     34 H                     0.131633
     35 H                     0.101606
     36 H                     0.113308
     37 H                     0.126708
     38 H                     0.111549
     39 C                    -0.177518
     40 H                     0.099148
     41 H                     0.097764
     42 H                     0.084963
     43 C                    -0.176427
     44 H                     0.094768
     45 C                    -0.179484
     46 H                     0.086465
     47 H                     0.088110
     48 H                     0.087613
     49 C                    -0.173140
     50 H                     0.099260
     51 C                    -0.318722
     52 H                     0.090889
     53 H                     0.105511
     54 H                     0.094484
     55 H                     0.108740
     56 C                     0.279405
     57 C                    -0.127663
     58 N                    -0.488330
     59 C                    -0.082739
     60 C                     0.081117
     61 C                     0.035645
     62 C                     0.079939
     63 C                     0.021597
     64 C                     0.207856
     65 N                    -0.539270
     66 N                    -0.553727
     67 C                     0.182974
     68 C                     0.320116
     69 S                     0.628350
     70 N                    -0.536114
     71 C                    -0.248866
     72 S                     0.318976
     73 C                    -0.119104
     74 C                    -0.243175
     75 S                     0.319926
     76 C                     0.176033
     77 C                     0.060074
     78 C                    -0.305575
     79 C                    -0.050213
     80 N                    -0.431046
     81 S                     0.259018
     82 C                     0.128033
     83 C                    -0.303415
     84 C                    -0.221593
     85 H                     0.085430
     86 H                     0.103868
     87 H                     0.148266
     88 H                     0.104779
     89 H                     0.122512
     90 H                     0.125718
     91 H                     0.114559
     92 H                     0.127574
     93 H                     0.119290
     94 C                    -0.186300
     95 H                     0.084643
     96 H                     0.125253
     97 H                     0.100734
     98 C                    -0.179526
     99 H                     0.088830
    100 C                    -0.170942
    101 H                     0.090797
    102 H                     0.095136
    103 H                     0.085919
    104 C                    -0.176709
    105 H                     0.094443
    106 C                    -0.318383
    107 H                     0.095824
    108 H                     0.096913
    109 H                     0.103031
    110 H                     0.092226
  ----------------------------------------
  Sum of atomic charges =     0.000000

                    Cartesian Multipole Moments
 -----------------------------------------------------------------
    Charge (ESU x 10^10)
                 0.0000
    Dipole Moment (Debye)
         X      -0.6543      Y       0.0996      Z      -0.8451
       Tot       1.0735
    Quadrupole Moments (Debye-Ang)
        XX    -403.5129     XY       3.3768     YY    -393.9534
        XZ       2.5110     YZ      -3.1508     ZZ    -448.9299

 Total job time:  118.75s(wall), 1290.60s(cpu)
        *  Thank you very much for using Q-Chem.  Have a nice day.  *
