 Q-Chem 4.4, Q-Chem, Inc., Pleasanton, CA (2016)
 Q-Chem 4.4.2 for Intel X86 Linux

User input:
--------------------------------------------------------------
$comment
SP
$end

$rem
MEM_STATIC 5000
MEM_TOTAL 20000
JOBTYPE SP
EXCHANGE B3LYP
BASIS 6-31g(d,p)
$end

$molecule
0 1
C         -11.995000     22.294000    -13.599000
C         -12.253000     21.175000    -14.326000
N         -11.017000     22.288000    -12.693000
C         -11.591000     20.048000    -14.159000
C         -10.315000     21.165000    -12.503000
C         -10.571000     19.974000    -13.200000
C          -9.719000     18.752000    -12.999000
C          -8.437000     18.921000    -12.355000
C         -10.037000     17.385000    -13.309000
N          -7.520000     17.935000    -12.112000
N         -11.110000     16.985000    -13.924000
C          -9.160000     16.363000    -12.992000
C          -7.904000     16.658000    -12.394000
S         -11.019000     15.326000    -13.923000
N          -9.552000     15.055000    -13.280000
C          -6.827000     15.641000    -12.239000
S          -6.764000     14.025000    -12.965000
C          -5.682000     15.827000    -11.557000
C          -5.152000     13.687000    -12.360000
S          -5.107000     17.267000    -10.745000
C          -4.744000     14.779000    -11.648000
C          -4.413000     12.496000    -12.597000
C          -3.538000     16.417000    -10.492000
C          -3.521000     15.111000    -11.004000
N          -5.069000     11.589000    -13.349000
S          -3.126000     11.786000    -11.556000
C          -4.354000     10.399000    -13.305000
C          -3.227000     10.360000    -12.522000
C         -12.852000     23.551000    -13.531000
H         -12.994000     21.203000    -15.119000
H         -11.922000     19.236000    -14.799000
H          -9.522000     21.290000    -11.767000
H          -8.051000     19.891000    -12.044000
H          -2.750000     16.878000     -9.911000
H          -2.618000     14.511000    -11.011000
H          -4.598000      9.564000    -13.949000
H          -2.615000      9.480000    -12.372000
H         -12.276000     24.342000    -13.036000
C         -14.216000     23.369000    -12.806000
H         -13.208000     23.907000    -14.506000
H         -13.965000     23.075000    -11.779000
H         -14.774000     22.528000    -13.234000
C         -15.121000     24.637000    -12.729000
H         -14.653000     25.505000    -12.248000
C         -16.470000     24.483000    -11.943000
H         -15.221000     24.969000    -13.769000
H         -16.985000     25.447000    -11.847000
H         -16.316000     24.052000    -10.946000
C         -17.552000     23.543000    -12.594000
H         -17.712000     23.875000    -13.627000
C         -18.855000     23.423000    -11.765000
H         -17.108000     22.540000    -12.627000
H         -18.579000     23.175000    -10.733000
H         -19.620000     22.745000    -12.164000
H         -19.285000     24.414000    -11.574000
C         -15.327000     11.186000    -14.989000
C         -15.292000     12.296000    -14.079000
N         -14.350000     10.291000    -14.949000
C         -14.184000     12.490000    -13.288000
C         -13.333000     10.440000    -14.078000
C         -13.149000     11.531000    -13.292000
C         -12.005000     11.753000    -12.330000
C         -12.167000     12.538000    -11.120000
C         -10.678000     11.251000    -12.526000
N         -11.129000     13.000000    -10.411000
N         -10.259000     10.503000    -13.567000
C          -9.606000     11.645000    -11.742000
C          -9.912000     12.632000    -10.742000
S          -8.580000     10.480000    -13.512000
N          -8.373000     11.190000    -12.050000
C          -8.878000     12.947000     -9.677000
S          -7.446000     12.035000     -9.202000
C          -8.746000     14.258000     -9.219000
C          -6.729000     13.431000     -8.457000
S          -9.547000     15.782000     -9.646000
C          -7.569000     14.530000     -8.534000
C          -5.281000     13.401000     -8.035000
C          -8.301000     16.710000     -8.913000
C          -7.209000     15.924000     -8.436000
N          -4.584000     14.518000     -7.780000
S          -4.344000     11.958000     -8.230000
C          -3.276000     14.147000     -7.499000
C          -2.874000     12.890000     -7.824000
C         -16.558000     10.912000    -15.871000
H         -16.080000     13.045000    -14.084000
H         -14.177000     13.357000    -12.634000
H         -12.546000      9.699000    -14.208000
H         -13.137000     12.956000    -10.853000
H          -8.396000     17.764000     -8.691000
H          -6.329000     16.307000     -7.932000
H          -2.521000     14.912000     -7.380000
H          -1.884000     12.458000     -7.755000
H         -17.400000     10.957000    -15.169000
C         -16.448000      9.644000    -16.732000
H         -16.632000     11.758000    -16.565000
H         -16.178000      8.798000    -16.087000
H         -15.771000      9.664000    -17.595000
C         -17.816000      9.390000    -17.305000
H         -18.484000      9.327000    -16.438000
C         -17.892000      8.064000    -18.192000
H         -18.075000     10.260000    -17.921000
H         -17.909000      7.284000    -17.421000
H         -17.003000      7.818000    -18.787000
C         -19.086000      7.784000    -19.050000
H         -19.923000      7.476000    -18.411000
C         -18.852000      6.771000    -20.157000
H         -19.295000      8.768000    -19.488000
H         -17.902000      6.965000    -20.671000
H         -19.654000      6.745000    -20.905000
H         -18.746000      5.834000    -19.597000
$end

--------------------------------------------------------------

             Standard Nuclear Orientation (Angstroms)
    I     Atom           X                Y                Z
 ----------------------------------------------------------------
    1      C      -3.6807911200    -6.8737155936     1.6322966523
    2      C      -4.0248782081    -5.6003679209     1.9600828329
    3      N      -2.4366421695    -7.1462722017     1.2383902112
    4      C      -3.1817215217    -4.5909574229     1.8798379023
    5      C      -1.5488307132    -6.1488151085     1.1553049225
    6      C      -1.8678596011    -4.8128555013     1.4438504067
    7      C      -0.8243359118    -3.7319664826     1.3956193045
    8      C       0.5635541335    -4.1326929535     1.3948998215
    9      C      -1.0185577644    -2.3123886254     1.2816474696
   10      N       1.6451902959    -3.2948391633     1.3808201052
   11      N      -2.1693687258    -1.7084038052     1.3014077359
   12      C       0.0618506591    -1.4544007882     1.1783202726
   13      C       1.3881033337    -1.9647340389     1.2310347522
   14      S      -1.8243759276    -0.1061309649     1.0288922054
   15      N      -0.1999468014    -0.0922935295     1.0247041754
   16      C       2.5845898445    -1.0867277243     1.3566052140
   17      S       2.6098881580     0.6469428829     1.7257220263
   18      C       3.8608742666    -1.5037842220     1.2676841716
   19      C       4.3610651503     0.7250584297     1.8037611378
   20      S       4.4746388417    -3.1294548107     1.0577861407
   21      C       4.8391979417    -0.5285442621     1.5473604261
   22      C       5.1242023826     1.8865603285     2.1026020718
   23      C       6.1286193817    -2.4691440851     1.3345678582
   24      C       6.1479403238    -1.0833940704     1.5522662689
   25      N       4.3766267119     2.9866881896     2.3247243487
   26      S       6.8126074370     2.2442688697     1.5873516745
   27      C       5.2290414245     4.0826314896     2.3642014424
   28      C       6.5645605730     3.8611410274     2.1360138465
   29      C      -4.6279688629    -8.0515655094     1.4461625629
   30      H      -5.0133853012    -5.3915049840     2.3575045239
   31      H      -3.6059743468    -3.6309152927     2.1570267343
   32      H      -0.5600108679    -6.4960558434     0.8589450304
   33      H       0.8824541669    -5.1720962290     1.4624320332
   34      H       6.9984882531    -3.1053288438     1.2364704611
   35      H       7.0570013796    -0.5599906626     1.8263371895
   36      H       4.8855545453     5.0601355348     2.6772503289
   37      H       7.3167086002     4.6383883442     2.0959644537
   38      H      -4.0360901812    -8.9733738300     1.3968569203
   39      C      -5.5464856890    -7.9552252692     0.1946473220
   40      H      -5.3919945184    -8.1434446896     2.2284157277
   41      H      -4.8666902884    -7.9287315037    -0.6663650435
   42      H      -6.0876729737    -7.0019137892     0.1827081019
   43      C      -6.5352698363    -9.1426710416    -0.0176177193
   44      H      -6.0588131571   -10.1286644033    -0.0855524206
   45      C      -7.4205135488    -9.0888433909    -1.3117425793
   46      H      -7.0895993465    -9.2129808845     0.9255680101
   47      H      -8.0008763113   -10.0119220365    -1.4335698259
   48      H      -6.8186862290    -8.9160041803    -2.2125291713
   49      C      -8.5083399861    -7.9522012099    -1.3646877856
   50      H      -9.1141848902    -8.0201729687    -0.4529615152
   51      C      -9.3403321324    -7.9445240218    -2.6712788193
   52      H      -7.9611285962    -7.0014290753    -1.3359468278
   53      H      -8.6432125521    -7.9654703485    -3.5176177243
   54      H     -10.0830972771    -7.1423321482    -2.7656087603
   55      H      -9.8104834197    -8.9218049123    -2.8366324648
   56      C      -5.4891595884     4.4453102205    -0.6107918662
   57      C      -5.2730206689     3.1524045976    -1.1965426815
   58      N      -4.4479215385     5.2387566864    -0.4024171331
   59      C      -3.9883613831     2.7043771856    -1.3962999280
   60      C      -3.2068355168     4.8215652546    -0.7198880703
   61      C      -2.9019351648     3.5663870030    -1.1364169794
   62      C      -1.5214928953     3.0485434071    -1.4675984265
   63      C      -1.3135442868     2.0131867307    -2.4632705256
   64      C      -0.3190745054     3.4932684094    -0.8290385718
   65      N      -0.1670189139     1.3292730134    -2.5696218141
   66      N      -0.2335070718     4.4358689495     0.1316530727
   67      C       0.8986280168     2.8553631500    -1.0003670502
   68      C       0.8612956200     1.6831780992    -1.8324689063
   69      S       1.3109380105     4.3336518380     0.7849799816
   70      N       1.9642695334     3.2871425214    -0.2931522790
   71      C       2.1682562522     1.0582119421    -2.2839965450
   72      S       3.7959010448     1.7354531147    -2.2735168898
   73      C       2.2615910854    -0.3295679843    -2.3901308228
   74      C       4.5185923555     0.1587896833    -2.3724092235
   75      S       1.1270726870    -1.6534332861    -2.0633974968
   76      C       3.5544182743    -0.8328423663    -2.4521852819
   77      C       6.0003162085    -0.0077303762    -2.1433819473
   78      C       2.3976080966    -2.8086509718    -2.0164840460
   79      C       3.6985143639    -2.2314577877    -2.1272988098
   80      N       6.5552000195    -1.1971390592    -1.8678208087
   81      S       6.9990423761     1.3750603586    -1.8455920445
   82      C       7.9083958789    -0.9905157292    -1.6362311598
   83      C       8.3422620736     0.2780983554    -1.4133939330
   84      C      -6.9084495646     5.0005111625    -0.3969487521
   85      H      -6.1063384726     2.4797168192    -1.3837393454
   86      H      -3.8604005298     1.7092386841    -1.8119673224
   87      H      -2.4290862572     5.5183591840    -0.4117739536
   88      H      -2.1516081921     1.6094635797    -3.0303415158
   89      H       2.2328463413    -3.8765772080    -2.0566352355
   90      H       4.6334925716    -2.7799916061    -2.1329024936
   91      H       8.5176063781    -1.8104495481    -1.2812915872
   92      H       9.3335383965     0.6149290502    -1.1388008982
   93      H      -7.3996768829     4.8474858716    -1.3660060167
   94      C      -6.9490419497     6.4254368261     0.1767969332
   95      H      -7.3836526239     4.3486097202     0.3460415319
   96      H      -6.3158922837     7.0758556914    -0.4402264052
   97      H      -6.6810553154     6.5643224436     1.2314968664
   98      C      -8.3732180378     6.8975705332     0.0624237157
   99      H      -8.6246821043     6.7988372848    -1.0000731403
  100      C      -8.5832067901     8.3972154047     0.5701549273
  101      H      -8.9887387589     6.2163201731     0.6628145790
  102      H      -8.1703112871     8.9730345776    -0.2671500254
  103      H      -7.9753576138     8.7168042991     1.4264517902
  104      C      -9.9585797903     8.9501226833     0.7771395924
  105      H     -10.4143983340     9.1538698775    -0.1998304870
  106      C     -10.0246019586    10.1775029327     1.6690772565
  107      H     -10.4764778360     8.1130921748     1.2618483111
  108      H      -9.3990825747    10.0473397455     2.5613300486
  109      H     -11.0419616296    10.4321783174     1.9907972409
  110      H      -9.5590649617    10.9470719826     1.0415075138
 ----------------------------------------------------------------

   10   -5663.4859813558      6.92E-06 Convergence criterion met
 Total energy in the final basis set = -5663.4859813558

                    Orbital Energies (a.u.)
 --------------------------------------------------------------

 Alpha MOs
 -- Occupied --
-88.988 -88.986 -88.930 -88.924 -88.921 -88.914 -88.906 -88.903
-14.399 -14.386 -14.383 -14.378 -14.352 -14.349 -14.348 -14.342
-14.325 -14.325 -10.272 -10.270 -10.263 -10.261 -10.257 -10.256
-10.253 -10.250 -10.244 -10.243 -10.238 -10.238 -10.235 -10.234
-10.232 -10.232 -10.231 -10.228 -10.228 -10.228 -10.226 -10.225
-10.225 -10.224 -10.223 -10.220 -10.219 -10.218 -10.218 -10.214
-10.211 -10.203 -10.202 -10.201 -10.199 -10.198 -10.194 -10.193
-10.185 -10.185 -10.185 -10.184 -10.183 -10.179 -10.177 -10.174
-10.174 -10.172 -10.171 -10.170  -8.044  -8.040  -7.990  -7.984
 -7.982  -7.973  -7.966  -7.962  -6.009  -6.005  -6.003  -6.002
 -6.000  -5.998  -5.954  -5.951  -5.948  -5.947  -5.946  -5.944
 -5.943  -5.941  -5.939  -5.937  -5.933  -5.931  -5.929  -5.927
 -5.926  -5.923  -5.923  -5.918  -1.044  -1.029  -0.964  -0.961
 -0.959  -0.951  -0.948  -0.944  -0.916  -0.909  -0.907  -0.897
 -0.842  -0.834  -0.831  -0.830  -0.809  -0.808  -0.806  -0.805
 -0.804  -0.799  -0.797  -0.790  -0.785  -0.785  -0.767  -0.767
 -0.752  -0.746  -0.739  -0.736  -0.723  -0.714  -0.709  -0.706
 -0.692  -0.689  -0.674  -0.672  -0.658  -0.657  -0.646  -0.641
 -0.636  -0.634  -0.623  -0.620  -0.614  -0.606  -0.603  -0.592
 -0.590  -0.589  -0.584  -0.577  -0.576  -0.575  -0.565  -0.563
 -0.545  -0.541  -0.538  -0.535  -0.522  -0.517  -0.515  -0.511
 -0.508  -0.507  -0.499  -0.495  -0.489  -0.483  -0.482  -0.477
 -0.472  -0.469  -0.464  -0.462  -0.459  -0.457  -0.456  -0.451
 -0.448  -0.447  -0.437  -0.435  -0.435  -0.431  -0.430  -0.426
 -0.426  -0.424  -0.423  -0.420  -0.416  -0.416  -0.413  -0.412
 -0.410  -0.408  -0.408  -0.407  -0.399  -0.397  -0.397  -0.395
 -0.394  -0.393  -0.388  -0.386  -0.386  -0.384  -0.381  -0.380
 -0.380  -0.377  -0.372  -0.369  -0.364  -0.361  -0.359  -0.357
 -0.354  -0.353  -0.351  -0.348  -0.345  -0.342  -0.341  -0.338
 -0.338  -0.332  -0.328  -0.326  -0.326  -0.323  -0.322  -0.320
 -0.317  -0.314  -0.312  -0.305  -0.305  -0.303  -0.298  -0.295
 -0.294  -0.294  -0.292  -0.291  -0.288  -0.286  -0.282  -0.279
 -0.276  -0.275  -0.274  -0.267  -0.253  -0.251  -0.249  -0.246
 -0.244  -0.237  -0.230  -0.225  -0.191  -0.188

          Ground-State Mulliken Net Atomic Charges

     Atom                 Charge (a.u.)
  ----------------------------------------
      1 C                     0.270039
      2 C                    -0.109797
      3 N                    -0.489075
      4 C                    -0.052903
      5 C                     0.069494
      6 C                     0.031583
      7 C                     0.053160
      8 C                     0.043299
      9 C                     0.273135
     10 N                    -0.524974
     11 N                    -0.574529
     12 C                     0.183016
     13 C                     0.289490
     14 S                     0.596890
     15 N                    -0.537339
     16 C                    -0.225465
     17 S                     0.356281
     18 C                    -0.105058
     19 C                    -0.236897
     20 S                     0.289249
     21 C                     0.152736
     22 C                     0.052412
     23 C                    -0.302778
     24 C                    -0.076511
     25 N                    -0.435926
     26 S                     0.287104
     27 C                     0.111088
     28 C                    -0.300804
     29 C                    -0.223264
     30 H                     0.082506
     31 H                     0.120006
     32 H                     0.100078
     33 H                     0.115269
     34 H                     0.119342
     35 H                     0.108048
     36 H                     0.110180
     37 H                     0.134936
     38 H                     0.119978
     39 C                    -0.181171
     40 H                     0.092459
     41 H                     0.101987
     42 H                     0.097330
     43 C                    -0.180720
     44 H                     0.096770
     45 C                    -0.181289
     46 H                     0.088296
     47 H                     0.092134
     48 H                     0.095285
     49 C                    -0.176136
     50 H                     0.090553
     51 C                    -0.321980
     52 H                     0.094342
     53 H                     0.101716
     54 H                     0.105132
     55 H                     0.099494
     56 C                     0.271507
     57 C                    -0.125323
     58 N                    -0.481846
     59 C                    -0.082698
     60 C                     0.059044
     61 C                     0.067630
     62 C                     0.017507
     63 C                     0.044157
     64 C                     0.250457
     65 N                    -0.460705
     66 N                    -0.576695
     67 C                     0.195533
     68 C                     0.261935
     69 S                     0.619283
     70 N                    -0.539811
     71 C                    -0.198723
     72 S                     0.338734
     73 C                    -0.122094
     74 C                    -0.237906
     75 S                     0.262280
     76 C                     0.122836
     77 C                     0.071198
     78 C                    -0.306473
     79 C                    -0.047678
     80 N                    -0.425907
     81 S                     0.253528
     82 C                     0.115486
     83 C                    -0.303644
     84 C                    -0.240037
     85 H                     0.085275
     86 H                     0.099415
     87 H                     0.126054
     88 H                     0.110945
     89 H                     0.135658
     90 H                     0.137134
     91 H                     0.102134
     92 H                     0.134748
     93 H                     0.117176
     94 C                    -0.156355
     95 H                     0.115611
     96 H                     0.114373
     97 H                     0.105099
     98 C                    -0.181331
     99 H                     0.089633
    100 C                    -0.183327
    101 H                     0.083621
    102 H                     0.088365
    103 H                     0.087023
    104 C                    -0.171980
    105 H                     0.091883
    106 C                    -0.315507
    107 H                     0.085483
    108 H                     0.101674
    109 H                     0.103832
    110 H                     0.103584
  ----------------------------------------
  Sum of atomic charges =     0.000000

                    Cartesian Multipole Moments
 -----------------------------------------------------------------
    Charge (ESU x 10^10)
                 0.0000
    Dipole Moment (Debye)
         X       1.1669      Y       0.9267      Z       0.6391
       Tot       1.6214
    Quadrupole Moments (Debye-Ang)
        XX    -380.7147     XY      18.5647     YY    -450.7277
        XZ       7.5558     YZ       3.0755     ZZ    -457.8938

 Total job time:  116.95s(wall), 1255.13s(cpu)
        *  Thank you very much for using Q-Chem.  Have a nice day.  *
