 Q-Chem 4.4, Q-Chem, Inc., Pleasanton, CA (2016)
 Q-Chem 4.4.2 for Intel X86 Linux

User input:
--------------------------------------------------------------
$comment
SP
$end

$rem
MEM_STATIC 5000
MEM_TOTAL 20000
JOBTYPE SP
EXCHANGE B3LYP
BASIS 6-31g(d,p)
$end

$molecule
0 1
C         -18.319000     -8.696000    -10.618000
C         -18.529000     -9.579000     -9.561000
N         -18.438000     -9.083000    -11.847000
C         -18.968000    -10.880000     -9.780000
C         -18.762000    -10.405000    -12.115000
C         -19.026000    -11.304000    -11.107000
C         -19.274000    -12.741000    -11.469000
C         -18.790000    -13.169000    -12.762000
C         -19.945000    -13.728000    -10.706000
N         -18.991000    -14.459000    -13.283000
N         -20.389000    -13.635000     -9.453000
C         -20.093000    -15.040000    -11.275000
C         -19.636000    -15.381000    -12.573000
S         -21.062000    -15.027000     -9.050000
N         -20.765000    -15.858000    -10.454000
C         -20.041000    -16.665000    -13.221000
S         -21.155000    -17.891000    -12.697000
C         -19.653000    -17.011000    -14.542000
C         -21.125000    -18.796000    -14.219000
S         -18.524000    -16.094000    -15.526000
C         -20.139000    -18.222000    -14.950000
C         -21.960000    -19.851000    -14.700000
C         -18.785000    -17.491000    -16.744000
C         -19.712000    -18.472000    -16.284000
N         -22.675000    -20.409000    -13.764000
S         -22.616000    -20.063000    -16.348000
C         -23.722000    -21.183000    -14.274000
C         -23.878000    -21.043000    -15.622000
C         -18.020000     -7.212000    -10.448000
H         -18.443000     -9.166000     -8.560000
H         -19.135000    -11.553000     -8.944000
H         -18.759000    -10.636000    -13.179000
H         -18.101000    -12.582000    -13.367000
H         -18.247000    -17.408000    -17.679000
H         -20.100000    -19.281000    -16.892000
H         -24.363000    -21.771000    -13.632000
H         -24.686000    -21.422000    -16.234000
H         -17.118000     -7.009000     -9.858000
C         -19.179000     -6.460000     -9.824000
H         -17.916000     -6.926000    -11.502000
H         -18.912000     -5.397000     -9.797000
H         -19.252000     -6.811000     -8.787000
C         -20.586000     -6.745000    -10.431000
H         -20.603000     -6.640000    -11.522000
C         -21.728000     -5.908000     -9.852000
H         -20.773000     -7.808000    -10.236000
H         -22.514000     -5.690000    -10.586000
H         -21.386000     -4.868000     -9.781000
C         -22.168000     -6.433000     -8.497000
H         -22.595000     -7.439000     -8.600000
C         -23.217000     -5.374000     -7.834000
H         -21.403000     -6.628000     -7.735000
H         -23.727000     -5.690000     -6.915000
H         -23.955000     -5.126000     -8.606000
H         -22.700000     -4.436000     -7.599000
C         -14.246000    -15.730000    -14.705000
C         -13.470000    -16.295000    -13.688000
N         -15.309000    -14.868000    -14.454000
C         -13.717000    -15.960000    -12.375000
C         -15.469000    -14.501000    -13.185000
C         -14.784000    -15.094000    -12.094000
C         -15.166000    -14.817000    -10.645000
C         -15.167000    -15.868000     -9.707000
C         -15.484000    -13.534000    -10.146000
N         -15.493000    -15.605000     -8.420000
N         -15.377000    -12.396000    -10.870000
C         -15.730000    -13.301000     -8.767000
C         -15.801000    -14.452000     -7.922000
S         -15.743000    -11.182000     -9.837000
N         -15.912000    -11.977000     -8.471000
C         -16.246000    -14.556000     -6.467000
S         -15.993000    -15.967000     -5.426000
C         -17.335000    -13.860000     -6.021000
C         -17.014000    -15.231000     -4.137000
S         -18.158000    -12.438000     -6.586000
C         -17.642000    -14.191000     -4.693000
C         -17.004000    -15.614000     -2.749000
C         -18.986000    -12.314000     -4.972000
C         -18.471000    -13.247000     -4.100000
N         -15.798000    -16.163000     -2.360000
S         -17.953000    -14.953000     -1.456000
C         -15.651000    -16.133000     -0.981000
C         -16.747000    -15.558000     -0.375000
C         -14.044000    -16.283000    -16.131000
H         -12.648000    -16.987000    -13.843000
H         -13.106000    -16.322000    -11.554000
H         -16.249000    -13.754000    -13.046000
H         -14.881000    -16.901000     -9.897000
H         -19.674000    -11.485000     -4.866000
H         -18.780000    -13.251000     -3.061000
H         -14.803000    -16.543000     -0.448000
H         -16.839000    -15.727000      0.690000
H         -13.767000    -17.342000    -16.062000
C         -13.109000    -15.470000    -17.057000
H         -15.059000    -16.374000    -16.539000
H         -13.451000    -14.430000    -16.987000
H         -13.210000    -15.761000    -18.110000
C         -11.603000    -15.685000    -16.700000
H         -11.412000    -15.335000    -15.678000
C         -10.575000    -15.037000    -17.647000
H         -11.426000    -16.763000    -16.606000
H         -10.827000    -13.982000    -17.812000
H         -10.566000    -15.572000    -18.604000
C          -9.176000    -15.130000    -17.071000
H          -8.504000    -14.541000    -17.706000
C          -8.581000    -16.537000    -17.121000
H          -9.148000    -14.558000    -16.135000
H          -7.523000    -16.443000    -16.846000
H          -8.655000    -16.936000    -18.140000
H          -9.164000    -17.164000    -16.436000
$end

--------------------------------------------------------------

             Standard Nuclear Orientation (Angstroms)
    I     Atom           X                Y                Z
 ----------------------------------------------------------------
    1      C       2.7710288896     1.7894593339     4.5799231819
    2      C       3.3000642365     1.1208018606     3.4780807317
    3      N       1.5211773870     1.6756803805     4.8950367665
    4      C       2.5332595499     0.2316262088     2.7333255821
    5      C       0.6911743458     0.8887302804     4.1099963271
    6      C       1.1745259178     0.1704861093     3.0402030907
    7      C       0.2009857736    -0.5815954604     2.1775850408
    8      C      -1.1784193838    -0.1551794137     2.2461398851
    9      C       0.4644272422    -1.6756208335     1.3171862520
   10      N      -2.2262314267    -0.7870313344     1.5541896896
   11      N       1.6470366408    -2.1936972657     0.9872986638
   12      C      -0.6406185452    -2.2621863226     0.6087910694
   13      C      -1.9809214605    -1.8252300139     0.7590950271
   14      S       1.4037627061    -3.4068295488    -0.0237057162
   15      N      -0.2464484296    -3.2970726043    -0.1451249098
   16      C      -3.1189890239    -2.6250528461     0.2135030016
   17      S      -3.1382431984    -4.1882380727    -0.5446059774
   18      C      -4.4756360366    -2.2501019544     0.3984941146
   19      C      -4.9029294509    -4.3366004189    -0.5613405045
   20      S      -5.0070085490    -0.7404302869     1.1212117006
   21      C      -5.3614993287    -3.1235871508    -0.1684722331
   22      C      -5.7478834726    -5.4570168190    -0.8302843493
   23      C      -6.7112248932    -1.3853798160     0.6934959575
   24      C      -6.6877302834    -2.6735004330     0.0823631737
   25      N      -5.1262745060    -6.4417548736    -1.4155861999
   26      S      -7.2344454370    -5.9396045867     0.0348321587
   27      C      -5.8450125348    -7.6401455231    -1.3640061929
   28      C      -6.9471535112    -7.5642264247    -0.5636552957
   29      C       3.5937945224     2.6297197341     5.5482083534
   30      H       4.3651886333     1.2423229791     3.3028419312
   31      H       2.9637444705    -0.2879852550     1.8822082813
   32      H      -0.3512740425     0.9279808928     4.4218083651
   33      H      -1.4937169429     0.7775352714     2.7108395359
   34      H      -7.5402969256    -0.7502488981     0.9759960145
   35      H      -7.5680298451    -3.2742593794    -0.1147417979
   36      H      -5.5020417521    -8.5340315589    -1.8661294818
   37      H      -7.5903283909    -8.3761558780    -0.2503732551
   38      H       4.1261696059     3.4600307282     5.0685486577
   39      C       4.5999424030     1.7981217883     6.3190989414
   40      H       2.7950964137     2.9647496558     6.2215316655
   41      H       5.1014421422     2.4594924357     7.0353906964
   42      H       5.3502698547     1.4675678064     5.5899612449
   43      C       4.0592360678     0.4777660924     6.9464907610
   44      H       3.1535021813     0.6353438504     7.5434919144
   45      C       5.0645160914    -0.2992258796     7.7983531616
   46      H       3.7452594570    -0.1375395285     6.0945631345
   47      H       4.5941718455    -0.8396382157     8.6295010410
   48      H       5.5870224664     0.4159748221     8.4457170812
   49      C       6.0445106199    -1.0710795335     6.9328459918
   50      H       5.5176107512    -1.8462926911     6.3615360160
   51      C       7.2199098460    -1.6854980805     7.8827815205
   52      H       6.5521508975    -0.5440271372     6.1152818536
   53      H       7.9224570380    -2.3856415614     7.4129479871
   54      H       6.7260956430    -2.1657525073     8.7357968888
   55      H       7.8224072767    -0.8712525167     8.3027327176
   56      C      -4.4987778816     3.1981908601    -0.7054754782
   57      C      -3.9431350048     3.5577793369    -1.9374036908
   58      N      -3.7764414543     2.5425120167     0.2866582528
   59      C      -2.6113400271     3.3077433691    -2.1843999500
   60      C      -2.4759316420     2.3896411791     0.0501107208
   61      C      -1.8604464313     2.6463978257    -1.2014518944
   62      C      -0.4246495413     2.2341216991    -1.5027319741
   63      C      -0.0980202313     1.7033554003    -2.7660792857
   64      C       0.6471034640     2.3935397501    -0.5960096458
   65      N       1.1840706450     1.3559991523    -3.0256955832
   66      N       0.5397159059     3.0295043880     0.5933960426
   67      C       1.9885450570     2.0960060379    -0.9544146439
   68      C       2.1926866665     1.4730728775    -2.2249056832
   69      S       2.0515282241     3.0535569688     1.2168429031
   70      N       2.8894221973     2.4199006048     0.0239660016
   71      C       3.4595533788     0.8516166695    -2.8034442859
   72      S       3.6838094653     0.3967977534    -4.5009306515
   73      C       4.2768825904     0.0829466016    -2.0221810225
   74      C       5.2532437928    -0.3956544789    -4.1077979117
   75      S       4.5263895137    -0.0339191490    -0.3067432675
   76      C       5.3128443494    -0.4876698540    -2.7762195458
   77      C       6.2888552041    -0.7056429881    -5.0589809272
   78      C       6.0746670881    -0.9326305271    -0.6247219013
   79      C       6.3528421078    -0.9390657153    -1.9733045821
   80      N       6.2627277926     0.1272420703    -6.1602428568
   81      S       7.8199393676    -1.4628037178    -4.7558969228
   82      C       7.4731074669     0.1068303251    -6.8375274386
   83      C       8.3742713885    -0.7354755060    -6.2231159531
   84      C      -6.0285415555     3.3344143375    -0.5593410668
   85      H      -4.4794231563     4.0500093798    -2.7428089325
   86      H      -2.1169747968     3.6213034873    -3.0985602594
   87      H      -1.9314805122     1.9593755424     0.8892617497
   88      H      -0.7779005438     1.5767641112    -3.6067471192
   89      H       6.6206330893    -1.2426729778     0.2571033672
   90      H       7.2898787139    -1.3469891572    -2.3346615582
   91      H       7.6709837125     0.6517153688    -7.7514411548
   92      H       9.2367675138    -1.0145012880    -6.8142970141
   93      H      -6.4927411706     3.1581258838    -1.5373043067
   94      C      -6.5407416961     4.6193020964     0.1330348880
   95      H      -6.3383006484     2.4237749570    -0.0304221476
   96      H      -5.9577771461     4.7121608875     1.0576935160
   97      H      -7.5925386296     4.5387852018     0.4345829611
   98      C      -6.4641785443     5.8615336456    -0.8117978284
   99      H      -5.4197899475     6.0510897268    -1.0889006089
  100      C      -7.0810195213     7.1681356731    -0.2771995205
  101      H      -6.9064541835     5.5836944983    -1.7758759721
  102      H      -6.7051430154     7.3771505254     0.7321486076
  103      H      -8.1736611896     7.0793764615    -0.2569267074
  104      C      -6.7452086839     8.3350093129    -1.1845379304
  105      H      -7.0843481633     9.2566599392    -0.6974295886
  106      C      -7.5065530213     8.3244077755    -2.5098365411
  107      H      -5.6568371956     8.4746451833    -1.1808873000
  108      H      -7.3158764184     9.2913869892    -2.9919346985
  109      H      -8.5819313529     8.2215281254    -2.3200597739
  110      H      -7.1494806038     7.4626552052    -3.0861392360
 ----------------------------------------------------------------

    9   -5663.4736726467      9.27E-06 Convergence criterion met
 Total energy in the final basis set = -5663.4736726467

                    Orbital Energies (a.u.)
 --------------------------------------------------------------

 Alpha MOs
 -- Occupied --
-88.986 -88.986 -88.936 -88.927 -88.919 -88.914 -88.906 -88.905
-14.381 -14.381 -14.377 -14.376 -14.353 -14.343 -14.341 -14.337
-14.331 -14.328 -10.270 -10.267 -10.265 -10.260 -10.258 -10.256
-10.253 -10.252 -10.248 -10.237 -10.236 -10.234 -10.233 -10.233
-10.232 -10.232 -10.231 -10.230 -10.230 -10.230 -10.229 -10.228
-10.226 -10.226 -10.223 -10.223 -10.222 -10.221 -10.217 -10.213
-10.208 -10.205 -10.203 -10.202 -10.199 -10.198 -10.196 -10.194
-10.186 -10.184 -10.183 -10.182 -10.182 -10.177 -10.176 -10.176
-10.175 -10.174 -10.174 -10.173  -8.041  -8.041  -7.997  -7.988
 -7.977  -7.972  -7.966  -7.962  -6.006  -6.006  -6.001  -6.000
 -6.000  -5.999  -5.961  -5.958  -5.954  -5.952  -5.949  -5.945
 -5.942  -5.938  -5.937  -5.934  -5.933  -5.931  -5.928  -5.927
 -5.927  -5.924  -5.922  -5.919  -1.037  -1.037  -0.968  -0.961
 -0.955  -0.951  -0.948  -0.931  -0.914  -0.909  -0.902  -0.900
 -0.839  -0.839  -0.828  -0.825  -0.808  -0.808  -0.805  -0.804
 -0.803  -0.801  -0.798  -0.797  -0.785  -0.784  -0.769  -0.768
 -0.748  -0.747  -0.741  -0.736  -0.718  -0.709  -0.707  -0.706
 -0.693  -0.692  -0.674  -0.672  -0.655  -0.652  -0.649  -0.643
 -0.632  -0.632  -0.630  -0.623  -0.614  -0.612  -0.600  -0.597
 -0.593  -0.593  -0.584  -0.581  -0.577  -0.576  -0.568  -0.562
 -0.544  -0.542  -0.539  -0.538  -0.523  -0.522  -0.516  -0.515
 -0.505  -0.502  -0.498  -0.497  -0.490  -0.481  -0.476  -0.473
 -0.471  -0.469  -0.467  -0.465  -0.458  -0.456  -0.451  -0.449
 -0.447  -0.446  -0.443  -0.442  -0.440  -0.438  -0.435  -0.429
 -0.428  -0.427  -0.424  -0.419  -0.417  -0.416  -0.414  -0.412
 -0.410  -0.407  -0.406  -0.404  -0.401  -0.400  -0.400  -0.399
 -0.392  -0.389  -0.388  -0.387  -0.386  -0.383  -0.382  -0.381
 -0.379  -0.376  -0.375  -0.374  -0.359  -0.359  -0.358  -0.354
 -0.352  -0.352  -0.350  -0.345  -0.343  -0.342  -0.340  -0.339
 -0.336  -0.334  -0.330  -0.329  -0.324  -0.322  -0.322  -0.318
 -0.308  -0.307  -0.306  -0.305  -0.304  -0.302  -0.300  -0.300
 -0.296  -0.293  -0.290  -0.288  -0.286  -0.283  -0.278  -0.277
 -0.273  -0.269  -0.266  -0.262  -0.253  -0.253  -0.251  -0.247
 -0.240  -0.237  -0.232  -0.228  -0.193  -0.192

          Ground-State Mulliken Net Atomic Charges

     Atom                 Charge (a.u.)
  ----------------------------------------
      1 C                     0.300486
      2 C                    -0.145911
      3 N                    -0.491533
      4 C                    -0.076582
      5 C                     0.042197
      6 C                     0.059933
      7 C                     0.034537
      8 C                     0.032450
      9 C                     0.240411
     10 N                    -0.553437
     11 N                    -0.559488
     12 C                     0.200017
     13 C                     0.353093
     14 S                     0.607347
     15 N                    -0.570427
     16 C                    -0.219317
     17 S                     0.351583
     18 C                    -0.130982
     19 C                    -0.199906
     20 S                     0.313623
     21 C                     0.142271
     22 C                     0.049454
     23 C                    -0.314708
     24 C                    -0.088694
     25 N                    -0.421472
     26 S                     0.267174
     27 C                     0.122244
     28 C                    -0.309468
     29 C                    -0.233248
     30 H                     0.088677
     31 H                     0.141940
     32 H                     0.114189
     33 H                     0.137620
     34 H                     0.122519
     35 H                     0.105130
     36 H                     0.121005
     37 H                     0.138221
     38 H                     0.101811
     39 C                    -0.177910
     40 H                     0.124255
     41 H                     0.095593
     42 H                     0.090504
     43 C                    -0.184064
     44 H                     0.094900
     45 C                    -0.170822
     46 H                     0.096690
     47 H                     0.094307
     48 H                     0.089847
     49 C                    -0.176766
     50 H                     0.096927
     51 C                    -0.332763
     52 H                     0.096825
     53 H                     0.097432
     54 H                     0.104754
     55 H                     0.105645
     56 C                     0.252268
     57 C                    -0.104576
     58 N                    -0.468302
     59 C                    -0.074012
     60 C                     0.113894
     61 C                     0.035643
     62 C                     0.004279
     63 C                     0.056418
     64 C                     0.225618
     65 N                    -0.502919
     66 N                    -0.553213
     67 C                     0.166289
     68 C                     0.300662
     69 S                     0.634158
     70 N                    -0.545511
     71 C                    -0.204052
     72 S                     0.329868
     73 C                    -0.150130
     74 C                    -0.195879
     75 S                     0.271558
     76 C                     0.166884
     77 C                     0.002308
     78 C                    -0.323423
     79 C                    -0.066468
     80 N                    -0.417076
     81 S                     0.294831
     82 C                     0.122638
     83 C                    -0.307748
     84 C                    -0.242013
     85 H                     0.093425
     86 H                     0.101584
     87 H                     0.100818
     88 H                     0.122380
     89 H                     0.134181
     90 H                     0.105934
     91 H                     0.125142
     92 H                     0.127611
     93 H                     0.098715
     94 C                    -0.176968
     95 H                     0.113784
     96 H                     0.110110
     97 H                     0.092934
     98 C                    -0.173906
     99 H                     0.091800
    100 C                    -0.169519
    101 H                     0.087578
    102 H                     0.091267
    103 H                     0.086298
    104 C                    -0.181925
    105 H                     0.085115
    106 C                    -0.311423
    107 H                     0.092599
    108 H                     0.103278
    109 H                     0.104893
    110 H                     0.104186
  ----------------------------------------
  Sum of atomic charges =     0.000000

                    Cartesian Multipole Moments
 -----------------------------------------------------------------
    Charge (ESU x 10^10)
                 0.0000
    Dipole Moment (Debye)
         X       1.3986      Y      -1.5590      Z      -0.4024
       Tot       2.1327
    Quadrupole Moments (Debye-Ang)
        XX    -377.0205     XY       1.5467     YY    -420.5371
        XZ      -2.6199     YZ      -3.0868     ZZ    -447.2836

 Total job time:  94.93s(wall), 1049.85s(cpu)
        *  Thank you very much for using Q-Chem.  Have a nice day.  *
