 Q-Chem 4.4, Q-Chem, Inc., Pleasanton, CA (2016)
 Q-Chem 4.4.2 for Intel X86 Linux

User input:
--------------------------------------------------------------
$comment
SP
$end

$rem
MEM_STATIC 5000
MEM_TOTAL 20000
JOBTYPE SP
EXCHANGE B3LYP
BASIS 6-31g(d,p)
$end

$molecule
0 1
C         -13.246000     -6.111000     -9.388000
C         -12.314000     -6.586000     -8.447000
N         -13.814000     -6.921000    -10.326000
C         -12.095000     -8.006000     -8.445000
C         -13.580000     -8.217000    -10.334000
C         -12.667000     -8.853000     -9.432000
C         -12.452000    -10.337000     -9.467000
C         -12.062000    -10.889000    -10.730000
C         -12.600000    -11.253000     -8.416000
N         -11.769000    -12.194000    -10.950000
N         -12.882000    -10.945000     -7.167000
C         -12.370000    -12.593000     -8.670000
C         -11.958000    -13.084000     -9.913000
S         -12.981000    -12.380000     -6.380000
N         -12.612000    -13.361000     -7.595000
C         -11.519000    -14.481000    -10.087000
S         -11.450000    -15.834000     -8.877000
C         -10.809000    -14.953000    -11.160000
C         -10.433000    -16.884000     -9.892000
S         -10.715000    -14.196000    -12.746000
C         -10.264000    -16.240000    -11.065000
C          -9.970000    -18.255000     -9.579000
C          -9.776000    -15.624000    -13.266000
C          -9.726000    -16.631000    -12.316000
N          -9.106000    -18.944000    -10.365000
S         -10.495000    -18.995000     -8.063000
C          -8.906000    -20.175000     -9.848000
C          -9.491000    -20.331000     -8.627000
C         -13.507000     -4.613000     -9.457000
H         -11.775000     -5.948000     -7.753000
H         -11.559000     -8.486000     -7.633000
H         -14.035000     -8.814000    -11.122000
H         -11.918000    -10.240000    -11.593000
H          -9.284000    -15.584000    -14.228000
H          -9.264000    -17.595000    -12.493000
H          -8.200000    -20.888000    -10.254000
H          -9.287000    -21.229000     -8.059000
H         -12.549000     -4.089000     -9.562000
C         -14.168000     -4.045000     -8.161000
H         -14.181000     -4.377000    -10.290000
H         -14.552000     -3.084000     -8.525000
H         -13.467000     -3.769000     -7.363000
C         -15.385000     -4.855000     -7.578000
H         -16.066000     -4.948000     -8.432000
C         -16.102000     -4.139000     -6.403000
H         -15.174000     -5.886000     -7.268000
H         -16.128000     -3.077000     -6.678000
H         -15.431000     -4.218000     -5.539000
C         -17.617000     -4.627000     -6.381000
H         -18.174000     -4.040000     -5.639000
C         -17.758000     -6.181000     -6.028000
H         -18.027000     -4.465000     -7.385000
H         -17.441000     -6.424000     -5.007000
H         -17.349000     -6.908000     -6.741000
H         -18.836000     -6.386000     -6.008000
C         -14.246000    -15.730000    -14.705000
C         -13.470000    -16.295000    -13.688000
N         -15.309000    -14.868000    -14.454000
C         -13.717000    -15.960000    -12.375000
C         -15.469000    -14.501000    -13.185000
C         -14.784000    -15.094000    -12.094000
C         -15.166000    -14.817000    -10.645000
C         -15.167000    -15.868000     -9.707000
C         -15.484000    -13.534000    -10.146000
N         -15.493000    -15.605000     -8.420000
N         -15.377000    -12.396000    -10.870000
C         -15.730000    -13.301000     -8.767000
C         -15.801000    -14.452000     -7.922000
S         -15.743000    -11.182000     -9.837000
N         -15.912000    -11.977000     -8.471000
C         -16.246000    -14.556000     -6.467000
S         -15.993000    -15.967000     -5.426000
C         -17.335000    -13.860000     -6.021000
C         -17.014000    -15.231000     -4.137000
S         -18.158000    -12.438000     -6.586000
C         -17.642000    -14.191000     -4.693000
C         -17.004000    -15.614000     -2.749000
C         -18.986000    -12.314000     -4.972000
C         -18.471000    -13.247000     -4.100000
N         -15.798000    -16.163000     -2.360000
S         -17.953000    -14.953000     -1.456000
C         -15.651000    -16.133000     -0.981000
C         -16.747000    -15.558000     -0.375000
C         -14.044000    -16.283000    -16.131000
H         -12.648000    -16.987000    -13.843000
H         -13.106000    -16.322000    -11.554000
H         -16.249000    -13.754000    -13.046000
H         -14.881000    -16.901000     -9.897000
H         -19.674000    -11.485000     -4.866000
H         -18.780000    -13.251000     -3.061000
H         -14.803000    -16.543000     -0.448000
H         -16.839000    -15.727000      0.690000
H         -13.767000    -17.342000    -16.062000
C         -13.109000    -15.470000    -17.057000
H         -15.059000    -16.374000    -16.539000
H         -13.451000    -14.430000    -16.987000
H         -13.210000    -15.761000    -18.110000
C         -11.603000    -15.685000    -16.700000
H         -11.412000    -15.335000    -15.678000
C         -10.575000    -15.037000    -17.647000
H         -11.426000    -16.763000    -16.606000
H         -10.827000    -13.982000    -17.812000
H         -10.566000    -15.572000    -18.604000
C          -9.176000    -15.130000    -17.071000
H          -8.504000    -14.541000    -17.706000
C          -8.581000    -16.537000    -17.121000
H          -9.148000    -14.558000    -16.135000
H          -7.523000    -16.443000    -16.846000
H          -8.655000    -16.936000    -18.140000
H          -9.164000    -17.164000    -16.436000
$end

--------------------------------------------------------------

             Standard Nuclear Orientation (Angstroms)
    I     Atom           X                Y                Z
 ----------------------------------------------------------------
    1      C      -3.4050662948     6.1770222456     1.6539741768
    2      C      -3.3769446898     5.3705801099     2.8066190731
    3      N      -2.5828331275     5.9573327463     0.5889684761
    4      C      -2.5227796733     4.2170343210     2.7425937856
    5      C      -1.7802323680     4.9136955166     0.5559631177
    6      C      -1.6482969039     3.9931201779     1.6453680374
    7      C      -0.7360367189     2.8063918689     1.5496430375
    8      C       0.6305712375     3.0850948245     1.2230234484
    9      C      -1.0613696546     1.4543161031     1.7274367506
   10      N       1.6151968577     2.1568469930     1.1446502939
   11      N      -2.2378957230     0.9930749822     2.0981550247
   12      C      -0.0639624832     0.5087256879     1.5723441934
   13      C       1.2666138554     0.8294483438     1.2849810345
   14      S      -2.0790971482    -0.6388291798     2.1063293129
   15      N      -0.5289638894    -0.7442992270     1.7054428588
   16      C       2.3364384121    -0.1840749275     1.3383851184
   17      S       2.2329232390    -1.9614389986     1.6985678049
   18      C       3.6777279093     0.0921978079     1.3915721507
   19      C       3.9843742337    -2.1619069076     1.9419728806
   20      S       4.4388903153     1.6000151521     0.8972042227
   21      C       4.5496953874    -0.9659782942     1.6785478535
   22      C       4.7085035922    -3.4183846885     2.2400991259
   23      C       6.0049042067     0.8060932169     1.2267394301
   24      C       5.8923819503    -0.5440167145     1.5158603648
   25      N       6.0351252418    -3.4622970398     2.5178754824
   26      S       3.7843257396    -4.9215354153     2.3290608541
   27      C       6.4172229314    -4.7438515936     2.7029951224
   28      C       5.3632812953    -5.6078671245     2.7122789880
   29      C      -4.2731451735     7.4273016797     1.6652168314
   30      H      -3.9497676755     5.5783722328     3.7054501255
   31      H      -2.5879217871     3.4332778335     3.4899372631
   32      H      -1.1232453047     4.8007678387    -0.3042655369
   33      H       0.9629559540     4.1123299309     1.0780598788
   34      H       6.8938726026     1.4215760591     1.2316447394
   35      H       6.7457891243    -1.1945168576     1.6662424091
   36      H       7.4141842815    -5.0336482758     3.0091436964
   37      H       5.5349127108    -6.6410002179     2.9839822608
   38      H      -4.0247440986     8.0254373429     2.5505956398
   39      C      -5.7993464310     7.1136849738     1.7725261191
   40      H      -4.1290507695     8.0050646666     0.7436487472
   41      H      -6.2330589251     8.0671411538     1.4465080440
   42      H      -6.1772674610     6.9824108192     2.7944477361
   43      C      -6.3553362493     5.9875780979     0.8239289305
   44      H      -6.0254544384     6.3034438214    -0.1726315722
   45      C      -7.9010793394     5.8567742395     0.8545663227
   46      H      -5.9281027574     4.9865414956     0.9616941811
   47      H      -8.2821203343     6.8848268284     0.8999605373
   48      H      -8.1516097142     5.3917773377     1.8158105230
   49      C      -8.3728456414     5.2722014871    -0.5488453252
   50      H      -9.4695773498     5.2897886923    -0.5963032031
   51      C      -7.8649324174     3.7751105862    -0.7940982383
   52      H      -7.9444703904     5.9117426494    -1.3297689745
   53      H      -8.3062570763     3.0487999956    -0.1015056659
   54      H      -6.7843015503     3.6091751608    -0.8883392258
   55      H      -8.2790318439     3.4746442576    -1.7650517131
   56      C       4.9663315953     1.0116945452    -3.3494983286
   57      C       4.9149639664     0.0716675749    -2.3153800271
   58      N       3.8312499512     1.4703867338    -4.0107132237
   59      C       3.6955394709    -0.3984250465    -1.8803859729
   60      C       2.6669319762     1.0606036403    -3.5136302636
   61      C       2.5353071577     0.0466803819    -2.5308843487
   62      C       1.1870602646    -0.5610641334    -2.1632827717
   63      C       1.0822430378    -1.9467124168    -1.9321157674
   64      C       0.0056508141     0.1931217064    -1.9852675217
   65      N      -0.1179863781    -2.4709734105    -1.5909211608
   66      N      -0.0364398874     1.5452296303    -2.0117540312
   67      C      -1.2057848036    -0.3975939168    -1.5381380140
   68      C      -1.2251050356    -1.8228598803    -1.4280895604
   69      S      -1.5803139988     1.9439621749    -1.6480149958
   70      N      -2.2016716464     0.5170225072    -1.3250601098
   71      C      -2.4054682553    -2.7566193941    -1.1817121267
   72      S      -2.2723324307    -4.4689199111    -0.7470711348
   73      C      -3.6023165732    -2.5453507670    -1.8079490395
   74      C      -4.0524473103    -4.6794201543    -0.9274558994
   75      S      -4.3456987417    -1.1483092742    -2.5250933896
   76      C      -4.5078055699    -3.5822411724    -1.5389844244
   77      C      -4.8231167708    -5.7571447495    -0.3636196824
   78      C      -5.9396115147    -2.0228486085    -2.5010304567
   79      C      -5.8169720204    -3.2172498875    -1.8268916437
   80      N      -4.2374618219    -6.2916861551     0.7670578873
   81      S      -6.5323496489    -6.0240026324    -0.4927740036
   82      C      -5.1559392728    -7.0070208781     1.5212762950
   83      C      -6.4047604128    -6.9845756408     0.9390229381
   84      C       6.3596553500     1.3581291056    -3.9140521436
   85      H       5.7786209898    -0.3255516756    -1.7910839151
   86      H       3.5969282607    -1.0810109385    -1.0420791501
   87      H       1.8052312333     1.5168388175    -3.9984511509
   88      H       1.8983286391    -2.6667893686    -1.9539898346
   89      H      -6.7780873669    -1.4703488161    -2.9054105066
   90      H      -6.6929425167    -3.8248359790    -1.6305938319
   91      H      -4.9143185394    -7.5450932553     2.4286849890
   92      H      -7.1092657226    -7.7190822051     1.3070207308
   93      H       7.0027212657     0.4734225036    -3.8320066906
   94      C       7.0227592423     2.6435986853    -3.3658448947
   95      H       6.2165483273     1.3939211536    -5.0018063940
   96      H       6.2611222399     3.4290937667    -3.4456606422
   97      H       7.8714355989     2.9689072941    -3.9803477431
   98      C       7.5955712043     2.4366837764    -1.9268234645
   99      H       6.7799508355     2.1872606809    -1.2368839502
  100      C       8.4047631302     3.6072579456    -1.3365171529
  101      H       8.1839018604     1.5114214699    -1.9244353161
  102      H       7.8432735099     4.5440883822    -1.4405947165
  103      H       9.3669353402     3.6899053477    -1.8556982825
  104      C       8.7081078816     3.3694302010     0.1294453043
  105      H       9.1606914902     4.2804503121     0.5380287528
  106      C       9.7694340445     2.2969040692     0.3732658785
  107      H       7.7585925798     3.3330703653     0.6782281885
  108      H      10.0249796759     2.3413318055     1.4393557464
  109      H      10.6640987299     2.5170572835    -0.2218355103
  110      H       9.3437307064     1.3368391770     0.0581546746
 ----------------------------------------------------------------

   10   -5663.4903551081      4.08E-06 Convergence criterion met
 Total energy in the final basis set = -5663.4903551081

                    Orbital Energies (a.u.)
 --------------------------------------------------------------

 Alpha MOs
 -- Occupied --
-88.988 -88.987 -88.937 -88.935 -88.925 -88.914 -88.905 -88.904
-14.383 -14.383 -14.377 -14.375 -14.353 -14.351 -14.343 -14.335
-14.328 -14.326 -10.280 -10.270 -10.266 -10.258 -10.256 -10.253
-10.250 -10.249 -10.246 -10.245 -10.241 -10.236 -10.233 -10.233
-10.232 -10.231 -10.230 -10.230 -10.229 -10.228 -10.228 -10.226
-10.225 -10.224 -10.223 -10.223 -10.220 -10.218 -10.216 -10.213
-10.208 -10.205 -10.204 -10.200 -10.198 -10.198 -10.194 -10.189
-10.188 -10.187 -10.185 -10.180 -10.180 -10.178 -10.176 -10.176
-10.174 -10.174 -10.174 -10.174  -8.044  -8.042  -7.998  -7.996
 -7.983  -7.972  -7.964  -7.964  -6.009  -6.007  -6.003  -6.002
 -6.001  -6.000  -5.962  -5.959  -5.958  -5.957  -5.955  -5.953
 -5.947  -5.943  -5.939  -5.936  -5.933  -5.929  -5.928  -5.928
 -5.925  -5.925  -5.920  -5.920  -1.048  -1.038  -0.970  -0.960
 -0.955  -0.951  -0.937  -0.926  -0.915  -0.914  -0.909  -0.901
 -0.838  -0.838  -0.829  -0.823  -0.811  -0.808  -0.807  -0.805
 -0.803  -0.802  -0.796  -0.794  -0.783  -0.780  -0.767  -0.763
 -0.747  -0.747  -0.739  -0.735  -0.718  -0.717  -0.706  -0.705
 -0.693  -0.691  -0.677  -0.671  -0.652  -0.652  -0.644  -0.642
 -0.637  -0.632  -0.627  -0.619  -0.614  -0.611  -0.599  -0.596
 -0.592  -0.589  -0.583  -0.580  -0.577  -0.574  -0.564  -0.562
 -0.555  -0.544  -0.538  -0.538  -0.522  -0.522  -0.515  -0.509
 -0.500  -0.500  -0.499  -0.496  -0.493  -0.486  -0.479  -0.476
 -0.472  -0.471  -0.467  -0.459  -0.456  -0.456  -0.450  -0.449
 -0.448  -0.444  -0.442  -0.440  -0.438  -0.436  -0.433  -0.431
 -0.429  -0.421  -0.421  -0.418  -0.417  -0.415  -0.410  -0.409
 -0.408  -0.406  -0.404  -0.402  -0.400  -0.400  -0.399  -0.396
 -0.393  -0.392  -0.392  -0.389  -0.386  -0.384  -0.382  -0.381
 -0.376  -0.375  -0.373  -0.372  -0.364  -0.359  -0.358  -0.357
 -0.353  -0.352  -0.349  -0.347  -0.343  -0.341  -0.339  -0.338
 -0.335  -0.333  -0.331  -0.330  -0.328  -0.323  -0.322  -0.316
 -0.311  -0.310  -0.308  -0.307  -0.305  -0.301  -0.300  -0.298
 -0.297  -0.295  -0.290  -0.290  -0.287  -0.284  -0.281  -0.278
 -0.273  -0.266  -0.262  -0.260  -0.253  -0.251  -0.249  -0.247
 -0.243  -0.236  -0.233  -0.227  -0.197  -0.191

          Ground-State Mulliken Net Atomic Charges

     Atom                 Charge (a.u.)
  ----------------------------------------
      1 C                     0.281967
      2 C                    -0.110368
      3 N                    -0.478738
      4 C                    -0.082117
      5 C                     0.081778
      6 C                     0.029987
      7 C                    -0.019877
      8 C                     0.077840
      9 C                     0.272291
     10 N                    -0.528465
     11 N                    -0.573128
     12 C                     0.196689
     13 C                     0.316060
     14 S                     0.625084
     15 N                    -0.553566
     16 C                    -0.228747
     17 S                     0.307055
     18 C                    -0.135374
     19 C                    -0.254364
     20 S                     0.300147
     21 C                     0.185819
     22 C                     0.063855
     23 C                    -0.320300
     24 C                    -0.073039
     25 N                    -0.436843
     26 S                     0.287593
     27 C                     0.134501
     28 C                    -0.299654
     29 C                    -0.234721
     30 H                     0.099057
     31 H                     0.109134
     32 H                     0.101270
     33 H                     0.122632
     34 H                     0.134091
     35 H                     0.125753
     36 H                     0.121324
     37 H                     0.119883
     38 H                     0.111277
     39 C                    -0.197741
     40 H                     0.116821
     41 H                     0.097964
     42 H                     0.087410
     43 C                    -0.174382
     44 H                     0.093541
     45 C                    -0.177601
     46 H                     0.105301
     47 H                     0.086984
     48 H                     0.093491
     49 C                    -0.179339
     50 H                     0.092872
     51 C                    -0.328103
     52 H                     0.103786
     53 H                     0.105393
     54 H                     0.113981
     55 H                     0.095336
     56 C                     0.247211
     57 C                    -0.104108
     58 N                    -0.474144
     59 C                    -0.061604
     60 C                     0.096524
     61 C                     0.033488
     62 C                     0.005579
     63 C                     0.066298
     64 C                     0.225227
     65 N                    -0.504972
     66 N                    -0.548659
     67 C                     0.166773
     68 C                     0.311326
     69 S                     0.626620
     70 N                    -0.549948
     71 C                    -0.213669
     72 S                     0.327020
     73 C                    -0.135930
     74 C                    -0.196990
     75 S                     0.258040
     76 C                     0.163993
     77 C                     0.002392
     78 C                    -0.312857
     79 C                    -0.069862
     80 N                    -0.418250
     81 S                     0.295641
     82 C                     0.121873
     83 C                    -0.307929
     84 C                    -0.237958
     85 H                     0.098156
     86 H                     0.106310
     87 H                     0.107942
     88 H                     0.123609
     89 H                     0.136292
     90 H                     0.105447
     91 H                     0.124089
     92 H                     0.127377
     93 H                     0.096694
     94 C                    -0.175577
     95 H                     0.112411
     96 H                     0.110882
     97 H                     0.092556
     98 C                    -0.182412
     99 H                     0.100217
    100 C                    -0.168878
    101 H                     0.087930
    102 H                     0.092870
    103 H                     0.087560
    104 C                    -0.189585
    105 H                     0.087304
    106 C                    -0.314097
    107 H                     0.092093
    108 H                     0.104584
    109 H                     0.107095
    110 H                     0.106507
  ----------------------------------------
  Sum of atomic charges =     0.000000

                    Cartesian Multipole Moments
 -----------------------------------------------------------------
    Charge (ESU x 10^10)
                 0.0000
    Dipole Moment (Debye)
         X      -2.0806      Y      -2.6837      Z       3.3440
       Tot       4.7658
    Quadrupole Moments (Debye-Ang)
        XX    -387.1941     XY      -3.4962     YY    -420.4185
        XZ       1.3703     YZ      -3.4120     ZZ    -447.9198

 Total job time:  114.29s(wall), 1229.10s(cpu)
        *  Thank you very much for using Q-Chem.  Have a nice day.  *
