 Q-Chem 4.4, Q-Chem, Inc., Pleasanton, CA (2016)
 Q-Chem 4.4.2 for Intel X86 Linux

User input:
--------------------------------------------------------------
$comment
SP
$end

$rem
MEM_STATIC 5000
MEM_TOTAL 20000
JOBTYPE SP
EXCHANGE B3LYP
BASIS 6-31g(d,p)
$end

$molecule
0 1
C          -9.056000    -14.605000     -5.948000
C          -8.477000    -13.823000     -4.944000
N         -10.335000    -14.866000     -5.999000
C          -9.178000    -13.535000     -3.737000
C         -11.004000    -14.704000     -4.826000
C         -10.498000    -14.000000     -3.671000
C         -11.219000    -13.931000     -2.410000
C         -10.531000    -13.887000     -1.140000
C         -12.569000    -13.637000     -2.360000
N         -11.110000    -13.906000      0.062000
N         -13.347000    -13.442000     -3.444000
C         -13.220000    -13.577000     -1.138000
C         -12.469000    -13.771000      0.072000
S         -14.814000    -13.069000     -2.789000
N         -14.529000    -13.214000     -1.183000
C         -13.083000    -13.708000      1.399000
S         -14.672000    -14.354000      1.851000
C         -12.506000    -12.997000      2.490000
C         -14.375000    -13.807000      3.512000
S         -10.909000    -12.255000      2.649000
C         -13.268000    -13.036000      3.625000
C         -15.340000    -14.099000      4.543000
C         -11.331000    -12.018000      4.357000
C         -12.637000    -12.393000      4.737000
N         -15.038000    -13.933000      5.775000
S         -16.977000    -14.788000      4.319000
C         -15.825000    -14.613000      6.593000
C         -16.840000    -15.260000      6.004000
C          -8.250000    -14.972000     -7.144000
H          -7.444000    -13.504000     -5.053000
H          -8.685000    -12.980000     -2.944000
H         -11.962000    -15.220000     -4.794000
H          -9.447000    -13.985000     -1.090000
H         -10.565000    -11.567000      4.974000
H         -13.015000    -12.322000      5.751000
H         -15.751000    -14.475000      7.664000
H         -17.713000    -15.833000      6.287000
H          -7.229000    -15.086000     -6.761000
C          -8.274000    -14.038000     -8.341000
H          -8.398000    -16.023000     -7.423000
H          -9.306000    -13.981000     -8.709000
H          -7.690000    -14.575000     -9.098000
C          -7.763000    -12.580000     -8.190000
H          -6.907000    -12.596000     -7.505000
C          -8.792000    -11.625000     -7.514000
H          -7.526000    -12.207000     -9.194000
H          -8.908000    -11.855000     -6.448000
H          -9.774000    -11.903000     -7.916000
C          -8.604000    -10.026000     -7.706000
H          -8.703000     -9.885000     -8.790000
C          -7.187000     -9.708000     -7.175000
H          -9.473000     -9.526000     -7.261000
H          -7.103000     -8.635000     -7.388000
H          -6.338000    -10.152000     -7.711000
H          -7.171000     -9.849000     -6.087000
C         -14.246000    -15.730000    -14.705000
C         -13.470000    -16.295000    -13.688000
N         -15.309000    -14.868000    -14.454000
C         -13.717000    -15.960000    -12.375000
C         -15.469000    -14.501000    -13.185000
C         -14.784000    -15.094000    -12.094000
C         -15.166000    -14.817000    -10.645000
C         -15.167000    -15.868000     -9.707000
C         -15.484000    -13.534000    -10.146000
N         -15.493000    -15.605000     -8.420000
N         -15.377000    -12.396000    -10.870000
C         -15.730000    -13.301000     -8.767000
C         -15.801000    -14.452000     -7.922000
S         -15.743000    -11.182000     -9.837000
N         -15.912000    -11.977000     -8.471000
C         -16.246000    -14.556000     -6.467000
S         -15.993000    -15.967000     -5.426000
C         -17.335000    -13.860000     -6.021000
C         -17.014000    -15.231000     -4.137000
S         -18.158000    -12.438000     -6.586000
C         -17.642000    -14.191000     -4.693000
C         -17.004000    -15.614000     -2.749000
C         -18.986000    -12.314000     -4.972000
C         -18.471000    -13.247000     -4.100000
N         -15.798000    -16.163000     -2.360000
S         -17.953000    -14.953000     -1.456000
C         -15.651000    -16.133000     -0.981000
C         -16.747000    -15.558000     -0.375000
C         -14.044000    -16.283000    -16.131000
H         -12.648000    -16.987000    -13.843000
H         -13.106000    -16.322000    -11.554000
H         -16.249000    -13.754000    -13.046000
H         -14.881000    -16.901000     -9.897000
H         -19.674000    -11.485000     -4.866000
H         -18.780000    -13.251000     -3.061000
H         -14.803000    -16.543000     -0.448000
H         -16.839000    -15.727000      0.690000
H         -13.767000    -17.342000    -16.062000
C         -13.109000    -15.470000    -17.057000
H         -15.059000    -16.374000    -16.539000
H         -13.451000    -14.430000    -16.987000
H         -13.210000    -15.761000    -18.110000
C         -11.603000    -15.685000    -16.700000
H         -11.412000    -15.335000    -15.678000
C         -10.575000    -15.037000    -17.647000
H         -11.426000    -16.763000    -16.606000
H         -10.827000    -13.982000    -17.812000
H         -10.566000    -15.572000    -18.604000
C          -9.176000    -15.130000    -17.071000
H          -8.504000    -14.541000    -17.706000
C          -8.581000    -16.537000    -17.121000
H          -9.148000    -14.558000    -16.135000
H          -7.523000    -16.443000    -16.846000
H          -8.655000    -16.936000    -18.140000
H          -9.164000    -17.164000    -16.436000
$end

--------------------------------------------------------------

             Standard Nuclear Orientation (Angstroms)
    I     Atom           X                Y                Z
 ----------------------------------------------------------------
    1      C       1.4933444919    -4.3384383442    -1.2389527325
    2      C       0.5289115185    -5.1459843453    -0.6286089803
    3      N       1.4022368653    -3.0363329906    -1.2917168148
    4      C      -0.7669096218    -4.6405042392    -0.3179138971
    5      C       0.1502968166    -2.5377659219    -1.1078391582
    6      C      -0.9687661966    -3.2777770117    -0.5732752618
    7      C      -2.3095876857    -2.7227844375    -0.4789143740
    8      C      -3.4876307469    -3.5457311954    -0.6310760625
    9      C      -2.5371764500    -1.4533645134     0.0192948296
   10      N      -4.7483800499    -3.1089183976    -0.6416484177
   11      N      -1.5663751818    -0.6021117689     0.4082404076
   12      C      -3.8304152750    -0.9611648717     0.0964819667
   13      C      -4.9294485666    -1.8001444698    -0.2959158646
   14      S      -2.4118631801     0.7016765673     0.9609872025
   15      N      -3.9623130501     0.2673270691     0.6627729945
   16      C      -6.3224579151    -1.3563917929    -0.2288150684
   17      S      -6.9304808626     0.2567135113    -0.6468346526
   18      C      -7.3698327454    -2.1600171950     0.3059027804
   19      C      -8.5686197465    -0.3090243809    -0.2689714045
   20      S      -7.3713861615    -3.8647297612     0.7751645980
   21      C      -8.5852961913    -1.5330968300     0.3089797490
   22      C      -9.6928804769     0.5699429524    -0.4761047840
   23      C      -9.1275936815    -3.6801217177     0.9572964643
   24      C      -9.6435564152    -2.3808348837     0.7667782752
   25      N     -10.8860484465     0.1095555180    -0.4448380829
   26      S      -9.6343763772     2.3124046636    -0.8823934194
   27      C     -11.7582011224     0.9014084059    -1.0475085683
   28      C     -11.2646937849     2.0679587389    -1.4849623698
   29      C       2.7949140141    -4.9351014883    -1.6447246778
   30      H       0.7459818636    -6.1986728808    -0.4690523684
   31      H      -1.5212073631    -5.3030341349     0.0968294630
   32      H       0.0284907963    -1.5177044766    -1.4679529475
   33      H      -3.4011641449    -4.5977109452    -0.9013021398
   34      H      -9.6691783069    -4.5735822149     1.2388287601
   35      H     -10.6981098138    -2.1348660275     0.8262547525
   36      H     -12.8179357342     0.6870122739    -0.9969333670
   37      H     -11.6222060663     2.9861136330    -1.9318667881
   38      H       2.5444252023    -5.9597785082    -1.9437537065
   39      C       3.9319913539    -4.9315183081    -0.6383533328
   40      H       3.1061804246    -4.5865910401    -2.6376998483
   41      H       4.1691296958    -3.8883801803    -0.3947855739
   42      H       4.7799860732    -5.3315751441    -1.2069775357
   43      C       3.7711783311    -5.6883324498     0.7074020412
   44      H       3.1964258303    -6.6009784477     0.5100347560
   45      C       2.9287453149    -4.9116508573     1.7632970726
   46      H       4.7765516716    -5.8700387816     1.1068031618
   47      H       1.8693903026    -4.8789006537     1.4815056921
   48      H       3.2223964765    -3.8587878286     1.6713164333
   49      C       3.0618536834    -5.3368175860     3.3223109965
   50      H       4.1174964772    -5.1422326603     3.5514245027
   51      C       2.6909348948    -6.8369697959     3.3765013959
   52      H       2.4905476728    -4.6166142822     3.9207277773
   53      H       2.8585920183    -7.0715867150     4.4350853511
   54      H       3.3472372458    -7.5366246544     2.8426631218
   55      H       1.6212857913    -6.9506471835     3.1601469485
   56      C       9.6034131390     1.9079669940    -0.9291449045
   57      C       8.7173008465     1.1268217257    -1.6776815268
   58      N       9.1828617090     2.7805412675     0.0697367861
   59      C       7.3689624982     1.1678020388    -1.3992801754
   60      C       7.8870687059     2.7358977190     0.3690317018
   61      C       6.9179852536     2.0403010769    -0.3978956573
   62      C       5.4213870784     2.2079753224    -0.1648007207
   63      C       4.5439090309     2.2769199472    -1.2646756748
   64      C       4.8240358742     2.2536721195     1.1147684809
   65      N       3.2153915605     2.4100365703    -1.0430108476
   66      N       5.4978267854     2.0427374827     2.2689701041
   67      C       3.4154885032     2.3030551025     1.2879782513
   68      C       2.6267441027     2.4673660835     0.1069824121
   69      S       4.3687154781     2.0873514696     3.4513229481
   70      N       3.0337918917     2.2313250024     2.6005629112
   71      C       1.1356339747     2.7586147318    -0.0257986525
   72      S       0.2047765901     2.6261816766    -1.5273235492
   73      C       0.5269186268     3.6621923143     0.8001954017
   74      C      -1.2334592185     3.3627004744    -0.7306581117
   75      S       0.9163674619     4.2985183800     2.3692896445
   76      C      -0.8102355544     3.8695510773     0.4308513357
   77      C      -2.5891477034     3.2611998461    -1.2051466306
   78      C      -0.7901115671     4.9100683770     2.5103283791
   79      C      -1.5456380506     4.4612459920     1.4502169701
   80      N      -2.8014461582     2.1258760844    -1.9621983610
   81      S      -4.0188875452     3.9390038986    -0.4939528098
   82      C      -4.1522971754     1.8233548589    -2.0506994210
   83      C      -4.9144300523     2.7358281853    -1.3538329298
   84      C      11.0692397290     1.9594303454    -1.4074679455
   85      H       9.0050205349     0.4518936485    -2.4778455547
   86      H       6.6470489935     0.5369054980    -1.9084132097
   87      H       7.6175410749     3.3624192634     1.2178871728
   88      H       4.8185430769     2.1871828844    -2.3142033782
   89      H      -1.0198953417     5.4366395764     3.4277940127
   90      H      -2.6128776906     4.6491027325     1.4232466934
   91      H      -4.5576174961     1.0000964717    -2.6245060657
   92      H      -5.9729415578     2.7351606232    -1.5792280210
   93      H      11.0873142999     1.8539459687    -2.4990344145
   94      C      12.0597143082     1.0127227064    -0.6895718846
   95      H      11.3554933855     3.0146342061    -1.3096228821
   96      H      11.8969230247     1.1695593291     0.3839108920
   97      H      13.1059906418     1.2766746144    -0.8878802908
   98      C      11.8987255394    -0.4678685972    -1.1624799179
   99      H      10.8911187916    -0.8262606719    -0.9180443177
  100      C      12.9295231978    -1.4763290597    -0.6202985065
  101      H      11.8808683587    -0.4750042114    -2.2587824328
  102      H      13.0098469223    -1.3840052160     0.4700126450
  103      H      13.9061375526    -1.2908598986    -1.0828788696
  104      C      12.5323724357    -2.8964348431    -0.9712925752
  105      H      13.2137398498    -3.5810164433    -0.4528174267
  106      C      12.7242993170    -3.2432808199    -2.4474483734
  107      H      11.5792026124    -3.1219007295    -0.4766245835
  108      H      12.5749529291    -4.3263171144    -2.5399310267
  109      H      13.7455366709    -2.9918637138    -2.7587387615
  110      H      12.0060294982    -2.6452664019    -3.0207809324
 ----------------------------------------------------------------

   10   -5663.4621630005      4.08E-06 Convergence criterion met
 Total energy in the final basis set = -5663.4621630005

                    Orbital Energies (a.u.)
 --------------------------------------------------------------

 Alpha MOs
 -- Occupied --
-88.990 -88.981 -88.939 -88.927 -88.917 -88.916 -88.912 -88.907
-14.386 -14.384 -14.380 -14.375 -14.349 -14.346 -14.339 -14.334
-14.333 -14.325 -10.273 -10.266 -10.262 -10.260 -10.258 -10.257
-10.248 -10.244 -10.243 -10.240 -10.236 -10.236 -10.236 -10.236
-10.234 -10.233 -10.231 -10.231 -10.230 -10.228 -10.227 -10.226
-10.225 -10.225 -10.224 -10.223 -10.219 -10.217 -10.215 -10.212
-10.211 -10.208 -10.206 -10.203 -10.202 -10.201 -10.196 -10.195
-10.186 -10.184 -10.182 -10.180 -10.179 -10.178 -10.177 -10.175
-10.174 -10.174 -10.173 -10.168  -8.046  -8.035  -8.000  -7.986
 -7.978  -7.975  -7.972  -7.967  -6.011  -6.005  -6.004  -6.000
 -5.995  -5.993  -5.964  -5.961  -5.957  -5.951  -5.947  -5.943
 -5.942  -5.939  -5.939  -5.936  -5.935  -5.935  -5.933  -5.932
 -5.931  -5.928  -5.928  -5.923  -1.041  -1.030  -0.989  -0.964
 -0.958  -0.954  -0.944  -0.934  -0.917  -0.914  -0.904  -0.901
 -0.843  -0.841  -0.834  -0.828  -0.811  -0.807  -0.806  -0.806
 -0.802  -0.802  -0.800  -0.793  -0.787  -0.773  -0.771  -0.761
 -0.750  -0.749  -0.742  -0.738  -0.725  -0.720  -0.708  -0.708
 -0.694  -0.690  -0.674  -0.670  -0.655  -0.653  -0.646  -0.643
 -0.635  -0.634  -0.625  -0.622  -0.615  -0.612  -0.599  -0.595
 -0.595  -0.591  -0.584  -0.583  -0.579  -0.577  -0.563  -0.555
 -0.554  -0.546  -0.542  -0.534  -0.525  -0.524  -0.518  -0.515
 -0.505  -0.505  -0.501  -0.497  -0.484  -0.482  -0.476  -0.476
 -0.472  -0.470  -0.469  -0.466  -0.459  -0.458  -0.453  -0.448
 -0.447  -0.445  -0.441  -0.440  -0.439  -0.435  -0.434  -0.431
 -0.431  -0.426  -0.421  -0.420  -0.418  -0.414  -0.412  -0.411
 -0.408  -0.406  -0.405  -0.402  -0.402  -0.400  -0.396  -0.395
 -0.395  -0.394  -0.391  -0.389  -0.388  -0.384  -0.381  -0.380
 -0.378  -0.376  -0.375  -0.372  -0.367  -0.362  -0.361  -0.359
 -0.356  -0.356  -0.352  -0.348  -0.347  -0.344  -0.340  -0.339
 -0.338  -0.336  -0.334  -0.331  -0.326  -0.322  -0.319  -0.316
 -0.313  -0.309  -0.309  -0.307  -0.305  -0.301  -0.301  -0.296
 -0.294  -0.293  -0.289  -0.288  -0.287  -0.284  -0.281  -0.280
 -0.277  -0.272  -0.265  -0.257  -0.254  -0.251  -0.251  -0.248
 -0.243  -0.239  -0.234  -0.225  -0.194  -0.191

          Ground-State Mulliken Net Atomic Charges

     Atom                 Charge (a.u.)
  ----------------------------------------
      1 C                     0.284742
      2 C                    -0.125499
      3 N                    -0.459815
      4 C                    -0.085084
      5 C                     0.069533
      6 C                     0.036709
      7 C                     0.019890
      8 C                     0.052511
      9 C                     0.243127
     10 N                    -0.488450
     11 N                    -0.547111
     12 C                     0.205193
     13 C                     0.226255
     14 S                     0.634183
     15 N                    -0.547967
     16 C                    -0.213200
     17 S                     0.319299
     18 C                    -0.113918
     19 C                    -0.232632
     20 S                     0.280982
     21 C                     0.176842
     22 C                     0.056434
     23 C                    -0.306098
     24 C                    -0.052544
     25 N                    -0.423355
     26 S                     0.209311
     27 C                     0.135199
     28 C                    -0.312999
     29 C                    -0.229788
     30 H                     0.089178
     31 H                     0.104497
     32 H                     0.128363
     33 H                     0.103677
     34 H                     0.128273
     35 H                     0.130259
     36 H                     0.110655
     37 H                     0.136560
     38 H                     0.086530
     39 C                    -0.172913
     40 H                     0.109806
     41 H                     0.108975
     42 H                     0.089905
     43 C                    -0.174242
     44 H                     0.089244
     45 C                    -0.191059
     46 H                     0.093198
     47 H                     0.099026
     48 H                     0.082966
     49 C                    -0.187990
     50 H                     0.092989
     51 C                    -0.312172
     52 H                     0.100030
     53 H                     0.096176
     54 H                     0.113347
     55 H                     0.105348
     56 C                     0.247935
     57 C                    -0.105007
     58 N                    -0.470087
     59 C                    -0.074716
     60 C                     0.095689
     61 C                     0.036435
     62 C                     0.008204
     63 C                     0.060848
     64 C                     0.228758
     65 N                    -0.502623
     66 N                    -0.545883
     67 C                     0.172760
     68 C                     0.309065
     69 S                     0.616880
     70 N                    -0.534025
     71 C                    -0.201428
     72 S                     0.330770
     73 C                    -0.135726
     74 C                    -0.208695
     75 S                     0.258246
     76 C                     0.166647
     77 C                    -0.003140
     78 C                    -0.311455
     79 C                    -0.074205
     80 N                    -0.421964
     81 S                     0.288950
     82 C                     0.116134
     83 C                    -0.287462
     84 C                    -0.238994
     85 H                     0.094901
     86 H                     0.105950
     87 H                     0.111318
     88 H                     0.123350
     89 H                     0.137675
     90 H                     0.108101
     91 H                     0.131237
     92 H                     0.142126
     93 H                     0.098135
     94 C                    -0.176762
     95 H                     0.114287
     96 H                     0.110434
     97 H                     0.094846
     98 C                    -0.173909
     99 H                     0.091417
    100 C                    -0.170176
    101 H                     0.087621
    102 H                     0.091293
    103 H                     0.086937
    104 C                    -0.181755
    105 H                     0.085248
    106 C                    -0.311256
    107 H                     0.092219
    108 H                     0.103164
    109 H                     0.105228
    110 H                     0.104080
  ----------------------------------------
  Sum of atomic charges =     0.000000

                    Cartesian Multipole Moments
 -----------------------------------------------------------------
    Charge (ESU x 10^10)
                 0.0000
    Dipole Moment (Debye)
         X      -1.9966      Y      -0.6353      Z       0.7819
       Tot       2.2363
    Quadrupole Moments (Debye-Ang)
        XX    -411.5028     XY     -28.6911     YY    -424.4581
        XZ      -8.7898     YZ       3.9513     ZZ    -440.3549

 Total job time:  100.59s(wall), 1099.42s(cpu)
        *  Thank you very much for using Q-Chem.  Have a nice day.  *
