 Q-Chem 4.4, Q-Chem, Inc., Pleasanton, CA (2016)
 Q-Chem 4.4.2 for Intel X86 Linux

User input:
--------------------------------------------------------------
$comment
SP
$end

$rem
MEM_STATIC 5000
MEM_TOTAL 20000
JOBTYPE SP
EXCHANGE B3LYP
BASIS 6-31g(d,p)
$end

$molecule
0 1
C         -16.172000    -19.912000    -13.374000
C         -16.399000    -18.593000    -12.991000
N         -16.728000    -21.010000    -12.763000
C         -17.205000    -18.319000    -11.912000
C         -17.440000    -20.737000    -11.664000
C         -17.773000    -19.419000    -11.201000
C         -18.794000    -19.225000    -10.146000
C         -18.491000    -18.382000     -9.093000
C         -20.030000    -19.851000    -10.171000
N         -19.376000    -18.197000     -8.091000
N         -20.422000    -20.730000    -11.063000
C         -20.929000    -19.669000     -9.112000
C         -20.566000    -18.851000     -8.043000
S         -21.918000    -21.210000    -10.615000
N         -22.004000    -20.500000     -9.127000
C         -21.431000    -18.654000     -6.852000
S         -22.967000    -19.504000     -6.562000
C         -21.390000    -17.611000     -5.980000
C         -23.423000    -18.479000     -5.200000
S         -20.168000    -16.413000     -5.766000
C         -22.451000    -17.510000     -5.100000
C         -24.620000    -18.690000     -4.470000
C         -21.182000    -15.690000     -4.564000
C         -22.330000    -16.363000     -4.313000
N         -24.766000    -17.916000     -3.411000
S         -25.782000    -20.063000     -4.614000
C         -25.791000    -18.380000     -2.622000
C         -26.466000    -19.475000     -3.082000
C         -15.410000    -20.308000    -14.687000
H         -16.013000    -17.784000    -13.605000
H         -17.519000    -17.306000    -11.678000
H         -17.911000    -21.606000    -11.205000
H         -17.658000    -17.680000     -9.085000
H         -20.886000    -14.747000     -4.124000
H         -23.056000    -16.081000     -3.560000
H         -26.058000    -17.916000     -1.681000
H         -27.313000    -19.885000     -2.549000
H         -14.795000    -19.421000    -14.884000
C         -16.420000    -20.295000    -15.897000
H         -14.855000    -21.248000    -14.585000
H         -16.639000    -19.266000    -16.208000
H         -17.374000    -20.780000    -15.654000
C         -15.750000    -20.989000    -17.082000
H         -14.731000    -20.592000    -17.171000
C         -16.614000    -20.960000    -18.339000
H         -15.617000    -22.039000    -16.791000
H         -16.596000    -19.897000    -18.613000
H         -17.618000    -21.391000    -18.248000
C         -15.880000    -21.743000    -19.453000
H         -14.965000    -21.240000    -19.790000
C         -16.784000    -21.855000    -20.657000
H         -15.792000    -22.796000    -19.160000
H         -17.013000    -20.893000    -21.134000
H         -17.703000    -22.404000    -20.416000
H         -16.363000    -22.475000    -21.458000
C         -14.246000    -15.730000    -14.705000
C         -13.470000    -16.295000    -13.688000
N         -15.309000    -14.868000    -14.454000
C         -13.717000    -15.960000    -12.375000
C         -15.469000    -14.501000    -13.185000
C         -14.784000    -15.094000    -12.094000
C         -15.166000    -14.817000    -10.645000
C         -15.167000    -15.868000     -9.707000
C         -15.484000    -13.534000    -10.146000
N         -15.493000    -15.605000     -8.420000
N         -15.377000    -12.396000    -10.870000
C         -15.730000    -13.301000     -8.767000
C         -15.801000    -14.452000     -7.922000
S         -15.743000    -11.182000     -9.837000
N         -15.912000    -11.977000     -8.471000
C         -16.246000    -14.556000     -6.467000
S         -15.993000    -15.967000     -5.426000
C         -17.335000    -13.860000     -6.021000
C         -17.014000    -15.231000     -4.137000
S         -18.158000    -12.438000     -6.586000
C         -17.642000    -14.191000     -4.693000
C         -17.004000    -15.614000     -2.749000
C         -18.986000    -12.314000     -4.972000
C         -18.471000    -13.247000     -4.100000
N         -15.798000    -16.163000     -2.360000
S         -17.953000    -14.953000     -1.456000
C         -15.651000    -16.133000     -0.981000
C         -16.747000    -15.558000     -0.375000
C         -14.044000    -16.283000    -16.131000
H         -12.648000    -16.987000    -13.843000
H         -13.106000    -16.322000    -11.554000
H         -16.249000    -13.754000    -13.046000
H         -14.881000    -16.901000     -9.897000
H         -19.674000    -11.485000     -4.866000
H         -18.780000    -13.251000     -3.061000
H         -14.803000    -16.543000     -0.448000
H         -16.839000    -15.727000      0.690000
H         -13.767000    -17.342000    -16.062000
C         -13.109000    -15.470000    -17.057000
H         -15.059000    -16.374000    -16.539000
H         -13.451000    -14.430000    -16.987000
H         -13.210000    -15.761000    -18.110000
C         -11.603000    -15.685000    -16.700000
H         -11.412000    -15.335000    -15.678000
C         -10.575000    -15.037000    -17.647000
H         -11.426000    -16.763000    -16.606000
H         -10.827000    -13.982000    -17.812000
H         -10.566000    -15.572000    -18.604000
C          -9.176000    -15.130000    -17.071000
H          -8.504000    -14.541000    -17.706000
C          -8.581000    -16.537000    -17.121000
H          -9.148000    -14.558000    -16.135000
H          -7.523000    -16.443000    -16.846000
H          -8.655000    -16.936000    -18.140000
H          -9.164000    -17.164000    -16.436000
$end

--------------------------------------------------------------

             Standard Nuclear Orientation (Angstroms)
    I     Atom           X                Y                Z
 ----------------------------------------------------------------
    1      C      -4.4084691204     2.5248148620     1.3746676276
    2      C      -3.9133787712     1.5747935479     0.4856659128
    3      N      -3.6384336010     3.4457245641     2.0432718598
    4      C      -2.5619705355     1.4921389241     0.2494097091
    5      C      -2.3197126147     3.3006536113     1.8723818980
    6      C      -1.7008293755     2.3876615994     0.9527019958
    7      C      -0.2593459419     2.4999932052     0.6323754111
    8      C       0.5063064549     1.3492554371     0.6614614283
    9      C       0.3480018561     3.7028450318     0.3091523681
   10      N       1.8306887683     1.4046367607     0.4076930362
   11      N      -0.2354393945     4.8782219048     0.3165356902
   12      C       1.7280229155     3.7493945670     0.0721270183
   13      C       2.4746260817     2.5753684273     0.1610108495
   14      S       0.9160484005     5.9701520546    -0.0719027296
   15      N       2.2510526587     5.0008959113    -0.0090842686
   16      C       3.9492708554     2.5457555565    -0.0123698571
   17      S       4.9737037290     3.9835217420    -0.2343195884
   18      C       4.7072748493     1.4687095567    -0.3519517464
   19      C       6.4091199618     3.0506395031    -0.6620063511
   20      S       4.2894923552    -0.2045318937    -0.3541508865
   21      C       6.0178426998     1.7319497105    -0.7032899460
   22      C       7.6523068916     3.6725010209    -0.9412992264
   23      C       5.8721802681    -0.5297262266    -0.9746963048
   24      C       6.6654636462     0.5605248477    -1.1007442209
   25      N       8.6574269939     2.8388095876    -1.1325194497
   26      S       8.0911375974     5.4127679418    -0.7541958973
   27      C       9.8502342782     3.5208349522    -1.1102891868
   28      C       9.7744813124     4.8753284266    -0.9494821097
   29      C      -5.9398475206     2.8018649714     1.5735455612
   30      H      -4.6072449399     0.9661950846    -0.0875972469
   31      H      -2.1590488545     0.8666848476    -0.5417807339
   32      H      -1.7147804431     4.0564125058     2.3729501362
   33      H       0.1001595446     0.3386420479     0.6829617742
   34      H       6.1252252935    -1.5401367265    -1.2671066960
   35      H       7.6983451049     0.5350596581    -1.4264993688
   36      H      10.8072830997     3.0244370704    -1.2088421989
   37      H      10.6581792988     5.4986598024    -0.9610521077
   38      H      -6.3978040340     1.8576092249     1.2534519547
   39      C      -6.4328715004     3.8094886911     0.4663008751
   40      H      -6.1821110856     3.1156556301     2.5957357527
   41      H      -6.5419056633     3.3009588510    -0.4996349163
   42      H      -5.7416109480     4.6499719986     0.3243971803
   43      C      -7.8184463003     4.3140484138     0.8667543181
   44      H      -8.4167081751     3.4459709482     1.1707530727
   45      C      -8.4278057433     5.2385722305    -0.1826849520
   46      H      -7.6817867237     4.8961411312     1.7872771199
   47      H      -8.6292520030     4.5507789363    -1.0143872960
   48      H      -7.8370613785     6.1216156161    -0.4534495632
   49      C      -9.7903156648     5.7451049044     0.3463068854
   50      H     -10.5400600883     4.9469383729     0.4142516235
   51      C     -10.3389686115     6.7777339875    -0.6086973664
   52      H      -9.6283199382     6.3556598826     1.2426226798
   53      H     -10.5861262938     6.3802314023    -1.6018331954
   54      H      -9.6703206849     7.6442958804    -0.6863081646
   55      H     -11.2644699595     7.2472351736    -0.2533695022
   56      C      -6.3949639655    -1.2067956097    -0.8834471874
   57      C      -5.9632277457    -1.6085310630     0.3845837515
   58      N      -5.5880110684    -1.2797361986    -2.0146061914
   59      C      -4.7060223799    -2.1500266981     0.5376201700
   60      C      -4.4128419621    -1.8815866526    -1.8490658556
   61      C      -3.8713512258    -2.2336767976    -0.5865385045
   62      C      -2.4297041300    -2.6985169409    -0.4197113708
   63      C      -1.6733856575    -2.2555527009     0.6831082201
   64      C      -1.7895283464    -3.6073879453    -1.2916875536
   65      N      -0.3992856320    -2.6886847263     0.8276065720
   66      N      -2.4169080941    -4.2497386727    -2.3038383305
   67      C      -0.4807411954    -4.0980328656    -1.0411087123
   68      C       0.2298055292    -3.5090114911     0.0506990421
   69      S      -1.3009401853    -5.2615550784    -2.9407717553
   70      N      -0.0830312001    -5.0490418629    -1.9417332992
   71      C       1.6952690389    -3.6620667494     0.4442175164
   72      S       2.3911760141    -3.1455231069     1.9893735433
   73      C       2.6750686597    -3.6654973161    -0.5093200729
   74      C       4.0518721152    -3.5055462862     1.3909340977
   75      S       2.6843347987    -4.0103767006    -2.2121443001
   76      C       3.9512746372    -3.6935595346     0.0719757337
   77      C       5.2096726983    -3.7063283595     2.2231103824
   78      C       4.4955703854    -4.1532070910    -2.1415671871
   79      C       4.9280147285    -4.0825313708    -0.8361573539
   80      N       4.8821971737    -4.1636659012     3.4843637883
   81      S       6.8328968038    -4.0565186537     1.7212326472
   82      C       5.9757947581    -4.7427480844     4.1111477611
   83      C       7.0904312188    -4.7087524542     3.3015139812
   84      C      -7.7326069950    -0.4419180842    -0.9593582970
   85      H      -6.5550302164    -1.5470039116     1.2926350966
   86      H      -4.3457495111    -2.5332732349     1.4872156376
   87      H      -3.8546877070    -2.0026930469    -2.7761726826
   88      H      -2.0249570702    -1.6137983302     1.4890448612
   89      H       4.9802890865    -4.3776375860    -3.0831083354
   90      H       5.9725369995    -4.2479960562    -0.5982231966
   91      H       5.9647736947    -5.1352505951     5.1196681205
   92      H       8.0361764198    -4.8935572856     3.7941225368
   93      H      -7.8606638736     0.1359371021    -0.0359646542
   94      C      -8.9808391449    -1.2762699963    -1.3314381093
   95      H      -7.5464798543     0.3711556445    -1.6729672930
   96      H      -8.7012578868    -1.8487014955    -2.2245341281
   97      H      -9.8320682308    -0.6465685527    -1.6187987455
   98      C      -9.4810861248    -2.1445262372    -0.1324410036
   99      H      -8.7014170332    -2.8603680792     0.1559191267
  100      C     -10.8025193516    -2.9079104641    -0.3435233314
  101      H      -9.5358698822    -1.5014795718     0.7539780429
  102      H     -10.7692651718    -3.4651832407    -1.2880312520
  103      H     -11.6396640622    -2.1999995084    -0.3578694945
  104      C     -11.0558167747    -3.8749618809     0.7958966846
  105      H     -11.9268580173    -4.4884072694     0.5376295574
  106      C     -11.4659721401    -3.1950363123     2.1019012012
  107      H     -10.2546098039    -4.6247114489     0.7985377468
  108      H     -11.7875300930    -3.9907970542     2.7854144232
  109      H     -12.3067237931    -2.5148297629     1.9188883377
  110      H     -10.6009355728    -2.6244091416     2.4601460464
 ----------------------------------------------------------------

   10   -5663.5044671056      4.64E-06 Convergence criterion met
 Total energy in the final basis set = -5663.5044671056

                    Orbital Energies (a.u.)
 --------------------------------------------------------------

 Alpha MOs
 -- Occupied --
-88.994 -88.984 -88.937 -88.926 -88.915 -88.912 -88.907 -88.899
-14.391 -14.385 -14.384 -14.376 -14.344 -14.344 -14.341 -14.341
-14.340 -14.326 -10.270 -10.268 -10.267 -10.264 -10.261 -10.257
-10.247 -10.247 -10.245 -10.240 -10.236 -10.236 -10.234 -10.234
-10.233 -10.233 -10.232 -10.232 -10.230 -10.227 -10.226 -10.226
-10.226 -10.225 -10.222 -10.220 -10.216 -10.214 -10.212 -10.210
-10.208 -10.207 -10.204 -10.203 -10.201 -10.196 -10.193 -10.192
-10.188 -10.186 -10.181 -10.179 -10.177 -10.177 -10.176 -10.176
-10.175 -10.174 -10.171 -10.165  -8.050  -8.039  -7.998  -7.985
 -7.973  -7.971  -7.968  -7.960  -6.015  -6.009  -6.008  -6.004
 -5.999  -5.997  -5.962  -5.958  -5.955  -5.950  -5.946  -5.942
 -5.938  -5.936  -5.934  -5.932  -5.932  -5.930  -5.928  -5.928
 -5.924  -5.924  -5.920  -5.916  -1.045  -1.038  -0.968  -0.965
 -0.956  -0.950  -0.941  -0.930  -0.917  -0.914  -0.908  -0.906
 -0.844  -0.841  -0.833  -0.828  -0.813  -0.810  -0.808  -0.806
 -0.806  -0.803  -0.798  -0.793  -0.791  -0.781  -0.774  -0.767
 -0.750  -0.747  -0.746  -0.738  -0.720  -0.717  -0.711  -0.706
 -0.696  -0.689  -0.678  -0.673  -0.659  -0.651  -0.650  -0.640
 -0.637  -0.632  -0.631  -0.620  -0.618  -0.607  -0.600  -0.594
 -0.588  -0.587  -0.582  -0.581  -0.577  -0.573  -0.569  -0.566
 -0.549  -0.547  -0.545  -0.536  -0.528  -0.520  -0.519  -0.510
 -0.504  -0.503  -0.500  -0.495  -0.489  -0.487  -0.480  -0.478
 -0.476  -0.476  -0.474  -0.468  -0.462  -0.460  -0.457  -0.450
 -0.447  -0.445  -0.443  -0.443  -0.440  -0.433  -0.431  -0.429
 -0.426  -0.425  -0.423  -0.421  -0.419  -0.417  -0.415  -0.410
 -0.408  -0.407  -0.407  -0.405  -0.402  -0.402  -0.400  -0.397
 -0.395  -0.393  -0.392  -0.391  -0.387  -0.386  -0.383  -0.379
 -0.379  -0.377  -0.372  -0.366  -0.365  -0.363  -0.359  -0.358
 -0.351  -0.349  -0.349  -0.347  -0.346  -0.344  -0.343  -0.340
 -0.337  -0.335  -0.333  -0.330  -0.326  -0.325  -0.323  -0.321
 -0.313  -0.312  -0.310  -0.307  -0.306  -0.304  -0.300  -0.298
 -0.296  -0.294  -0.291  -0.290  -0.286  -0.283  -0.281  -0.280
 -0.276  -0.270  -0.266  -0.262  -0.257  -0.254  -0.249  -0.247
 -0.242  -0.238  -0.236  -0.227  -0.195  -0.188

          Ground-State Mulliken Net Atomic Charges

     Atom                 Charge (a.u.)
  ----------------------------------------
      1 C                     0.233382
      2 C                    -0.110871
      3 N                    -0.463797
      4 C                    -0.076782
      5 C                     0.092458
      6 C                     0.012498
      7 C                     0.005505
      8 C                     0.057063
      9 C                     0.278349
     10 N                    -0.527632
     11 N                    -0.551662
     12 C                     0.186739
     13 C                     0.305256
     14 S                     0.593455
     15 N                    -0.553394
     16 C                    -0.226979
     17 S                     0.306708
     18 C                    -0.125687
     19 C                    -0.244689
     20 S                     0.307071
     21 C                     0.181213
     22 C                     0.064130
     23 C                    -0.322514
     24 C                    -0.050847
     25 N                    -0.437628
     26 S                     0.260919
     27 C                     0.130594
     28 C                    -0.303893
     29 C                    -0.224621
     30 H                     0.100535
     31 H                     0.104973
     32 H                     0.104577
     33 H                     0.129352
     34 H                     0.115957
     35 H                     0.119055
     36 H                     0.111830
     37 H                     0.129809
     38 H                     0.092774
     39 C                    -0.173001
     40 H                     0.117435
     41 H                     0.089863
     42 H                     0.110951
     43 C                    -0.176845
     44 H                     0.087891
     45 C                    -0.163300
     46 H                     0.093250
     47 H                     0.090985
     48 H                     0.096950
     49 C                    -0.169925
     50 H                     0.094579
     51 C                    -0.321646
     52 H                     0.097039
     53 H                     0.097438
     54 H                     0.096477
     55 H                     0.090891
     56 C                     0.242871
     57 C                    -0.107543
     58 N                    -0.467581
     59 C                    -0.070982
     60 C                     0.089260
     61 C                     0.037472
     62 C                     0.004861
     63 C                     0.050080
     64 C                     0.227151
     65 N                    -0.505453
     66 N                    -0.546186
     67 C                     0.171512
     68 C                     0.306161
     69 S                     0.619931
     70 N                    -0.532453
     71 C                    -0.204933
     72 S                     0.341124
     73 C                    -0.126507
     74 C                    -0.184454
     75 S                     0.259114
     76 C                     0.155230
     77 C                     0.007283
     78 C                    -0.311767
     79 C                    -0.080099
     80 N                    -0.417042
     81 S                     0.298139
     82 C                     0.123201
     83 C                    -0.307307
     84 C                    -0.244265
     85 H                     0.099713
     86 H                     0.106606
     87 H                     0.114026
     88 H                     0.130391
     89 H                     0.137879
     90 H                     0.107052
     91 H                     0.125780
     92 H                     0.128846
     93 H                     0.102240
     94 C                    -0.177795
     95 H                     0.115083
     96 H                     0.111522
     97 H                     0.096412
     98 C                    -0.174386
     99 H                     0.091033
    100 C                    -0.170065
    101 H                     0.088477
    102 H                     0.091749
    103 H                     0.087721
    104 C                    -0.182610
    105 H                     0.086328
    106 C                    -0.311143
    107 H                     0.092414
    108 H                     0.104193
    109 H                     0.105641
    110 H                     0.103833
  ----------------------------------------
  Sum of atomic charges =     0.000000

                    Cartesian Multipole Moments
 -----------------------------------------------------------------
    Charge (ESU x 10^10)
                 0.0000
    Dipole Moment (Debye)
         X       1.8443      Y      -2.3813      Z      -1.0738
       Tot       3.1977
    Quadrupole Moments (Debye-Ang)
        XX    -378.8609     XY       1.1066     YY    -429.5988
        XZ      -5.4231     YZ      -2.5455     ZZ    -445.8879

 Total job time:  99.85s(wall), 1112.51s(cpu)
        *  Thank you very much for using Q-Chem.  Have a nice day.  *
