 Q-Chem 4.4, Q-Chem, Inc., Pleasanton, CA (2016)
 Q-Chem 4.4.2 for Intel X86 Linux

User input:
--------------------------------------------------------------
$comment
SP
$end

$rem
MEM_STATIC 5000
MEM_TOTAL 20000
JOBTYPE SP
EXCHANGE B3LYP
BASIS 6-31g(d,p)
$end

$molecule
0 1
C         -16.172000    -19.912000    -13.374000
C         -16.399000    -18.593000    -12.991000
N         -16.728000    -21.010000    -12.763000
C         -17.205000    -18.319000    -11.912000
C         -17.440000    -20.737000    -11.664000
C         -17.773000    -19.419000    -11.201000
C         -18.794000    -19.225000    -10.146000
C         -18.491000    -18.382000     -9.093000
C         -20.030000    -19.851000    -10.171000
N         -19.376000    -18.197000     -8.091000
N         -20.422000    -20.730000    -11.063000
C         -20.929000    -19.669000     -9.112000
C         -20.566000    -18.851000     -8.043000
S         -21.918000    -21.210000    -10.615000
N         -22.004000    -20.500000     -9.127000
C         -21.431000    -18.654000     -6.852000
S         -22.967000    -19.504000     -6.562000
C         -21.390000    -17.611000     -5.980000
C         -23.423000    -18.479000     -5.200000
S         -20.168000    -16.413000     -5.766000
C         -22.451000    -17.510000     -5.100000
C         -24.620000    -18.690000     -4.470000
C         -21.182000    -15.690000     -4.564000
C         -22.330000    -16.363000     -4.313000
N         -24.766000    -17.916000     -3.411000
S         -25.782000    -20.063000     -4.614000
C         -25.791000    -18.380000     -2.622000
C         -26.466000    -19.475000     -3.082000
C         -15.410000    -20.308000    -14.687000
H         -16.013000    -17.784000    -13.605000
H         -17.519000    -17.306000    -11.678000
H         -17.911000    -21.606000    -11.205000
H         -17.658000    -17.680000     -9.085000
H         -20.886000    -14.747000     -4.124000
H         -23.056000    -16.081000     -3.560000
H         -26.058000    -17.916000     -1.681000
H         -27.313000    -19.885000     -2.549000
H         -14.795000    -19.421000    -14.884000
C         -16.420000    -20.295000    -15.897000
H         -14.855000    -21.248000    -14.585000
H         -16.639000    -19.266000    -16.208000
H         -17.374000    -20.780000    -15.654000
C         -15.750000    -20.989000    -17.082000
H         -14.731000    -20.592000    -17.171000
C         -16.614000    -20.960000    -18.339000
H         -15.617000    -22.039000    -16.791000
H         -16.596000    -19.897000    -18.613000
H         -17.618000    -21.391000    -18.248000
C         -15.880000    -21.743000    -19.453000
H         -14.965000    -21.240000    -19.790000
C         -16.784000    -21.855000    -20.657000
H         -15.792000    -22.796000    -19.160000
H         -17.013000    -20.893000    -21.134000
H         -17.703000    -22.404000    -20.416000
H         -16.363000    -22.475000    -21.458000
C         -18.319000     -8.696000    -10.618000
C         -18.529000     -9.579000     -9.561000
N         -18.438000     -9.083000    -11.847000
C         -18.968000    -10.880000     -9.780000
C         -18.762000    -10.405000    -12.115000
C         -19.026000    -11.304000    -11.107000
C         -19.274000    -12.741000    -11.469000
C         -18.790000    -13.169000    -12.762000
C         -19.945000    -13.728000    -10.706000
N         -18.991000    -14.459000    -13.283000
N         -20.389000    -13.635000     -9.453000
C         -20.093000    -15.040000    -11.275000
C         -19.636000    -15.381000    -12.573000
S         -21.062000    -15.027000     -9.050000
N         -20.765000    -15.858000    -10.454000
C         -20.041000    -16.665000    -13.221000
S         -21.155000    -17.891000    -12.697000
C         -19.653000    -17.011000    -14.542000
C         -21.125000    -18.796000    -14.219000
S         -18.524000    -16.094000    -15.526000
C         -20.139000    -18.222000    -14.950000
C         -21.960000    -19.851000    -14.700000
C         -18.785000    -17.491000    -16.744000
C         -19.712000    -18.472000    -16.284000
N         -22.675000    -20.409000    -13.764000
S         -22.616000    -20.063000    -16.348000
C         -23.722000    -21.183000    -14.274000
C         -23.878000    -21.043000    -15.622000
C         -18.020000     -7.212000    -10.448000
H         -18.443000     -9.166000     -8.560000
H         -19.135000    -11.553000     -8.944000
H         -18.759000    -10.636000    -13.179000
H         -18.101000    -12.582000    -13.367000
H         -18.247000    -17.408000    -17.679000
H         -20.100000    -19.281000    -16.892000
H         -24.363000    -21.771000    -13.632000
H         -24.686000    -21.422000    -16.234000
H         -17.118000     -7.009000     -9.858000
C         -19.179000     -6.460000     -9.824000
H         -17.916000     -6.926000    -11.502000
H         -18.912000     -5.397000     -9.797000
H         -19.252000     -6.811000     -8.787000
C         -20.586000     -6.745000    -10.431000
H         -20.603000     -6.640000    -11.522000
C         -21.728000     -5.908000     -9.852000
H         -20.773000     -7.808000    -10.236000
H         -22.514000     -5.690000    -10.586000
H         -21.386000     -4.868000     -9.781000
C         -22.168000     -6.433000     -8.497000
H         -22.595000     -7.439000     -8.600000
C         -23.217000     -5.374000     -7.834000
H         -21.403000     -6.628000     -7.735000
H         -23.727000     -5.690000     -6.915000
H         -23.955000     -5.126000     -8.606000
H         -22.700000     -4.436000     -7.599000
$end

--------------------------------------------------------------

             Standard Nuclear Orientation (Angstroms)
    I     Atom           X                Y                Z
 ----------------------------------------------------------------
    1      C       4.9374189628     0.8239146658     2.9943470377
    2      C       3.7082978480     1.4472144420     2.7975281514
    3      N       5.1452483284    -0.5327351014     2.9282458720
    4      C       2.5870211450     0.6931635567     2.5463333712
    5      C       4.0345551321    -1.2609378859     2.7690123067
    6      C       2.7255287337    -0.7274071286     2.5156808652
    7      C       1.6222905577    -1.6115076042     2.0748477038
    8      C       0.4011574240    -1.4974496750     2.7128850527
    9      C       1.7644832992    -2.5421266189     1.0580259527
   10      N      -0.6260562004    -2.3022853539     2.3686094366
   11      N       2.8793317415    -2.8105916727     0.4200538016
   12      C       0.6972590105    -3.3876181698     0.7279011959
   13      C      -0.5024423009    -3.2762138981     1.4292996929
   14      S       2.5353353560    -4.0155800641    -0.6281777870
   15      N       1.0147449742    -4.4042481667    -0.1159454207
   16      C      -1.6609589400    -4.1733692698     1.1875013555
   17      S      -1.6517760239    -5.5660653665     0.0801580229
   18      C      -2.9633105111    -3.9192067325     1.4861579975
   19      C      -3.3973702095    -5.8084785596     0.1681454249
   20      S      -3.6329868356    -2.6972773859     2.5023795739
   21      C      -3.8936330684    -4.7846422912     0.9422432679
   22      C      -4.0440184946    -6.8639691265    -0.5232413400
   23      C      -5.2002629145    -3.2878654712     2.0658244159
   24      C      -5.1904853131    -4.3752688287     1.2587975659
   25      N      -5.3333792412    -6.9842555108    -0.2683824555
   26      S      -3.2856269731    -8.2261254743    -1.4318014008
   27      C      -5.8019404784    -8.1836069799    -0.7484328909
   28      C      -4.9006287709    -8.9690224010    -1.4095000752
   29      C       6.2906433924     1.6084372336     3.1157430170
   30      H       3.6602021829     2.5316253226     2.7504872224
   31      H       1.6489588501     1.1499430183     2.2448161174
   32      H       4.2079581076    -2.3330257264     2.6782264580
   33      H       0.1173915137    -0.6663805032     3.3575228888
   34      H      -6.0772820872    -2.7523475923     2.4042368449
   35      H      -6.0766063103    -4.9033240172     0.9278046714
   36      H      -6.8269408695    -8.5048962404    -0.6134758257
   37      H      -5.1888504946    -9.9103755186    -1.8571389320
   38      H       5.9632647204     2.6006270625     3.4506841291
   39      C       6.8492002854     1.9058835803     1.6721679867
   40      H       7.0107249421     1.1074385411     3.7733993649
   41      H       6.2927900582     2.7266442123     1.2028252079
   42      H       6.7826012609     1.0351085132     1.0075588140
   43      C       8.2991282905     2.3678755019     1.8101290118
   44      H       8.3385758957     3.1137719418     2.6138537081
   45      C       8.9148316071     2.7629212620     0.4713854690
   46      H       8.8621806502     1.5088957366     2.1974219282
   47      H       8.3689116568     3.6825079645     0.2229892038
   48      H       8.9013083914     1.9978213285    -0.3137878969
   49      C      10.3942545418     3.1467606136     0.7097468174
   50      H      10.5023209138     4.0686891654     1.2947018622
   51      C      11.0617154413     3.3949896326    -0.6215136011
   52      H      10.9468111183     2.2662665925     1.0587647376
   53      H      10.6616049188     4.2598335982    -1.1668304677
   54      H      11.0495052664     2.4941304009    -1.2478893320
   55      H      12.1383105297     3.5872732477    -0.5365899471
   56      C      -5.2292129825     6.3249422869     0.9010025843
   57      C      -5.3859850046     5.0039829572     1.3151607452
   58      N      -4.1587327767     6.7104825378     0.2847219308
   59      C      -4.4464115745     4.0290869073     0.9988342343
   60      C      -3.1427707255     5.7955213619     0.0498790959
   61      C      -3.2687473756     4.4695719876     0.3962158405
   62      C      -2.0905687510     3.5579746221     0.2002506096
   63      C      -0.7980379934     4.1956240099     0.0904485198
   64      C      -2.0911839279     2.1458899543     0.0880208788
   65      N       0.3977519015     3.4990354584    -0.1561136774
   66      N      -3.1147264681     1.3097693176     0.2584818697
   67      C      -0.8344467953     1.4828298881    -0.1310045266
   68      C       0.3945059739     2.1741615670    -0.2782105067
   69      S      -2.5916734595    -0.1830325603     0.0327384240
   70      N      -0.9915895258     0.1568404406    -0.2396652258
   71      C       1.6212826605     1.4723792192    -0.7630872928
   72      S       1.8375330059    -0.1510427294    -1.3430743313
   73      C       2.8520698295     2.1454632366    -0.9808528777
   74      C       3.5021898728     0.0961511618    -1.8946372885
   75      S       3.1649769928     3.8208221115    -0.5577125374
   76      C       3.8455976049     1.3243319857    -1.4367333756
   77      C       4.3501406187    -0.7136005025    -2.7112723199
   78      C       4.8918606045     3.4257387679    -1.1618947476
   79      C       5.0284467716     2.0888373469    -1.6386848583
   80      N       3.9244003356    -1.9387878866    -2.8391241304
   81      S       5.4493146017    -0.1799355560    -4.0144232245
   82      C       4.5445923846    -2.6183069178    -3.8922151561
   83      C       5.3215716519    -1.8051795555    -4.6643337422
   84      C      -6.2972043146     7.4012249026     1.0478604943
   85      H      -6.3283028118     4.7549414944     1.7947246096
   86      H      -4.5882030654     3.0019604240     1.3222849421
   87      H      -2.2616088450     6.2460924725    -0.4039990976
   88      H      -0.6229931721     5.2400698838     0.3430492461
   89      H       5.6016541415     4.2415500507    -1.1272092222
   90      H       5.9035192110     1.7079721773    -2.1523763498
   91      H       4.3571517733    -3.6653410960    -4.0855398748
   92      H       5.7969453431    -2.0487583812    -5.6054704003
   93      H      -6.6123966441     7.5706711861     2.0846125150
   94      C      -7.5293145701     7.1056245247     0.2155830557
   95      H      -5.7555689060     8.2538445101     0.6198431009
   96      H      -8.2169806391     7.9526025233     0.3238911694
   97      H      -8.0067087712     6.2292363741     0.6715847950
   98      C      -7.2717359270     6.6831762100    -1.2624269795
   99      H      -6.6098996603     7.3796500970    -1.7901502789
  100      C      -8.5279844008     6.4807219992    -2.1114417407
  101      H      -6.7144528541     5.7406516166    -1.1988190597
  102      H      -8.3778345853     6.7400400243    -3.1670388205
  103      H      -9.2108239704     7.3164040569    -1.9140319625
  104      C      -9.1917393971     5.1488640563    -1.8100554027
  105      H      -8.5319607240     4.3213157019    -2.1013110009
  106      C     -10.6353805886     5.0932160535    -2.5678511602
  107      H      -9.3820082295     4.8812204577    -0.7631271933
  108      H     -11.1660466484     4.1326226228    -2.5547823502
  109      H     -10.4683026386     5.4151747263    -3.6025296473
  110      H     -11.3150275155     5.8328887249    -2.1281667346
 ----------------------------------------------------------------

   10   -5663.5101984463      3.66E-06 Convergence criterion met
 Total energy in the final basis set = -5663.5101984463

                    Orbital Energies (a.u.)
 --------------------------------------------------------------

 Alpha MOs
 -- Occupied --
-88.988 -88.981 -88.934 -88.928 -88.925 -88.915 -88.913 -88.906
-14.383 -14.381 -14.380 -14.371 -14.358 -14.349 -14.343 -14.342
-14.325 -14.324 -10.273 -10.270 -10.268 -10.260 -10.257 -10.255
-10.250 -10.244 -10.243 -10.242 -10.238 -10.238 -10.238 -10.237
-10.235 -10.235 -10.234 -10.233 -10.228 -10.228 -10.227 -10.226
-10.223 -10.221 -10.221 -10.218 -10.216 -10.214 -10.212 -10.210
-10.209 -10.207 -10.206 -10.202 -10.200 -10.196 -10.191 -10.185
-10.184 -10.183 -10.181 -10.180 -10.176 -10.176 -10.175 -10.175
-10.174 -10.172 -10.169 -10.166  -8.043  -8.035  -7.994  -7.988
 -7.983  -7.975  -7.971  -7.967  -6.008  -6.002  -6.001  -6.001
 -5.995  -5.993  -5.958  -5.955  -5.952  -5.951  -5.948  -5.948
 -5.944  -5.943  -5.940  -5.939  -5.935  -5.935  -5.932  -5.932
 -5.931  -5.928  -5.927  -5.924  -1.039  -1.034  -0.975  -0.967
 -0.954  -0.950  -0.946  -0.927  -0.918  -0.915  -0.905  -0.903
 -0.849  -0.840  -0.834  -0.826  -0.808  -0.807  -0.806  -0.805
 -0.803  -0.801  -0.799  -0.793  -0.783  -0.780  -0.769  -0.766
 -0.751  -0.750  -0.739  -0.739  -0.721  -0.715  -0.707  -0.706
 -0.696  -0.690  -0.677  -0.672  -0.656  -0.649  -0.648  -0.639
 -0.634  -0.632  -0.631  -0.618  -0.615  -0.607  -0.605  -0.594
 -0.589  -0.588  -0.583  -0.580  -0.580  -0.571  -0.569  -0.566
 -0.552  -0.548  -0.541  -0.536  -0.526  -0.523  -0.520  -0.505
 -0.505  -0.501  -0.499  -0.496  -0.491  -0.486  -0.480  -0.479
 -0.476  -0.470  -0.466  -0.464  -0.459  -0.458  -0.451  -0.446
 -0.446  -0.443  -0.442  -0.438  -0.436  -0.433  -0.433  -0.432
 -0.428  -0.426  -0.425  -0.422  -0.419  -0.417  -0.414  -0.412
 -0.411  -0.409  -0.407  -0.402  -0.400  -0.399  -0.396  -0.394
 -0.393  -0.392  -0.390  -0.388  -0.387  -0.385  -0.383  -0.383
 -0.379  -0.379  -0.374  -0.364  -0.361  -0.357  -0.357  -0.355
 -0.354  -0.351  -0.348  -0.348  -0.344  -0.343  -0.342  -0.338
 -0.336  -0.333  -0.332  -0.330  -0.329  -0.324  -0.321  -0.320
 -0.310  -0.309  -0.308  -0.306  -0.303  -0.301  -0.300  -0.298
 -0.298  -0.293  -0.291  -0.288  -0.287  -0.284  -0.281  -0.277
 -0.275  -0.271  -0.267  -0.262  -0.259  -0.254  -0.249  -0.247
 -0.243  -0.241  -0.233  -0.228  -0.199  -0.191

          Ground-State Mulliken Net Atomic Charges

     Atom                 Charge (a.u.)
  ----------------------------------------
      1 C                     0.236582
      2 C                    -0.108311
      3 N                    -0.464505
      4 C                    -0.062803
      5 C                     0.093984
      6 C                     0.008986
      7 C                     0.013810
      8 C                     0.062138
      9 C                     0.292001
     10 N                    -0.536701
     11 N                    -0.553307
     12 C                     0.198032
     13 C                     0.299448
     14 S                     0.616318
     15 N                    -0.563685
     16 C                    -0.224693
     17 S                     0.312134
     18 C                    -0.124305
     19 C                    -0.244922
     20 S                     0.274798
     21 C                     0.184052
     22 C                     0.064484
     23 C                    -0.317248
     24 C                    -0.048944
     25 N                    -0.438019
     26 S                     0.261171
     27 C                     0.130516
     28 C                    -0.303290
     29 C                    -0.219406
     30 H                     0.099031
     31 H                     0.100264
     32 H                     0.103746
     33 H                     0.115751
     34 H                     0.121858
     35 H                     0.123425
     36 H                     0.113282
     37 H                     0.130733
     38 H                     0.091183
     39 C                    -0.173589
     40 H                     0.116201
     41 H                     0.096228
     42 H                     0.107114
     43 C                    -0.177978
     44 H                     0.089748
     45 C                    -0.162605
     46 H                     0.092120
     47 H                     0.086026
     48 H                     0.093602
     49 C                    -0.169512
     50 H                     0.095772
     51 C                    -0.321498
     52 H                     0.097888
     53 H                     0.095476
     54 H                     0.095143
     55 H                     0.091664
     56 C                     0.295362
     57 C                    -0.123485
     58 N                    -0.492282
     59 C                    -0.067934
     60 C                     0.043247
     61 C                     0.061385
     62 C                     0.033302
     63 C                     0.037903
     64 C                     0.238788
     65 N                    -0.557345
     66 N                    -0.562642
     67 C                     0.197190
     68 C                     0.338814
     69 S                     0.636032
     70 N                    -0.583248
     71 C                    -0.217426
     72 S                     0.355357
     73 C                    -0.127615
     74 C                    -0.198056
     75 S                     0.273897
     76 C                     0.148453
     77 C                     0.060271
     78 C                    -0.309520
     79 C                    -0.083471
     80 N                    -0.433324
     81 S                     0.273039
     82 C                     0.124748
     83 C                    -0.311376
     84 C                    -0.233425
     85 H                     0.084252
     86 H                     0.128198
     87 H                     0.108794
     88 H                     0.128859
     89 H                     0.126098
     90 H                     0.109756
     91 H                     0.121599
     92 H                     0.141208
     93 H                     0.102011
     94 C                    -0.177017
     95 H                     0.122824
     96 H                     0.094533
     97 H                     0.090483
     98 C                    -0.183476
     99 H                     0.093802
    100 C                    -0.171106
    101 H                     0.097334
    102 H                     0.093513
    103 H                     0.089333
    104 C                    -0.176644
    105 H                     0.097343
    106 C                    -0.332331
    107 H                     0.097738
    108 H                     0.097797
    109 H                     0.104000
    110 H                     0.105068
  ----------------------------------------
  Sum of atomic charges =     0.000000

                    Cartesian Multipole Moments
 -----------------------------------------------------------------
    Charge (ESU x 10^10)
                 0.0000
    Dipole Moment (Debye)
         X      -0.4694      Y      -0.7196      Z      -2.8570
       Tot       2.9834
    Quadrupole Moments (Debye-Ang)
        XX    -415.5241     XY      12.4380     YY    -428.1493
        XZ     -22.8316     YZ      25.5550     ZZ    -438.6287

 Total job time:  105.63s(wall), 1147.20s(cpu)
        *  Thank you very much for using Q-Chem.  Have a nice day.  *
