 Q-Chem 4.4, Q-Chem, Inc., Pleasanton, CA (2016)
 Q-Chem 4.4.2 for Intel X86 Linux

User input:
--------------------------------------------------------------
$comment
SP
$end

$rem
MEM_STATIC 5000
MEM_TOTAL 20000
JOBTYPE SP
EXCHANGE B3LYP
BASIS 6-31g(d,p)
$end

$molecule
0 1
C           4.850000    -21.850000     -3.099000
C           5.830000    -22.670000     -3.652000
N           5.170000    -20.845000     -2.298000
C           7.194000    -22.318000     -3.558000
C           6.445000    -20.486000     -2.100000
C           7.504000    -21.204000     -2.748000
C           8.940000    -20.829000     -2.614000
C           9.884000    -21.829000     -2.219000
C           9.533000    -19.535000     -2.849000
N          11.178000    -21.602000     -1.970000
N           8.803000    -18.488000     -3.153000
C          10.834000    -19.313000     -2.659000
C          11.688000    -20.373000     -2.217000
S           9.896000    -17.201000     -3.175000
N          11.281000    -17.988000     -2.810000
C          13.138000    -20.191000     -2.000000
S          13.932000    -20.921000     -0.587000
C          14.054000    -19.509000     -2.697000
C          15.567000    -20.247000     -1.106000
S          13.762000    -19.000000     -4.309000
C          15.395000    -19.596000     -2.292000
C          16.858000    -20.589000     -0.569000
C          15.515000    -18.657000     -4.388000
C          16.246000    -19.154000     -3.337000
N          17.004000    -21.767000      0.005000
S          18.140000    -19.397000     -0.170000
C          18.302000    -21.880000      0.414000
C          19.050000    -20.717000      0.393000
C           3.381000    -22.113000     -3.171000
H           5.508000    -23.480000     -4.300000
H           7.975000    -22.823000     -4.119000
H           6.639000    -19.647000     -1.434000
H           9.546000    -22.862000     -2.284000
H          15.942000    -18.054000     -5.179000
H          17.326000    -19.141000     -3.245000
H          18.691000    -22.867000      0.623000
H          20.044000    -20.328000      0.568000
H           3.272000    -23.017000     -2.559000
C           2.698000    -22.216000     -4.614000
H           2.921000    -21.293000     -2.606000
H           3.008000    -23.015000     -5.299000
H           2.946000    -21.256000     -5.083000
C           1.205000    -22.409000     -4.455000
H           1.143000    -23.318000     -3.844000
C           0.432000    -22.786000     -5.787000
H           0.695000    -21.634000     -3.869000
H           0.910000    -23.600000     -6.345000
H           0.271000    -21.907000     -6.424000
C          -0.968000    -23.229000     -5.421000
H          -0.863000    -24.240000     -5.008000
C          -1.951000    -23.301000     -6.610000
H          -1.398000    -22.597000     -4.635000
H          -1.363000    -23.637000     -7.473000
H          -2.344000    -22.301000     -6.831000
H          -2.780000    -24.011000     -6.499000
C           5.971000    -24.013000     -7.777000
C           5.635000    -24.844000     -8.812000
N           7.083000    -24.193000     -7.071000
C           6.465000    -25.877000     -9.240000
C           7.845000    -25.248000     -7.386000
C           7.711000    -25.981000     -8.585000
C           8.870000    -26.807000     -9.129000
C           9.675000    -27.627000     -8.274000
C           9.252000    -26.816000    -10.510000
N          10.731000    -28.397000     -8.724000
N           8.601000    -26.191000    -11.522000
C          10.312000    -27.578000    -10.937000
C          11.083000    -28.334000    -10.033000
S           9.257000    -26.703000    -12.968000
N          10.428000    -27.603000    -12.276000
C          12.248000    -29.119000    -10.513000
S          13.055000    -28.898000    -12.144000
C          13.045000    -30.050000     -9.783000
C          14.429000    -29.904000    -11.687000
S          12.721000    -30.802000     -8.284000
C          14.223000    -30.386000    -10.441000
C          15.521000    -30.173000    -12.562000
C          14.400000    -31.457000     -8.312000
C          15.031000    -31.242000     -9.579000
N          16.418000    -31.087000    -12.254000
S          15.631000    -29.385000    -14.074000
C          17.136000    -31.328000    -13.424000
C          16.836000    -30.526000    -14.495000
C           5.066000    -22.822000     -7.395000
H           4.694000    -24.626000     -9.307000
H           6.073000    -26.394000    -10.110000
H           8.705000    -25.565000     -6.798000
H           9.422000    -27.610000     -7.215000
H          14.767000    -31.985000     -7.442000
H          15.958000    -31.716000     -9.879000
H          17.876000    -32.106000    -13.556000
H          17.343000    -30.586000    -15.449000
H           3.983000    -22.975000     -7.472000
C           5.367000    -21.678000     -8.335000
H           5.348000    -22.617000     -6.355000
H           4.718000    -20.797000     -8.258000
H           5.162000    -21.907000     -9.388000
C           6.814000    -21.297000     -8.384000
H           7.352000    -21.436000     -7.439000
C           7.036000    -19.909000     -9.073000
H           7.331000    -22.033000     -9.013000
H           6.398000    -19.182000     -8.554000
H           6.636000    -19.987000    -10.092000
C           8.513000    -19.333000     -9.106000
H           8.941000    -19.267000     -8.098000
C           8.580000    -17.917000     -9.762000
H           9.148000    -20.025000     -9.673000
H           9.611000    -17.548000     -9.696000
H           7.845000    -17.213000     -9.352000
H           8.442000    -18.036000    -10.844000
$end

--------------------------------------------------------------

             Standard Nuclear Orientation (Angstroms)
    I     Atom           X                Y                Z
 ----------------------------------------------------------------
    1      C      -4.9654118783     4.3846987007    -1.8161180558
    2      C      -3.7833408904     3.6511040416    -1.8722968391
    3      N      -6.1317462866     3.7897687538    -1.6167480318
    4      C      -3.7670455365     2.2906566389    -1.4952645778
    5      C      -6.2111912399     2.4862816725    -1.3195613425
    6      C      -5.0185810215     1.6951134455    -1.2265951999
    7      C      -5.0279429667     0.2530998013    -0.8508479395
    8      C      -4.3609165007    -0.6884038879    -1.6969020140
    9      C      -5.6404143888    -0.3456210961     0.3100663744
   10      N      -4.3768760218    -2.0144383051    -1.5256010568
   11      N      -6.3500223369     0.3624888939     1.1565661098
   12      C      -5.6117633382    -1.6621285781     0.5197617893
   13      C      -4.9554412145    -2.5255680383    -0.4140441695
   14      S      -6.9799431773    -0.7732961609     2.2357760264
   15      N      -6.3371920671    -2.1454760367     1.6235567855
   16      C      -4.8809162125    -3.9895854386    -0.2301635680
   17      S      -5.1200565901    -5.0805419339    -1.6131063742
   18      C      -4.6761795845    -4.7303120109     0.8650058518
   19      C      -4.8561727735    -6.5591574100    -0.5449661188
   20      S      -4.0280453485    -4.0520650765     2.3012482088
   21      C      -4.5638543727    -6.1210551942     0.7130471565
   22      C      -4.6643573641    -7.9192057958    -0.9756507331
   23      C      -3.7965751780    -5.7388588568     2.8471852957
   24      C      -3.9731723033    -6.6884616284     1.8709481157
   25      N      -4.1828434134    -8.1298134066    -2.1848921273
   26      S      -5.4632400361    -9.3431110947    -0.2287443291
   27      C      -4.0651836605    -9.4784787285    -2.3640904309
   28      C      -4.6911401003   -10.2743358979    -1.4221223308
   29      C      -5.0842814238     5.8336974225    -2.1604823037
   30      H      -2.8570630182     4.1928015929    -2.0404071190
   31      H      -2.8492693149     1.7278123654    -1.3517371210
   32      H      -7.2006160044     2.0605913134    -1.1616393569
   33      H      -3.6707888922    -0.2724329746    -2.4291929967
   34      H      -3.5906505841    -5.9789906398     3.8823426695
   35      H      -3.7848119821    -7.7513851954     1.9696744047
   36      H      -3.4161580353    -9.8377988585    -3.1507452357
   37      H      -4.8437377556   -11.3039050549    -1.1277020422
   38      H      -4.8823315192     5.8381623911    -3.2388316442
   39      C      -4.2116291137     6.8856867127    -1.3291319089
   40      H      -6.1496781343     6.0646608448    -2.0387828920
   41      H      -3.1168403856     6.8296023049    -1.3740560666
   42      H      -4.5152189929     6.7052066570    -0.2907075569
   43      C      -4.5398674998     8.2905082547    -1.7877330395
   44      H      -4.3224570511     8.2504620709    -2.8622445564
   45      C      -3.5699037127     9.4186225569    -1.2396359924
   46      H      -5.5995777791     8.5670515104    -1.7194765252
   47      H      -2.5090935813     9.1680577758    -1.3593989061
   48      H      -3.8022846923     9.6819821914    -0.1999380635
   49      C      -3.8379815938    10.6962448418    -2.0051557810
   50      H      -3.3764109067    10.5564401127    -2.9906110760
   51      C      -3.2287667602    11.9657155657    -1.3707305546
   52      H      -4.9113554653    10.8523094633    -2.1652568919
   53      H      -2.2746085606    11.6574888650    -0.9257727687
   54      H      -3.8798946731    12.3311801041    -0.5671397930
   55      H      -3.0014923219    12.7827346849    -2.0667823404
   56      C      -0.0480483585     4.7228097834     0.0611434895
   57      C       1.1481668319     5.3836957498     0.1446956143
   58      N      -0.1261704622     3.4775662855    -0.3978179120
   59      C       2.3608355047     4.7757169053    -0.1698984332
   60      C       1.0102126186     2.9060288294    -0.8159954218
   61      C       2.2953680891     3.4100858746    -0.5207871701
   62      C       3.5185765722     2.5025874743    -0.5620262321
   63      C       3.7182001676     1.5578031958    -1.6198462013
   64      C       4.5389658150     2.5083486721     0.4439253581
   65      N       4.8144699044     0.7199008500    -1.7013834505
   66      N       4.6185183656     3.3614646289     1.4948461714
   67      C       5.6151955970     1.6598376017     0.3526487469
   68      C       5.7288478383     0.7299321544    -0.6988035949
   69      S       6.1023952482     3.1575507823     2.2296417486
   70      N       6.5550191598     1.9108914163     1.2803909810
   71      C       6.8818608495    -0.2034987307    -0.7546406689
   72      S       8.0091121616    -0.5550041576     0.6475003419
   73      C       7.2412614541    -1.0989943188    -1.8052542311
   74      C       8.7420611559    -1.9257436061    -0.1847376865
   75      S       6.6920929229    -1.1378350513    -3.4221606359
   76      C       8.1999632499    -2.0290651994    -1.4187273578
   77      C       9.7778858482    -2.7195609204     0.3874259948
   78      C       7.5748537960    -2.6959467768    -3.6267849051
   79      C       8.4209928608    -2.9760423499    -2.5063965113
   80      N      10.4311667505    -3.5986409363    -0.3442237769
   81      S      10.2590608381    -2.4742704436     2.0083797915
   82      C      11.5546319783    -3.9558162857     0.3992522831
   83      C      11.6330613812    -3.4365569075     1.6659264823
   84      C      -1.3592876381     5.4039117517     0.5085601413
   85      H       1.0995822298     6.4051624421     0.5083923740
   86      H       3.2121934375     5.4234910476     0.0129439326
   87      H       1.0470008001     1.9443807049    -1.3256153922
   88      H       2.9381898906     1.5143140859    -2.3784446887
   89      H       7.4537139877    -3.2450001156    -4.5510351840
   90      H       9.1776013585    -3.7516213246    -2.5013136704
   91      H      12.3683542206    -4.5753217454     0.0465809094
   92      H      12.4341361780    -3.6622133557     2.3573911142
   93      H      -1.4597553062     6.4756852523     0.3001499420
   94      C      -1.4651904776     5.2862443092     2.0111831684
   95      H      -2.1307679851     4.8382949019    -0.0281377749
   96      H      -2.2929188524     5.8258057818     2.4876599829
   97      H      -0.6496547653     5.7831292160     2.5508885431
   98      C      -1.3539055486     3.8825300723     2.5196839114
   99      H      -1.7581927791     3.1212382676     1.8423533987
  100      C      -1.8183094436     3.7556793665     4.0092432156
  101      H      -0.2912704560     3.6080582817     2.5097896666
  102      H      -2.8301429470     4.1766303136     4.0719110828
  103      H      -1.1786239501     4.4198850950     4.6042879363
  104      C      -1.8478976245     2.3049025870     4.6485907545
  105      H      -2.4650673998     1.6176270167     4.0566804921
  106      C      -2.3912375444     2.3160205216     6.1130152568
  107      H      -0.8293793597     1.8972596986     4.6435094269
  108      H      -2.4480654524     1.2817071507     6.4741861854
  109      H      -3.3373193654     2.8611330013     6.2212860854
  110      H      -1.6177613474     2.7485068476     6.7600231010
 ----------------------------------------------------------------

   10   -5663.4764388069      3.84E-06 Convergence criterion met
 Total energy in the final basis set = -5663.4764388069

                    Orbital Energies (a.u.)
 --------------------------------------------------------------

 Alpha MOs
 -- Occupied --
-88.993 -88.987 -88.929 -88.924 -88.920 -88.912 -88.911 -88.902
-14.393 -14.383 -14.379 -14.377 -14.354 -14.349 -14.348 -14.341
-14.336 -14.320 -10.268 -10.268 -10.262 -10.262 -10.255 -10.252
-10.251 -10.249 -10.248 -10.248 -10.239 -10.234 -10.233 -10.233
-10.232 -10.232 -10.231 -10.231 -10.229 -10.228 -10.227 -10.227
-10.226 -10.226 -10.224 -10.224 -10.222 -10.221 -10.217 -10.213
-10.213 -10.209 -10.208 -10.204 -10.203 -10.200 -10.193 -10.193
-10.186 -10.185 -10.183 -10.181 -10.180 -10.179 -10.176 -10.176
-10.175 -10.173 -10.171 -10.166  -8.048  -8.042  -7.992  -7.982
 -7.982  -7.972  -7.970  -7.964  -6.013  -6.008  -6.007  -6.006
 -6.002  -6.000  -5.956  -5.952  -5.949  -5.947  -5.945  -5.943
 -5.942  -5.939  -5.939  -5.936  -5.935  -5.932  -5.931  -5.928
 -5.928  -5.927  -5.925  -5.919  -1.033  -1.033  -0.978  -0.969
 -0.954  -0.952  -0.948  -0.939  -0.912  -0.909  -0.901  -0.892
 -0.840  -0.834  -0.830  -0.824  -0.820  -0.812  -0.811  -0.810
 -0.808  -0.805  -0.796  -0.794  -0.784  -0.780  -0.765  -0.763
 -0.751  -0.745  -0.741  -0.740  -0.719  -0.714  -0.709  -0.705
 -0.694  -0.687  -0.677  -0.669  -0.658  -0.651  -0.647  -0.639
 -0.637  -0.635  -0.628  -0.626  -0.614  -0.602  -0.595  -0.593
 -0.593  -0.590  -0.586  -0.580  -0.577  -0.575  -0.573  -0.570
 -0.554  -0.546  -0.542  -0.537  -0.526  -0.523  -0.516  -0.513
 -0.507  -0.500  -0.498  -0.497  -0.493  -0.483  -0.477  -0.475
 -0.471  -0.470  -0.466  -0.464  -0.461  -0.456  -0.450  -0.448
 -0.444  -0.442  -0.441  -0.436  -0.434  -0.433  -0.431  -0.429
 -0.425  -0.425  -0.423  -0.421  -0.419  -0.417  -0.413  -0.412
 -0.411  -0.408  -0.405  -0.402  -0.402  -0.399  -0.397  -0.395
 -0.394  -0.393  -0.391  -0.388  -0.387  -0.386  -0.381  -0.376
 -0.376  -0.374  -0.372  -0.370  -0.368  -0.364  -0.360  -0.356
 -0.354  -0.350  -0.348  -0.348  -0.346  -0.342  -0.339  -0.337
 -0.335  -0.334  -0.334  -0.330  -0.326  -0.322  -0.319  -0.319
 -0.315  -0.311  -0.308  -0.307  -0.306  -0.301  -0.301  -0.299
 -0.296  -0.296  -0.295  -0.292  -0.289  -0.285  -0.282  -0.276
 -0.276  -0.271  -0.269  -0.260  -0.256  -0.253  -0.247  -0.246
 -0.243  -0.235  -0.233  -0.228  -0.194  -0.192

          Ground-State Mulliken Net Atomic Charges

     Atom                 Charge (a.u.)
  ----------------------------------------
      1 C                     0.286115
      2 C                    -0.128128
      3 N                    -0.485345
      4 C                    -0.070713
      5 C                     0.106749
      6 C                     0.011047
      7 C                     0.002598
      8 C                     0.068105
      9 C                     0.286301
     10 N                    -0.490692
     11 N                    -0.564615
     12 C                     0.176074
     13 C                     0.240446
     14 S                     0.599666
     15 N                    -0.519348
     16 C                    -0.198156
     17 S                     0.315034
     18 C                    -0.106536
     19 C                    -0.240451
     20 S                     0.251889
     21 C                     0.169713
     22 C                     0.025749
     23 C                    -0.293835
     24 C                    -0.070367
     25 N                    -0.398438
     26 S                     0.262065
     27 C                     0.115656
     28 C                    -0.308062
     29 C                    -0.242452
     30 H                     0.098097
     31 H                     0.124733
     32 H                     0.112023
     33 H                     0.110052
     34 H                     0.123915
     35 H                     0.110202
     36 H                     0.112396
     37 H                     0.144557
     38 H                     0.111789
     39 C                    -0.184886
     40 H                     0.125758
     41 H                     0.096407
     42 H                     0.104039
     43 C                    -0.176596
     44 H                     0.095121
     45 C                    -0.181111
     46 H                     0.097035
     47 H                     0.090403
     48 H                     0.093441
     49 C                    -0.171931
     50 H                     0.091091
     51 C                    -0.325129
     52 H                     0.094096
     53 H                     0.097780
     54 H                     0.104108
     55 H                     0.102737
     56 C                     0.272468
     57 C                    -0.107681
     58 N                    -0.489062
     59 C                    -0.043428
     60 C                     0.086196
     61 C                     0.006593
     62 C                     0.014943
     63 C                     0.061489
     64 C                     0.263046
     65 N                    -0.540204
     66 N                    -0.584978
     67 C                     0.221388
     68 C                     0.324463
     69 S                     0.603822
     70 N                    -0.573532
     71 C                    -0.232458
     72 S                     0.317624
     73 C                    -0.107980
     74 C                    -0.241913
     75 S                     0.287619
     76 C                     0.166415
     77 C                     0.088629
     78 C                    -0.313095
     79 C                    -0.062968
     80 N                    -0.449047
     81 S                     0.279423
     82 C                     0.114255
     83 C                    -0.297117
     84 C                    -0.235221
     85 H                     0.085257
     86 H                     0.112733
     87 H                     0.097310
     88 H                     0.118146
     89 H                     0.133039
     90 H                     0.133148
     91 H                     0.113923
     92 H                     0.132456
     93 H                     0.101356
     94 C                    -0.182565
     95 H                     0.125683
     96 H                     0.091436
     97 H                     0.093462
     98 C                    -0.181109
     99 H                     0.105987
    100 C                    -0.177926
    101 H                     0.097589
    102 H                     0.089507
    103 H                     0.086254
    104 C                    -0.182751
    105 H                     0.096888
    106 C                    -0.319033
    107 H                     0.093339
    108 H                     0.098611
    109 H                     0.105804
    110 H                     0.101572
  ----------------------------------------
  Sum of atomic charges =     0.000000

                    Cartesian Multipole Moments
 -----------------------------------------------------------------
    Charge (ESU x 10^10)
                 0.0000
    Dipole Moment (Debye)
         X       4.6565      Y       0.0957      Z       3.4815
       Tot       5.8149
    Quadrupole Moments (Debye-Ang)
        XX    -417.9732     XY       0.4162     YY    -392.2618
        XZ       3.6921     YZ      -9.6476     ZZ    -436.0642

 Total job time:  91.24s(wall), 996.88s(cpu)
        *  Thank you very much for using Q-Chem.  Have a nice day.  *
