 Q-Chem 4.4, Q-Chem, Inc., Pleasanton, CA (2016)
 Q-Chem 4.4.2 for Intel X86 Linux

User input:
--------------------------------------------------------------
$comment
SP
$end

$rem
MEM_STATIC 5000
MEM_TOTAL 20000
JOBTYPE SP
EXCHANGE B3LYP
BASIS 6-31g(d,p)
$end

$molecule
0 1
C           3.672000     -4.668000     -8.719000
C           3.577000     -3.858000     -7.604000
N           3.065000     -4.437000     -9.861000
C           2.744000     -2.722000     -7.649000
C           2.394000     -3.270000     -9.967000
C           2.147000     -2.408000     -8.863000
C           1.328000     -1.167000     -9.001000
C           1.505000     -0.056000     -8.121000
C           0.330000     -1.085000     -9.925000
N           0.744000      1.049000     -8.195000
N           0.038000     -2.019000    -10.922000
C          -0.492000      0.049000     -9.943000
C          -0.277000      1.204000     -9.134000
S          -1.239000     -1.298000    -11.709000
N          -1.446000      0.077000    -10.916000
C          -1.091000      2.502000     -9.291000
S          -2.447000      2.911000    -10.287000
C          -0.673000      3.650000     -8.661000
C          -2.392000      4.651000     -9.950000
S           0.453000      3.918000     -7.416000
C          -1.388000      4.808000     -9.081000
C          -3.426000      5.533000    -10.324000
C          -0.134000      5.648000     -7.325000
C          -0.958000      5.942000     -8.336000
N          -3.510000      6.730000     -9.815000
S          -4.636000      5.132000    -11.493000
C          -4.489000      7.466000    -10.382000
C          -5.078000      6.840000    -11.437000
C           4.597000     -5.937000     -8.671000
H           4.261000     -4.120000     -6.802000
H           2.684000     -2.113000     -6.752000
H           2.001000     -3.128000    -10.973000
H           2.288000     -0.065000     -7.364000
H           0.341000      6.309000     -6.613000
H          -1.357000      6.940000     -8.472000
H          -4.629000      8.517000    -10.167000
H          -5.708000      7.275000    -12.203000
H           4.877000     -6.224000     -9.692000
C           3.985000     -7.246000     -8.034000
H           5.478000     -5.582000     -8.121000
H           3.204000     -6.881000     -7.356000
H           4.709000     -7.769000     -7.397000
C           3.334000     -8.244000     -8.957000
H           2.788000     -8.945000     -8.314000
C           4.357000     -9.127000     -9.660000
H           2.628000     -7.848000     -9.697000
H           4.987000     -9.731000     -8.996000
H           5.083000     -8.485000    -10.176000
C           3.793000    -10.134000    -10.684000
H           2.852000     -9.777000    -11.119000
C           3.617000    -11.570000    -10.093000
H           4.468000    -10.150000    -11.549000
H           2.726000    -11.693000     -9.465000
H           4.546000    -11.872000     -9.594000
H           3.544000    -12.181000    -11.001000
C         -11.995000     22.294000    -13.599000
C         -12.253000     21.175000    -14.326000
N         -11.017000     22.288000    -12.693000
C         -11.591000     20.048000    -14.159000
C         -10.315000     21.165000    -12.503000
C         -10.571000     19.974000    -13.200000
C          -9.719000     18.752000    -12.999000
C          -8.437000     18.921000    -12.355000
C         -10.037000     17.385000    -13.309000
N          -7.520000     17.935000    -12.112000
N         -11.110000     16.985000    -13.924000
C          -9.160000     16.363000    -12.992000
C          -7.904000     16.658000    -12.394000
S         -11.019000     15.326000    -13.923000
N          -9.552000     15.055000    -13.280000
C          -6.827000     15.641000    -12.239000
S          -6.764000     14.025000    -12.965000
C          -5.682000     15.827000    -11.557000
C          -5.152000     13.687000    -12.360000
S          -5.107000     17.267000    -10.745000
C          -4.744000     14.779000    -11.648000
C          -4.413000     12.496000    -12.597000
C          -3.538000     16.417000    -10.492000
C          -3.521000     15.111000    -11.004000
N          -5.069000     11.589000    -13.349000
S          -3.126000     11.786000    -11.556000
C          -4.354000     10.399000    -13.305000
C          -3.227000     10.360000    -12.522000
C         -12.852000     23.551000    -13.531000
H         -12.994000     21.203000    -15.119000
H         -11.922000     19.236000    -14.799000
H          -9.522000     21.290000    -11.767000
H          -8.051000     19.891000    -12.044000
H          -2.750000     16.878000     -9.911000
H          -2.618000     14.511000    -11.011000
H          -4.598000      9.564000    -13.949000
H          -2.615000      9.480000    -12.372000
H         -12.276000     24.342000    -13.036000
C         -14.216000     23.369000    -12.806000
H         -13.208000     23.907000    -14.506000
H         -13.965000     23.075000    -11.779000
H         -14.774000     22.528000    -13.234000
C         -15.121000     24.637000    -12.729000
H         -14.653000     25.505000    -12.248000
C         -16.470000     24.483000    -11.943000
H         -15.221000     24.969000    -13.769000
H         -16.985000     25.447000    -11.847000
H         -16.316000     24.052000    -10.946000
C         -17.552000     23.543000    -12.594000
H         -17.712000     23.875000    -13.627000
C         -18.855000     23.423000    -11.765000
H         -17.108000     22.540000    -12.627000
H         -18.579000     23.175000    -10.733000
H         -19.620000     22.745000    -12.164000
H         -19.285000     24.414000    -11.574000
$end

--------------------------------------------------------------

             Standard Nuclear Orientation (Angstroms)
    I     Atom           X                Y                Z
 ----------------------------------------------------------------
    1      C     -15.7364019540     0.5972629479    -0.1745934319
    2      C     -15.1296097367     1.3048005434    -1.1941736181
    3      N     -15.0981395552    -0.1603517385     0.6883173961
    4      C     -13.7363976294     1.1914950838    -1.3745396267
    5      C     -13.7493629685    -0.1498086533     0.6246262456
    6      C     -13.0222367369     0.4587090721    -0.4354976251
    7      C     -11.5334255040     0.3772371192    -0.5172865825
    8      C     -10.7694308256     1.3716588140    -1.2010172491
    9      C     -10.8609025517    -0.6921733669    -0.0068180812
   10      N      -9.4344391108     1.2904371216    -1.3307175120
   11      N     -11.4012450339    -1.7299009653     0.7565824909
   12      C      -9.4781568762    -0.7885134748    -0.2085530077
   13      C      -8.6857347870     0.2339647195    -0.8096657879
   14      S     -10.0576642765    -2.6566485301     1.0819571970
   15      N      -8.8675988787    -1.8664366963     0.3597158198
   16      C      -7.1477047811     0.1784195794    -0.8682101164
   17      S      -6.0091887689    -1.0379652846    -0.3968056694
   18      C      -6.4377487817     1.2983260658    -1.2305634530
   19      C      -4.5740461956    -0.0121809714    -0.5766009340
   20      S      -6.9102437097     2.7535096951    -1.9714508588
   21      C      -5.0359992885     1.1624058139    -1.0179298633
   22      C      -3.2613315359    -0.5243410498    -0.5388083904
   23      C      -5.1403583236     3.1786884222    -2.1516695315
   24      C      -4.3583924427     2.3240523497    -1.4840921616
   25      N      -2.2494501561     0.1785431095    -0.9642445569
   26      S      -2.8724294967    -2.0869125158     0.0925295679
   27      C      -1.0655480494    -0.4282339085    -0.7365969081
   28      C      -1.1877749108    -1.5690032061    -0.0047991191
   29      C     -17.2897534152     0.7186560789     0.0270323248
   30      H     -15.7895723124     1.9926108561    -1.7148178078
   31      H     -13.2930934520     1.7525469590    -2.1917251623
   32      H     -13.3092622936    -0.7348564970     1.4312732666
   33      H     -11.2532533431     2.2491774077    -1.6277441984
   34      H      -4.8894093030     4.1292392460    -2.6021889212
   35      H      -3.2843793880     2.4570229976    -1.4339347576
   36      H      -0.1157851550     0.0571477960    -0.9176522737
   37      H      -0.4090640884    -2.1152807943     0.5129568579
   38      H     -17.5462876791     0.4512823748     1.0594622128
   39      C     -18.2031301985    -0.2048418688    -0.8711260088
   40      H     -17.4807042898     1.7852572410    -0.1478554237
   41      H     -17.5922817467    -0.4148159006    -1.7574922282
   42      H     -19.0875203782     0.3286085871    -1.2409349070
   43      C     -18.6332775877    -1.5355100988    -0.3089611884
   44      H     -19.0539579580    -2.1013190282    -1.1491125328
   45      C     -19.8066004182    -1.3992653532     0.6529004984
   46      H     -17.8545341588    -2.1529696089     0.1548862277
   47      H     -20.7186261166    -0.9719405855     0.2190633533
   48      H     -19.5404673795    -0.6761102994     1.4350232342
   49      C     -20.2742351495    -2.6994366288     1.3396270904
   50      H     -19.4529922604    -3.4198700171     1.4328518193
   51      C     -21.5039123736    -3.3542620138     0.6314952950
   52      H     -20.5083610605    -2.4636991784     2.3854372607
   53      H     -21.2550932958    -3.9121785857    -0.2796644964
   54      H     -22.2797847302    -2.5941969756     0.4779725802
   55      H     -21.8828131362    -4.0260981010     1.4113571315
   56      C      15.8098611559    -0.1178494053     0.5606827891
   57      C      15.0592237138    -1.1287543552     1.0724137855
   58      N      15.2150280465     0.9673649881     0.0648609540
   59      C      13.7417661448    -1.1057710650     1.0786845453
   60      C      13.8786723322     1.0320643469     0.0642302843
   61      C      13.0610635158    -0.0029173734     0.5439746559
   62      C      11.5647186862     0.1357826958     0.5800778648
   63      C      11.0059700181     1.4614058326     0.4483803892
   64      C      10.5766800397    -0.9046022191     0.6654702635
   65      N       9.6767262168     1.7838505130     0.4840783566
   66      N      10.8303527461    -2.1688434189     0.8294774184
   67      C       9.2265223609    -0.6068002108     0.6155682985
   68      C       8.7951141405     0.7452305420     0.5257641182
   69      S       9.3518097326    -2.9227836597     0.7517106476
   70      N       8.3227590729    -1.6692915104     0.6579493999
   71      C       7.3721949726     1.1498369979     0.6984999209
   72      S       6.0355166231     0.1475080491     1.2910610303
   73      C       6.8900841119     2.3876373858     0.4836410887
   74      C       4.8827109656     1.4702817370     1.2800208132
   75      S       7.7532215775     3.8402120216     0.0269249376
   76      C       5.5388558913     2.5822205268     0.8339961902
   77      C       3.5230429581     1.3852259201     1.6860250218
   78      C       6.2228465079     4.7536908833     0.2948400649
   79      C       5.1497372168     3.9420404576     0.6919912148
   80      N       3.1525755583     0.1541390742     2.0930484653
   81      S       2.1522873160     2.4118989725     1.1282424360
   82      C       1.7702600978     0.1461078468     2.2286967873
   83      C       1.0897623264     1.2918016218     1.8984732918
   84      C      17.3052020477    -0.1515157245     0.2744238218
   85      H      15.5435310892    -1.9755718945     1.5489223597
   86      H      13.2811575811    -1.9922551407     1.5035265566
   87      H      13.5084468832     1.9771918158    -0.3305319030
   88      H      11.6175917126     2.3584859348     0.3601579830
   89      H       6.1649231822     5.8095251408     0.0648728739
   90      H       4.1922989186     4.3605946752     0.9810972024
   91      H       1.2479121551    -0.6838347803     2.6867850566
   92      H       0.0122954879     1.3922352845     1.9190230245
   93      H      17.6465348232     0.8704810049     0.0707166268
   94      C      17.7211613965    -1.0829447018    -0.8997409369
   95      H      17.9083963290    -0.5898531670     1.0794790657
   96      H      17.2161712780    -0.6797221767    -1.7866245682
   97      H      17.3194505247    -2.0927004888    -0.7553434781
   98      C      19.2482539057    -1.1463358200    -1.2107843976
   99      H      19.7104850180    -0.1768386200    -1.4348972667
  100      C      19.6734739278    -2.0310836362    -2.4345990218
  101      H      19.7142029588    -1.4146506948    -0.2554192277
  102      H      20.7455141190    -1.9285662406    -2.6442582978
  103      H      19.1010396605    -1.7836935100    -3.3371526961
  104      C      19.4692381461    -3.5838891811    -2.2758297381
  105      H      19.9635229583    -3.8976598174    -1.3483905151
  106      C      19.8960669595    -4.4003765571    -3.5210668757
  107      H      18.3901617127    -3.7410059063    -2.1527753378
  108      H      19.4180430743    -3.9525928969    -4.4006616454
  109      H      19.7324112838    -5.4840653462    -3.4667950780
  110      H      20.9381633698    -4.1842897422    -3.7871562592
 ----------------------------------------------------------------

   10   -5663.5096915760      4.23E-06 Convergence criterion met
 Total energy in the final basis set = -5663.5096915760

                    Orbital Energies (a.u.)
 --------------------------------------------------------------

 Alpha MOs
 -- Occupied --
-88.993 -88.991 -88.934 -88.928 -88.924 -88.920 -88.911 -88.905
-14.404 -14.392 -14.388 -14.387 -14.357 -14.355 -14.351 -14.343
-14.327 -14.324 -10.277 -10.274 -10.270 -10.268 -10.262 -10.261
-10.257 -10.256 -10.249 -10.248 -10.246 -10.238 -10.238 -10.237
-10.236 -10.233 -10.232 -10.232 -10.231 -10.230 -10.228 -10.227
-10.226 -10.225 -10.224 -10.223 -10.222 -10.221 -10.221 -10.217
-10.215 -10.208 -10.207 -10.206 -10.201 -10.197 -10.192 -10.187
-10.186 -10.186 -10.185 -10.184 -10.184 -10.180 -10.179 -10.175
-10.174 -10.172 -10.172 -10.167  -8.048  -8.047  -7.994  -7.990
 -7.984  -7.979  -7.970  -7.965  -6.013  -6.011  -6.008  -6.006
 -6.006  -6.005  -5.958  -5.955  -5.954  -5.951  -5.950  -5.948
 -5.947  -5.944  -5.943  -5.940  -5.939  -5.935  -5.934  -5.931
 -5.930  -5.926  -5.926  -5.921  -1.048  -1.037  -0.985  -0.966
 -0.955  -0.950  -0.949  -0.944  -0.921  -0.921  -0.913  -0.906
 -0.848  -0.840  -0.835  -0.833  -0.813  -0.812  -0.810  -0.808
 -0.807  -0.804  -0.803  -0.802  -0.788  -0.782  -0.769  -0.768
 -0.754  -0.750  -0.744  -0.741  -0.723  -0.720  -0.712  -0.707
 -0.696  -0.695  -0.678  -0.676  -0.660  -0.654  -0.653  -0.649
 -0.638  -0.636  -0.627  -0.626  -0.618  -0.617  -0.607  -0.600
 -0.594  -0.594  -0.591  -0.585  -0.581  -0.579  -0.563  -0.559
 -0.556  -0.546  -0.543  -0.538  -0.527  -0.524  -0.519  -0.514
 -0.510  -0.505  -0.504  -0.503  -0.493  -0.485  -0.480  -0.480
 -0.473  -0.471  -0.466  -0.465  -0.458  -0.457  -0.454  -0.453
 -0.450  -0.447  -0.440  -0.440  -0.438  -0.437  -0.437  -0.434
 -0.433  -0.430  -0.430  -0.424  -0.423  -0.418  -0.417  -0.416
 -0.413  -0.410  -0.410  -0.406  -0.405  -0.400  -0.400  -0.399
 -0.397  -0.395  -0.392  -0.391  -0.389  -0.387  -0.386  -0.383
 -0.382  -0.381  -0.376  -0.376  -0.363  -0.363  -0.362  -0.359
 -0.355  -0.354  -0.353  -0.352  -0.349  -0.347  -0.342  -0.339
 -0.338  -0.337  -0.334  -0.334  -0.330  -0.327  -0.323  -0.323
 -0.321  -0.315  -0.315  -0.310  -0.309  -0.304  -0.304  -0.300
 -0.299  -0.298  -0.294  -0.294  -0.293  -0.287  -0.287  -0.283
 -0.283  -0.279  -0.269  -0.266  -0.259  -0.255  -0.253  -0.248
 -0.244  -0.243  -0.235  -0.232  -0.200  -0.197

          Ground-State Mulliken Net Atomic Charges

     Atom                 Charge (a.u.)
  ----------------------------------------
      1 C                     0.267523
      2 C                    -0.111712
      3 N                    -0.472695
      4 C                    -0.086151
      5 C                     0.070709
      6 C                     0.034647
      7 C                     0.011731
      8 C                     0.085120
      9 C                     0.269341
     10 N                    -0.539872
     11 N                    -0.567967
     12 C                     0.141919
     13 C                     0.309307
     14 S                     0.615548
     15 N                    -0.525568
     16 C                    -0.212388
     17 S                     0.307626
     18 C                    -0.101861
     19 C                    -0.231797
     20 S                     0.264647
     21 C                     0.142855
     22 C                     0.084028
     23 C                    -0.314154
     24 C                    -0.031645
     25 N                    -0.443254
     26 S                     0.257123
     27 C                     0.126842
     28 C                    -0.311751
     29 C                    -0.229152
     30 H                     0.089487
     31 H                     0.102126
     32 H                     0.133501
     33 H                     0.118794
     34 H                     0.126206
     35 H                     0.123745
     36 H                     0.124804
     37 H                     0.134800
     38 H                     0.117263
     39 C                    -0.176078
     40 H                     0.092280
     41 H                     0.089965
     42 H                     0.093526
     43 C                    -0.171926
     44 H                     0.091571
     45 C                    -0.171097
     46 H                     0.108797
     47 H                     0.083258
     48 H                     0.086318
     49 C                    -0.187912
     50 H                     0.091911
     51 C                    -0.316760
     52 H                     0.091611
     53 H                     0.108708
     54 H                     0.102740
     55 H                     0.101614
     56 C                     0.271120
     57 C                    -0.109563
     58 N                    -0.488240
     59 C                    -0.052656
     60 C                     0.070035
     61 C                     0.030866
     62 C                     0.054810
     63 C                     0.049133
     64 C                     0.274655
     65 N                    -0.523663
     66 N                    -0.570120
     67 C                     0.161540
     68 C                     0.284444
     69 S                     0.603688
     70 N                    -0.524242
     71 C                    -0.222936
     72 S                     0.350536
     73 C                    -0.115338
     74 C                    -0.235001
     75 S                     0.290760
     76 C                     0.155719
     77 C                     0.049527
     78 C                    -0.309803
     79 C                    -0.085907
     80 N                    -0.425167
     81 S                     0.275449
     82 C                     0.104044
     83 C                    -0.299171
     84 C                    -0.223710
     85 H                     0.083741
     86 H                     0.120698
     87 H                     0.102559
     88 H                     0.117682
     89 H                     0.127192
     90 H                     0.113754
     91 H                     0.111913
     92 H                     0.146584
     93 H                     0.120508
     94 C                    -0.181487
     95 H                     0.093147
     96 H                     0.102219
     97 H                     0.097819
     98 C                    -0.180980
     99 H                     0.096987
    100 C                    -0.181127
    101 H                     0.088482
    102 H                     0.092343
    103 H                     0.095256
    104 C                    -0.176235
    105 H                     0.090618
    106 C                    -0.321766
    107 H                     0.094448
    108 H                     0.101612
    109 H                     0.105502
    110 H                     0.099470
  ----------------------------------------
  Sum of atomic charges =     0.000000

                    Cartesian Multipole Moments
 -----------------------------------------------------------------
    Charge (ESU x 10^10)
                 0.0000
    Dipole Moment (Debye)
         X       0.5530      Y      -0.3241      Z      -0.2243
       Tot       0.6791
    Quadrupole Moments (Debye-Ang)
        XX    -440.7907     XY     -36.1141     YY    -426.3488
        XZ      14.8372     YZ      -9.0164     ZZ    -451.3952

 Total job time:  88.96s(wall), 966.15s(cpu)
        *  Thank you very much for using Q-Chem.  Have a nice day.  *
