 Q-Chem 4.4, Q-Chem, Inc., Pleasanton, CA (2016)
 Q-Chem 4.4.2 for Intel X86 Linux

User input:
--------------------------------------------------------------
$comment
SP
$end

$rem
MEM_STATIC 5000
MEM_TOTAL 20000
JOBTYPE SP
EXCHANGE B3LYP
BASIS 6-31g(d,p)
$end

$molecule
0 1
C          15.323000     16.472000    -13.865000
C          15.250000     17.796000    -13.325000
N          14.343000     15.636000    -13.843000
C          13.975000     18.256000    -13.025000
C          13.129000     16.097000    -13.502000
C          12.862000     17.416000    -13.106000
C          11.506000     17.725000    -12.538000
C          11.403000     18.675000    -11.479000
C          10.290000     17.132000    -12.997000
N          10.226000     19.091000    -10.958000
N          10.170000     16.203000    -13.976000
C           9.066000     17.515000    -12.400000
C           9.062000     18.527000    -11.336000
S           8.615000     15.847000    -13.980000
N           7.992000     16.801000    -12.779000
C           7.775000     18.858000    -10.633000
S           6.255000     17.854000    -10.596000
C           7.599000     20.071000     -9.983000
C           5.418000     19.196000     -9.619000
S           8.585000     21.546000    -10.027000
C           6.312000     20.200000     -9.480000
C           4.035000     19.295000     -9.227000
C           7.278000     22.344000     -9.083000
C           6.218000     21.532000     -8.927000
N           3.500000     18.164000     -8.885000
S           3.021000     20.695000     -9.301000
C           2.124000     18.338000     -8.687000
C           1.783000     19.545000     -9.117000
C          16.674000     15.845000    -14.130000
H          16.146000     18.369000    -13.109000
H          13.847000     19.294000    -12.733000
H          12.361000     15.325000    -13.479000
H          12.239000     19.308000    -11.184000
H           7.505000     23.354000     -8.769000
H           5.293000     21.787000     -8.422000
H           1.517000     17.556000     -8.250000
H           0.756000     19.883000     -9.090000
H          16.629000     15.048000    -14.883000
C          17.384000     15.287000    -12.851000
H          17.298000     16.655000    -14.530000
H          17.660000     16.179000    -12.274000
H          18.325000     14.808000    -13.149000
C          16.483000     14.517000    -11.858000
H          15.588000     15.111000    -11.633000
C          17.191000     14.129000    -10.547000
H          16.085000     13.661000    -12.416000
H          17.986000     13.452000    -10.882000
H          16.386000     13.571000    -10.054000
C          17.654000     15.270000     -9.653000
H          18.419000     15.781000    -10.251000
C          18.465000     14.827000     -8.446000
H          16.772000     15.812000     -9.290000
H          17.743000     14.331000     -7.786000
H          18.907000     15.696000     -7.943000
H          19.247000     14.061000     -8.521000
C           0.771000     12.829000    -14.012000
C           1.787000     13.344000    -14.808000
N           0.872000     12.777000    -12.697000
C           3.057000     13.631000    -14.316000
C           2.129000     12.986000    -12.204000
C           3.300000     13.387000    -12.950000
C           4.677000     13.669000    -12.335000
C           5.859000     13.254000    -12.995000
C           4.799000     14.222000    -11.076000
N           7.108000     13.447000    -12.516000
N           3.787000     14.640000    -10.335000
C           6.100000     14.322000    -10.573000
C           7.258000     13.932000    -11.272000
S           4.413000     14.988000     -8.934000
N           6.035000     14.721000     -9.295000
C           8.652000     14.072000    -10.711000
S           9.102000     15.425000     -9.598000
C           9.759000     13.534000    -11.283000
C          10.865000     15.266000    -10.053000
S           9.864000     12.325000    -12.540000
C          10.971000     14.184000    -10.946000
C          11.961000     16.000000     -9.550000
C          11.660000     12.458000    -12.416000
C          12.055000     13.526000    -11.591000
N          13.072000     16.014000    -10.317000
S          11.827000     17.321000     -8.404000
C          13.935000     16.913000     -9.736000
C          13.532000     17.463000     -8.587000
C          -0.612000     12.612000    -14.556000
H           1.542000     13.443000    -15.862000
H           3.931000     13.868000    -14.915000
H           2.191000     12.961000    -11.117000
H           5.877000     12.821000    -13.994000
H          12.324000     11.859000    -13.025000
H          13.049000     13.926000    -11.428000
H          14.939000     16.990000    -10.132000
H          14.097000     18.242000     -8.094000
H          -0.465000     12.401000    -15.622000
C          -1.531000     13.827000    -14.341000
H          -1.046000     11.683000    -14.165000
H          -1.624000     14.090000    -13.280000
H          -2.568000     13.528000    -14.536000
C          -1.184000     15.064000    -15.240000
H          -0.335000     15.541000    -14.735000
C          -2.310000     16.099000    -15.379000
H          -0.733000     14.747000    -16.188000
H          -3.075000     15.665000    -16.035000
H          -1.851000     16.918000    -15.945000
C          -3.070000     16.615000    -14.115000
H          -3.433000     15.754000    -13.540000
C          -4.325000     17.432000    -14.521000
H          -2.494000     17.367000    -13.561000
H          -4.021000     18.268000    -15.163000
H          -4.792000     17.783000    -13.593000
H          -5.018000     16.787000    -15.075000
$end

--------------------------------------------------------------

             Standard Nuclear Orientation (Angstroms)
    I     Atom           X                Y                Z
 ----------------------------------------------------------------
    1      C       7.1244381617    -1.4336589096    -2.7360821200
    2      C       7.1189248289    -0.0154801152    -2.9326616463
    3      N       6.1415350348    -2.0876541756    -2.2203577408
    4      C       5.8840445462     0.6063547054    -2.8076930774
    5      C       4.9713207985    -1.4479959416    -2.0653287600
    6      C       4.7588193851    -0.0948822027    -2.3683012982
    7      C       3.4673428897     0.5353497032    -1.9304232254
    8      C       3.4775544099     1.8919227703    -1.4897473371
    9      C       2.2061094345    -0.1356725660    -1.9327223104
   10      N       2.3609507262     2.5806255224    -1.1600342302
   11      N       1.9818769238    -1.4210678530    -2.2979082045
   12      C       1.0496521215     0.5652962817    -1.5173632397
   13      C       1.1595927650     1.9721549899    -1.1112627223
   14      S       0.4296994540    -1.6399077360    -2.0018825170
   15      N      -0.0639509618    -0.1784963115    -1.4008567977
   16      C      -0.0499779791     2.6849227581    -0.5736385751
   17      S      -1.5708362225     1.9248026100     0.0813366641
   18      C      -0.1487113596     4.0682693334    -0.6117039405
   19      C      -2.2945478566     3.6217640401     0.3107388768
   20      S       0.8454027295     5.2628873297    -1.4686648619
   21      C      -1.3798314910     4.5064628164    -0.1444259788
   22      C      -3.6322320212     3.9840955264     0.7050369490
   23      C      -0.3555338998     6.5008252046    -0.9573430158
   24      C      -1.4049045122     5.9392821826    -0.3322264250
   25      N      -4.1448608303     3.2094540795     1.6102951071
   26      S      -4.6324705393     5.2155474811     0.0145871026
   27      C      -5.4933626973     3.5390839880     1.7993528711
   28      C      -5.8602034444     4.3864247880     0.8477902432
   29      C       8.4364038839    -2.1866694842    -2.7526959170
   30      H       8.0380731910     0.5353268572    -3.1046470169
   31      H       5.7966595364     1.6565858649    -3.0693615157
   32      H       4.2002545441    -2.0585693317    -1.5973608482
   33      H       4.3452688557     2.5375905525    -1.6193419185
   34      H      -0.0877939034     7.5171760983    -1.2134116694
   35      H      -2.2740826945     6.4662073949     0.0453369578
   36      H      -6.0645051572     3.1176540453     2.6161362536
   37      H      -6.8758943401     4.7517984497     0.7801434269
   38      H       8.3100620998    -3.2493209838    -2.9957032090
   39      C       9.2595891613    -2.0700592797    -1.4260184659
   40      H       9.0283452959    -1.7235286823    -3.5530595609
   41      H       9.6000214799    -1.0268884031    -1.4001464967
   42      H      10.1620118673    -2.6878281821    -1.5138867925
   43      C       8.4494103987    -2.1857492066    -0.1141586360
   44      H       7.5870780776    -1.5078535152    -0.1505784034
   45      C       9.2756374474    -1.9061595919     1.1545838562
   46      H       7.9897917758    -3.1812000858    -0.1323868690
   47      H      10.0269107026    -2.7049661214     1.1458876277
   48      H       8.5153858091    -2.0945238689     1.9220304965
   49      C       9.8355281326    -0.5001717990     1.3133501839
   50      H      10.5453337975    -0.4026177266     0.4823212306
   51      C      10.7536415771    -0.3261417984     2.5123498761
   52      H       8.9988013506     0.2011039495     1.4208565409
   53      H      10.0927662169    -0.3822206116     3.3858479729
   54      H      11.2519163457     0.6504501662     2.4733064430
   55      H      11.5159437484    -1.0709631488     2.7731976393
   56      C      -7.4152646626    -3.8054988064     0.0967926188
   57      C      -6.4746243852    -3.8182084740    -0.9260129996
   58      N      -7.1889351535    -3.1982655605     1.2466503223
   59      C      -5.1599940671    -3.3981509566    -0.7453702339
   60      C      -5.8880453039    -2.8443275644     1.4684441321
   61      C      -4.7896388623    -2.9395312850     0.5341007580
   62      C      -3.3567454913    -2.4684820458     0.8148269621
   63      C      -2.2485149462    -3.2261698403     0.3646233805
   64      C      -3.1079349597    -1.3678847457     1.6101589068
   65      N      -0.9571173824    -2.8925922198     0.5830479746
   66      N      -4.0391434884    -0.5769859050     2.1154100324
   67      C      -1.7635449629    -1.1056650545     1.8920567076
   68      C      -0.6826627924    -1.8598737979     1.3975590789
   69      S      -3.2774099900     0.3881950912     3.0972291206
   70      N      -1.7008020175    -0.1176832003     2.7957519984
   71      C       0.7603258693    -1.5395007905     1.7020288775
   72      S       1.3307684340     0.1599654424     1.9434575488
   73      C       1.8009520307    -2.3550285844     1.3952902108
   74      C       3.0399214142    -0.3078815250     1.4958077911
   75      S       1.7707179977    -4.0345295492     0.9145434870
   76      C       3.0471331901    -1.6955855213     1.2642163212
   77      C       4.1875706382     0.5139556285     1.4742218786
   78      C       3.5717319080    -3.9623265894     0.8154645910
   79      C       4.0564693655    -2.6499606540     0.9568832918
   80      N       5.2197865671     0.0774434680     0.7213650463
   81      S       4.1795601228     2.2363499932     1.8052905788
   82      C       6.1449267329     1.0944309831     0.7017929294
   83      C       5.8605951427     2.1680076269     1.4445571831
   84      C      -8.8465570397    -4.1845205153    -0.1551174354
   85      H      -6.8186483919    -4.2458370011    -1.8638420488
   86      H      -4.3449498098    -3.5441407762    -1.4476777386
   87      H      -5.7221380305    -2.3255907644     2.4115373984
   88      H      -2.3316099665    -4.1011657646    -0.2782540184
   89      H       4.1671803106    -4.8232285305     0.5418461567
   90      H       5.0660719156    -2.2808315886     0.8188563955
   91      H       7.1070320861     0.9042323010     0.2446947445
   92      H       6.4792951767     3.0546786462     1.4327346803
   93      H      -8.8051433971    -4.9087985839    -0.9774264950
   94      C      -9.7265911548    -2.9737964350    -0.5110642822
   95      H      -9.2516255127    -4.7660398652     0.6827565276
   96      H      -9.7141406226    -2.2102508171     0.2765790848
   97      H     -10.7809053324    -3.2691851470    -0.4481188792
   98      C      -9.4534001681    -2.3753559937    -1.9344457219
   99      H      -8.5543561663    -1.7601158798    -1.8057814875
  100      C     -10.5755611968    -1.4851940910    -2.4883305590
  101      H      -9.0992917685    -3.1498786753    -2.6253262160
  102      H     -11.4050195382    -2.1437507053    -2.7750691957
  103      H     -10.1636976805    -1.0877250923    -3.4233090823
  104      C     -11.2045530046    -0.3626210007    -1.6019046103
  105      H     -11.5204856850    -0.7974651570    -0.6454465082
  106      C     -12.4832818993     0.2131406909    -2.2657576727
  107      H     -10.5693518342     0.5306105052    -1.5484915975
  108      H     -12.2328000711     0.5963023795    -3.2627140279
  109      H     -12.8548463291     1.0079581118    -1.6079741659
  110      H     -13.2337021099    -0.5808389303    -2.3640219530
 ----------------------------------------------------------------

   10   -5663.4596242230      4.86E-06 Convergence criterion met
 Total energy in the final basis set = -5663.4596242230

                    Orbital Energies (a.u.)
 --------------------------------------------------------------

 Alpha MOs
 -- Occupied --
-88.983 -88.978 -88.934 -88.925 -88.924 -88.922 -88.910 -88.906
-14.381 -14.379 -14.374 -14.373 -14.351 -14.346 -14.342 -14.342
-14.326 -14.317 -10.266 -10.266 -10.263 -10.261 -10.252 -10.249
-10.245 -10.245 -10.243 -10.242 -10.241 -10.239 -10.237 -10.235
-10.228 -10.228 -10.227 -10.227 -10.225 -10.224 -10.224 -10.224
-10.223 -10.222 -10.221 -10.219 -10.219 -10.216 -10.213 -10.209
-10.209 -10.207 -10.207 -10.202 -10.202 -10.198 -10.194 -10.193
-10.182 -10.181 -10.179 -10.179 -10.178 -10.178 -10.178 -10.177
-10.173 -10.171 -10.169 -10.167  -8.038  -8.034  -7.996  -7.986
 -7.981  -7.979  -7.969  -7.965  -6.003  -5.999  -5.997  -5.996
 -5.993  -5.992  -5.960  -5.957  -5.953  -5.949  -5.946  -5.945
 -5.944  -5.942  -5.942  -5.940  -5.937  -5.936  -5.933  -5.930
 -5.930  -5.927  -5.925  -5.921  -1.042  -1.036  -0.983  -0.970
 -0.960  -0.948  -0.946  -0.939  -0.906  -0.904  -0.902  -0.900
 -0.835  -0.833  -0.831  -0.829  -0.820  -0.810  -0.803  -0.802
 -0.801  -0.799  -0.797  -0.795  -0.780  -0.779  -0.764  -0.763
 -0.748  -0.745  -0.738  -0.736  -0.721  -0.716  -0.708  -0.708
 -0.692  -0.691  -0.675  -0.669  -0.651  -0.647  -0.642  -0.640
 -0.634  -0.629  -0.627  -0.623  -0.612  -0.611  -0.601  -0.597
 -0.595  -0.585  -0.583  -0.581  -0.575  -0.575  -0.557  -0.552
 -0.548  -0.545  -0.536  -0.534  -0.525  -0.521  -0.517  -0.510
 -0.502  -0.500  -0.494  -0.491  -0.484  -0.483  -0.476  -0.474
 -0.472  -0.471  -0.469  -0.466  -0.462  -0.457  -0.450  -0.446
 -0.445  -0.443  -0.439  -0.433  -0.433  -0.431  -0.429  -0.428
 -0.426  -0.425  -0.419  -0.418  -0.417  -0.414  -0.413  -0.412
 -0.409  -0.406  -0.406  -0.402  -0.400  -0.396  -0.395  -0.393
 -0.392  -0.391  -0.390  -0.387  -0.384  -0.382  -0.382  -0.380
 -0.377  -0.375  -0.375  -0.372  -0.360  -0.356  -0.355  -0.353
 -0.351  -0.350  -0.348  -0.345  -0.343  -0.341  -0.339  -0.335
 -0.334  -0.333  -0.330  -0.328  -0.325  -0.325  -0.319  -0.318
 -0.313  -0.309  -0.309  -0.306  -0.304  -0.302  -0.301  -0.299
 -0.295  -0.292  -0.289  -0.286  -0.285  -0.282  -0.279  -0.278
 -0.274  -0.270  -0.260  -0.259  -0.252  -0.252  -0.250  -0.245
 -0.242  -0.241  -0.230  -0.227  -0.193  -0.192

          Ground-State Mulliken Net Atomic Charges

     Atom                 Charge (a.u.)
  ----------------------------------------
      1 C                     0.250822
      2 C                    -0.120739
      3 N                    -0.454475
      4 C                    -0.101233
      5 C                     0.086044
      6 C                     0.064081
      7 C                     0.051128
      8 C                     0.040287
      9 C                     0.217759
     10 N                    -0.512986
     11 N                    -0.535952
     12 C                     0.205150
     13 C                     0.278663
     14 S                     0.629774
     15 N                    -0.572971
     16 C                    -0.218306
     17 S                     0.346003
     18 C                    -0.120340
     19 C                    -0.209116
     20 S                     0.258952
     21 C                     0.158532
     22 C                     0.039531
     23 C                    -0.310702
     24 C                    -0.058800
     25 N                    -0.430254
     26 S                     0.289521
     27 C                     0.121650
     28 C                    -0.295821
     29 C                    -0.224677
     30 H                     0.095476
     31 H                     0.093618
     32 H                     0.128812
     33 H                     0.108540
     34 H                     0.136719
     35 H                     0.091270
     36 H                     0.123624
     37 H                     0.119289
     38 H                     0.108506
     39 C                    -0.177952
     40 H                     0.085359
     41 H                     0.086918
     42 H                     0.090947
     43 C                    -0.192554
     44 H                     0.114111
     45 C                    -0.173425
     46 H                     0.096567
     47 H                     0.089045
     48 H                     0.091133
     49 C                    -0.172184
     50 H                     0.098854
     51 C                    -0.320289
     52 H                     0.098006
     53 H                     0.098557
     54 H                     0.096465
     55 H                     0.104026
     56 C                     0.272779
     57 C                    -0.109817
     58 N                    -0.467695
     59 C                    -0.076780
     60 C                     0.072951
     61 C                     0.033533
     62 C                     0.023155
     63 C                     0.038507
     64 C                     0.240865
     65 N                    -0.523625
     66 N                    -0.545852
     67 C                     0.230700
     68 C                     0.312320
     69 S                     0.636847
     70 N                    -0.581738
     71 C                    -0.219595
     72 S                     0.316218
     73 C                    -0.113317
     74 C                    -0.240470
     75 S                     0.279693
     76 C                     0.161960
     77 C                     0.049071
     78 C                    -0.312896
     79 C                    -0.071654
     80 N                    -0.440367
     81 S                     0.295110
     82 C                     0.113268
     83 C                    -0.293126
     84 C                    -0.230937
     85 H                     0.083288
     86 H                     0.097022
     87 H                     0.108023
     88 H                     0.112540
     89 H                     0.135767
     90 H                     0.145002
     91 H                     0.113902
     92 H                     0.122812
     93 H                     0.087752
     94 C                    -0.172035
     95 H                     0.110164
     96 H                     0.117643
     97 H                     0.085670
     98 C                    -0.184313
     99 H                     0.101522
    100 C                    -0.174379
    101 H                     0.085852
    102 H                     0.088640
    103 H                     0.087711
    104 C                    -0.177403
    105 H                     0.101102
    106 C                    -0.316614
    107 H                     0.097217
    108 H                     0.103051
    109 H                     0.098904
    110 H                     0.101090
  ----------------------------------------
  Sum of atomic charges =     0.000000

                    Cartesian Multipole Moments
 -----------------------------------------------------------------
    Charge (ESU x 10^10)
                 0.0000
    Dipole Moment (Debye)
         X      -0.5035      Y       3.7083      Z      -1.6097
       Tot       4.0738
    Quadrupole Moments (Debye-Ang)
        XX    -407.7197     XY      -0.1965     YY    -419.1327
        XZ      -0.8403     YZ       4.9090     ZZ    -450.7055

 Total job time:  120.94s(wall), 1300.95s(cpu)
        *  Thank you very much for using Q-Chem.  Have a nice day.  *
