 Q-Chem 4.4, Q-Chem, Inc., Pleasanton, CA (2016)
 Q-Chem 4.4.2 for Intel X86 Linux

User input:
--------------------------------------------------------------
$comment
SP
$end

$rem
MEM_STATIC 5000
MEM_TOTAL 20000
JOBTYPE SP
EXCHANGE B3LYP
BASIS 6-31g(d,p)
$end

$molecule
0 1
C          -6.228000     22.657000      8.395000
C          -5.796000     21.953000      7.284000
N          -5.869000     23.932000      8.632000
C          -4.978000     22.621000      6.367000
C          -5.011000     24.537000      7.775000
C          -4.580000     23.934000      6.586000
C          -3.700000     24.704000      5.652000
C          -4.025000     24.824000      4.236000
C          -2.586000     25.520000      6.062000
N          -3.318000     25.565000      3.367000
N          -1.985000     25.444000      7.252000
C          -1.826000     26.216000      5.136000
C          -2.210000     26.270000      3.741000
S          -0.605000     26.281000      7.205000
N          -0.696000     26.730000      5.628000
C          -1.494000     26.994000      2.714000
S          -0.935000     28.665000      2.800000
C          -1.456000     26.565000      1.397000
C          -0.579000     28.722000      1.076000
S          -2.024000     25.124000      0.661000
C          -0.905000     27.521000      0.501000
C          -0.154000     29.838000      0.371000
C          -1.165000     25.682000     -0.852000
C          -0.616000     26.992000     -0.734000
N           0.140000     30.843000      1.125000
S           0.323000     30.015000     -1.350000
C           0.769000     31.865000      0.384000
C           0.995000     31.593000     -0.914000
C          -6.852000     22.015000      9.640000
H          -6.019000     20.891000      7.241000
H          -4.656000     22.057000      5.498000
H          -4.783000     25.597000      7.873000
H          -4.827000     24.210000      3.829000
H          -0.964000     25.046000     -1.705000
H           0.032000     27.322000     -1.538000
H           1.104000     32.722000      0.953000
H           1.460000     32.267000     -1.621000
H          -7.665000     22.529000     10.169000
C          -5.873000     21.794000     10.750000
H          -7.299000     21.050000      9.373000
H          -5.679000     22.818000     11.094000
H          -4.947000     21.386000     10.326000
C          -6.356000     20.855000     11.857000
H          -7.337000     21.225000     12.180000
C          -5.282000     20.673000     12.933000
H          -6.554000     19.877000     11.400000
H          -4.252000     20.528000     12.586000
H          -5.563000     19.752000     13.459000
C          -5.293000     21.842000     13.937000
H          -4.857000     22.695000     13.402000
C          -4.571000     21.497000     15.275000
H          -6.323000     22.167000     14.131000
H          -3.501000     21.317000     15.112000
H          -5.010000     20.653000     15.821000
H          -4.655000     22.417000     15.867000
C         -10.599000     12.945000      3.249000
C          -9.703000     12.676000      2.235000
N         -10.646000     14.125000      3.846000
C          -8.650000     13.638000      2.021000
C          -9.703000     15.009000      3.668000
C          -8.615000     14.791000      2.781000
C          -7.384000     15.723000      2.688000
C          -6.589000     15.900000      1.579000
C          -7.024000     16.551000      3.770000
N          -5.517000     16.666000      1.466000
N          -7.730000     16.651000      4.954000
C          -5.950000     17.404000      3.713000
C          -5.163000     17.442000      2.508000
S          -6.844000     17.660000      5.933000
N          -5.697000     18.125000      4.825000
C          -3.984000     18.319000      2.413000
S          -3.633000     19.871000      3.267000
C          -2.815000     17.925000      1.723000
C          -1.942000     19.872000      2.685000
S          -2.602000     16.520000      0.785000
C          -1.702000     18.797000      1.912000
C          -0.930000     20.846000      3.062000
C          -0.833000     17.007000      0.639000
C          -0.535000     18.188000      1.277000
N           0.319000     20.430000      2.927000
S          -1.238000     22.353000      3.858000
C           1.116000     21.300000      3.571000
C           0.497000     22.389000      4.095000
C         -11.809000     12.051000      3.499000
H          -9.859000     11.757000      1.678000
H          -7.862000     13.541000      1.281000
H          -9.859000     15.909000      4.260000
H          -6.757000     15.249000      0.722000
H          -0.087000     16.383000      0.165000
H           0.494000     18.500000      1.412000
H           2.180000     21.122000      3.650000
H           0.922000     23.208000      4.661000
H         -11.700000     11.096000      2.970000
C         -13.221000     12.687000      3.297000
H         -11.700000     11.751000      4.548000
H         -13.455000     12.823000      2.234000
H         -13.175000     13.688000      3.743000
C         -14.271000     11.897000      4.131000
H         -14.116000     10.855000      3.824000
C         -15.717000     12.459000      3.991000
H         -14.035000     11.848000      5.201000
H         -15.907000     12.694000      2.937000
H         -15.767000     13.406000      4.542000
C         -16.794000     11.510000      4.494000
H         -17.700000     11.823000      3.961000
C         -17.019000     11.617000      6.048000
H         -16.684000     10.469000      4.164000
H         -18.025000     11.270000      6.315000
H         -16.828000     12.622000      6.445000
H         -16.350000     10.936000      6.588000
$end

--------------------------------------------------------------

             Standard Nuclear Orientation (Angstroms)
    I     Atom           X                Y                Z
 ----------------------------------------------------------------
    1      C      -0.4348266392    -4.6808042388     1.0734288230
    2      C      -0.5864291340    -3.3817558441     0.6195004676
    3      N       0.7549077212    -5.1850455700     1.4488590181
    4      C       0.5497790698    -2.5668330879     0.5853124735
    5      C       1.8581104180    -4.4065583370     1.3324999272
    6      C       1.7952566678    -3.0584408084     0.9560433759
    7      C       3.0513211495    -2.2451087775     0.9348531598
    8      C       3.1291792022    -0.9595101330     1.6176820175
    9      C       4.3142585703    -2.7020740428     0.4141576464
   10      N       4.2496380989    -0.2233467334     1.6996961019
   11      N       4.4664941293    -3.7467208072    -0.4035308469
   12      C       5.4385869350    -1.8930567720     0.4436327865
   13      C       5.4262107633    -0.6184393604     1.1303600137
   14      S       5.9647314824    -3.7367009177    -1.0054963242
   15      N       6.4632265814    -2.3500738063    -0.2805281247
   16      C       6.5588044849     0.2746802425     1.2358580557
   17      S       8.2000622795    -0.1594586217     1.7153518494
   18      C       6.4115983420     1.6510248999     1.2989432010
   19      C       8.6789925079     1.5247811829     1.9054126731
   20      S       5.0283784729     2.6489688758     1.1211466478
   21      C       7.6103380998     2.3385887772     1.6315569526
   22      C       9.9031891987     1.9725059058     2.3786895845
   23      C       6.1785378897     4.0684819350     1.1441681745
   24      C       7.5257287925     3.6938463165     1.4201207516
   25      N      10.7755991903     1.0326252137     2.5218750979
   26      S      10.5492458715     3.6389864225     2.5404068156
   27      C      12.0536995114     1.5648545749     2.7909428892
   28      C      12.1411774357     2.9073188126     2.7897668037
   29      C      -1.4750165576    -5.7919223499     0.8863820987
   30      H      -1.5510799636    -3.1000489460     0.2077821167
   31      H       0.4110921606    -1.5494038711     0.2352485790
   32      H       2.8172235431    -4.7398524213     1.7251894566
   33      H       2.2132839961    -0.5165789180     2.0060077959
   34      H       5.9080676540     5.0732907619     0.8446501068
   35      H       8.2789905390     4.4642546581     1.3005894643
   36      H      12.8579667826     0.8451155529     2.8655411241
   37      H      13.0421252262     3.4740843477     2.9832090613
   38      H      -1.6291696101    -6.5336692905     1.6807713689
   39      C      -1.1982622030    -6.6746328589    -0.2898879317
   40      H      -2.4702725330    -5.3487514869     0.7623331990
   41      H      -0.3192573618    -7.2390378890     0.0467802300
   42      H      -0.9057847372    -6.0459243196    -1.1401223138
   43      C      -2.3693399642    -7.5600928686    -0.7200000666
   44      H      -2.7121140948    -8.0893874208     0.1777433112
   45      C      -2.0001845101    -8.4078981149    -1.9403797268
   46      H      -3.2002258767    -6.8995090557    -0.9989169476
   47      H      -1.4477696638    -7.9063153457    -2.7438637423
   48      H      -2.9612453377    -8.7149286959    -2.3716247942
   49      C      -1.2148291501    -9.6681647247    -1.5285022804
   50      H      -0.2124518654    -9.3153913795    -1.2551513227
   51      C      -1.2198687021   -10.7710373719    -2.6304095030
   52      H      -1.6062240417   -10.0686548791    -0.5847975199
   53      H      -0.6941847294   -10.4318788772    -3.5317955891
   54      H      -2.2183766358   -11.1370230125    -2.8991276028
   55      H      -0.6221558730   -11.5825424737    -2.1966828105
   56      C     -10.0618417614     2.1533632443     0.3491114538
   57      C      -9.6032168133     3.3087106305    -0.2493938296
   58      N      -9.2378921696     1.2759329212     0.8988760383
   59      C      -8.1830395481     3.4052338548    -0.4814041802
   60      C      -7.9501111460     1.3435906264     0.7003024494
   61      C      -7.3514815006     2.3888754468    -0.0527308779
   62      C      -5.8627111503     2.3998164878    -0.4723463419
   63      C      -5.1022307750     3.5202902943    -0.7161557915
   64      C      -5.1313073773     1.1987554202    -0.5640460297
   65      N      -3.8375730261     3.5720711567    -1.0991290550
   66      N      -5.6296480759    -0.0523980019    -0.2532990870
   67      C      -3.8041204660     1.1750550278    -0.9138276673
   68      C      -3.1456170193     2.4217688868    -1.2052307634
   69      S      -4.4249434642    -1.1330843271    -0.6305547894
   70      N      -3.2253492037    -0.0413858815    -0.9892553806
   71      C      -1.7312771437     2.4418925114    -1.6144162422
   72      S      -0.4068596121     1.2748452288    -1.2334440093
   73      C      -1.2471640499     3.3532738389    -2.5802917975
   74      C       0.6896676284     2.0495538870    -2.4148247717
   75      S      -2.1044759764     4.6359677001    -3.3006741400
   76      C       0.0872887158     3.0938915043    -3.0125308756
   77      C       2.0194427438     1.5711117039    -2.7579577199
   78      C      -0.6339109381     4.8794945446    -4.3804792817
   79      C       0.3940901337     4.0067565909    -4.1118694147
   80      N       2.4640985766     1.9661822796    -3.9401093305
   81      S       2.9176177982     0.3865397938    -1.8693633460
   82      C       3.5482372789     1.2305041720    -4.2405523302
   83      C       3.9642377306     0.3727474503    -3.2736733147
   84      C     -11.5279734430     1.9849524273     0.7337303415
   85      H     -10.3496129674     4.0556156359    -0.5027151552
   86      H      -7.6891840356     4.2404282353    -0.9677271999
   87      H      -7.4116374674     0.5279166707     1.1793870927
   88      H      -5.6069667950     4.4853987105    -0.7329276484
   89      H      -0.6137548356     5.5877824656    -5.1980916303
   90      H       1.2441517015     3.9302651609    -4.7796675819
   91      H       4.0411310358     1.3363506776    -5.1975650060
   92      H       4.7933796915    -0.3229413910    -3.2904853562
   93      H     -12.1461122735     2.7481267843     0.2446329206
   94      C     -11.8552704764     1.8363530856     2.2535457538
   95      H     -11.8313252373     1.0691408605     0.2126268365
   96      H     -11.7546750747     2.7911063897     2.7841564336
   97      H     -11.0967445427     1.1609897333     2.6677386441
   98      C     -13.2170908262     1.1021629460     2.4225610606
   99      H     -13.9040642998     1.6804229041     1.7919099150
  100      C     -13.6310157569     0.9085046355     3.9116959136
  101      H     -13.2489332980     0.1189107903     1.9375886332
  102      H     -13.4271030882     1.8351888119     4.4611657132
  103      H     -12.9863121830     0.1338318229     4.3443035131
  104      C     -15.0921772899     0.5285084508     4.0964900535
  105      H     -15.3257416405     0.8440313120     5.1205930846
  106      C     -15.3413546344    -1.0174796766     3.9389420897
  107      H     -15.8026348805     1.1227952743     3.5076316805
  108      H     -16.2561090500    -1.3146170808     4.4668319665
  109      H     -14.4858396757    -1.6282731268     4.2538079606
  110      H     -15.5413568101    -1.2768752375     2.8922162074
 ----------------------------------------------------------------

   10   -5663.5164839967      3.79E-06 Convergence criterion met
 Total energy in the final basis set = -5663.5164839967

                    Orbital Energies (a.u.)
 --------------------------------------------------------------

 Alpha MOs
 -- Occupied --
-88.992 -88.990 -88.932 -88.928 -88.928 -88.924 -88.916 -88.911
-14.389 -14.383 -14.382 -14.378 -14.353 -14.351 -14.343 -14.339
-14.329 -14.318 -10.271 -10.267 -10.267 -10.265 -10.257 -10.255
-10.254 -10.254 -10.246 -10.244 -10.243 -10.238 -10.237 -10.235
-10.235 -10.234 -10.234 -10.231 -10.230 -10.229 -10.228 -10.228
-10.227 -10.227 -10.226 -10.226 -10.221 -10.220 -10.217 -10.215
-10.213 -10.213 -10.211 -10.208 -10.207 -10.201 -10.200 -10.200
-10.182 -10.179 -10.177 -10.177 -10.177 -10.175 -10.174 -10.174
-10.173 -10.172 -10.172 -10.170  -8.047  -8.045  -7.993  -7.988
 -7.986  -7.983  -7.975  -7.970  -6.013  -6.010  -6.007  -6.005
 -6.005  -6.003  -5.957  -5.954  -5.952  -5.951  -5.950  -5.949
 -5.948  -5.947  -5.945  -5.944  -5.943  -5.940  -5.940  -5.936
 -5.935  -5.932  -5.931  -5.926  -1.044  -1.028  -0.982  -0.973
 -0.966  -0.954  -0.949  -0.939  -0.915  -0.908  -0.903  -0.895
 -0.844  -0.838  -0.834  -0.832  -0.814  -0.814  -0.810  -0.810
 -0.805  -0.801  -0.799  -0.797  -0.785  -0.782  -0.768  -0.767
 -0.753  -0.748  -0.745  -0.741  -0.721  -0.719  -0.714  -0.707
 -0.698  -0.692  -0.679  -0.676  -0.653  -0.651  -0.647  -0.645
 -0.636  -0.636  -0.630  -0.630  -0.614  -0.610  -0.601  -0.596
 -0.595  -0.591  -0.584  -0.582  -0.579  -0.577  -0.565  -0.564
 -0.553  -0.545  -0.541  -0.539  -0.527  -0.525  -0.520  -0.512
 -0.511  -0.508  -0.504  -0.498  -0.492  -0.484  -0.479  -0.478
 -0.472  -0.470  -0.468  -0.462  -0.457  -0.456  -0.451  -0.450
 -0.447  -0.441  -0.438  -0.438  -0.437  -0.434  -0.433  -0.432
 -0.430  -0.427  -0.426  -0.420  -0.420  -0.419  -0.416  -0.415
 -0.414  -0.410  -0.405  -0.404  -0.401  -0.401  -0.400  -0.398
 -0.396  -0.396  -0.394  -0.391  -0.390  -0.386  -0.385  -0.380
 -0.378  -0.374  -0.374  -0.370  -0.366  -0.361  -0.358  -0.357
 -0.355  -0.353  -0.350  -0.347  -0.346  -0.343  -0.342  -0.341
 -0.339  -0.336  -0.334  -0.334  -0.332  -0.328  -0.323  -0.315
 -0.313  -0.310  -0.310  -0.305  -0.304  -0.302  -0.302  -0.300
 -0.297  -0.296  -0.292  -0.290  -0.288  -0.286  -0.285  -0.284
 -0.277  -0.275  -0.267  -0.266  -0.259  -0.254  -0.252  -0.244
 -0.242  -0.241  -0.236  -0.233  -0.198  -0.196

          Ground-State Mulliken Net Atomic Charges

     Atom                 Charge (a.u.)
  ----------------------------------------
      1 C                     0.265053
      2 C                    -0.113388
      3 N                    -0.483628
      4 C                    -0.097206
      5 C                     0.102940
      6 C                     0.051265
      7 C                    -0.006832
      8 C                     0.071406
      9 C                     0.224425
     10 N                    -0.503663
     11 N                    -0.532050
     12 C                     0.189416
     13 C                     0.267303
     14 S                     0.601084
     15 N                    -0.563372
     16 C                    -0.204161
     17 S                     0.350650
     18 C                    -0.088311
     19 C                    -0.215085
     20 S                     0.284106
     21 C                     0.131229
     22 C                     0.090358
     23 C                    -0.307085
     24 C                    -0.090450
     25 N                    -0.442204
     26 S                     0.251049
     27 C                     0.120785
     28 C                    -0.307717
     29 C                    -0.219016
     30 H                     0.097327
     31 H                     0.115405
     32 H                     0.106321
     33 H                     0.118541
     34 H                     0.126231
     35 H                     0.129924
     36 H                     0.116088
     37 H                     0.137851
     38 H                     0.110231
     39 C                    -0.166714
     40 H                     0.076209
     41 H                     0.118492
     42 H                     0.086034
     43 C                    -0.180651
     44 H                     0.091186
     45 C                    -0.166437
     46 H                     0.083867
     47 H                     0.094464
     48 H                     0.083288
     49 C                    -0.177562
     50 H                     0.100058
     51 C                    -0.319302
     52 H                     0.091377
     53 H                     0.102611
     54 H                     0.105894
     55 H                     0.100532
     56 C                     0.264519
     57 C                    -0.123562
     58 N                    -0.469326
     59 C                    -0.088726
     60 C                     0.098709
     61 C                     0.036615
     62 C                     0.069354
     63 C                     0.036513
     64 C                     0.227141
     65 N                    -0.510281
     66 N                    -0.567120
     67 C                     0.218591
     68 C                     0.272135
     69 S                     0.597478
     70 N                    -0.574974
     71 C                    -0.201446
     72 S                     0.312140
     73 C                    -0.123505
     74 C                    -0.263465
     75 S                     0.272605
     76 C                     0.183416
     77 C                     0.056173
     78 C                    -0.308994
     79 C                    -0.039157
     80 N                    -0.431173
     81 S                     0.290649
     82 C                     0.142992
     83 C                    -0.320543
     84 C                    -0.226413
     85 H                     0.092288
     86 H                     0.095744
     87 H                     0.122694
     88 H                     0.101059
     89 H                     0.123907
     90 H                     0.131897
     91 H                     0.113123
     92 H                     0.133411
     93 H                     0.084489
     94 C                    -0.171554
     95 H                     0.112992
     96 H                     0.091824
     97 H                     0.122936
     98 C                    -0.178296
     99 H                     0.085155
    100 C                    -0.177881
    101 H                     0.096989
    102 H                     0.086981
    103 H                     0.096822
    104 C                    -0.175283
    105 H                     0.089875
    106 C                    -0.323505
    107 H                     0.094061
    108 H                     0.101621
    109 H                     0.104951
    110 H                     0.105189
  ----------------------------------------
  Sum of atomic charges =     0.000000

                    Cartesian Multipole Moments
 -----------------------------------------------------------------
    Charge (ESU x 10^10)
                 0.0000
    Dipole Moment (Debye)
         X       2.0301      Y       2.4896      Z      -2.6799
       Tot       4.1834
    Quadrupole Moments (Debye-Ang)
        XX    -393.7873     XY       9.7528     YY    -432.8327
        XZ       0.0444     YZ       2.5622     ZZ    -444.5203

 Total job time:  92.25s(wall), 1004.50s(cpu)
        *  Thank you very much for using Q-Chem.  Have a nice day.  *
