 Q-Chem 4.4, Q-Chem, Inc., Pleasanton, CA (2016)
 Q-Chem 4.4.2 for Intel X86 Linux

User input:
--------------------------------------------------------------
$comment
SP
$end

$rem
MEM_STATIC 5000
MEM_TOTAL 20000
JOBTYPE SP
EXCHANGE B3LYP
BASIS 6-31g(d,p)
$end

$molecule
0 1
C          11.657000     11.567000      1.569000
C          10.556000     11.708000      0.751000
N          11.552000     11.690000      2.871000
C           9.301000     12.059000      1.255000
C          10.317000     11.924000      3.433000
C           9.149000     12.129000      2.685000
C           7.832000     12.454000      3.346000
C           6.951000     13.288000      2.622000
C           7.248000     11.793000      4.484000
N           5.686000     13.575000      3.067000
N           7.843000     10.876000      5.183000
C           5.961000     11.991000      4.881000
C           5.216000     12.986000      4.160000
S           6.767000     10.331000      6.257000
N           5.534000     11.254000      5.878000
C           3.938000     13.530000      4.674000
S           2.667000     13.860000      3.632000
C           3.664000     13.797000      5.962000
C           1.691000     14.400000      4.977000
S           4.743000     13.844000      7.363000
C           2.407000     14.326000      6.139000
C           0.339000     14.941000      4.981000
C           3.356000     14.419000      8.264000
C           2.262000     14.618000      7.497000
N          -0.301000     14.761000      3.822000
S          -0.426000     16.072000      6.150000
C          -1.523000     15.402000      3.875000
C          -1.765000     16.160000      4.948000
C          13.046000     11.201000      0.998000
H          10.673000     11.575000     -0.321000
H           8.405000     12.091000      0.643000
H          10.384000     12.087000      4.508000
H           7.263000     13.830000      1.730000
H           3.419000     14.578000      9.332000
H           1.328000     15.003000      7.892000
H          -2.185000     15.142000      3.060000
H          -2.632000     16.770000      5.164000
H          13.174000     11.832000      0.109000
C          13.292000      9.785000      0.489000
H          13.808000     11.456000      1.745000
H          14.251000      9.607000     -0.013000
H          12.563000      9.547000     -0.295000
C          13.124000      8.709000      1.639000
H          13.911000      8.877000      2.384000
C          13.057000      7.241000      1.146000
H          12.225000      8.952000      2.217000
H          12.334000      7.155000      0.325000
H          12.809000      6.599000      2.001000
C          14.439000      6.752000      0.524000
H          14.671000      7.386000     -0.341000
C          14.392000      5.326000      0.026000
H          15.269000      6.909000      1.224000
H          15.418000      4.938000      0.023000
H          13.953000      5.242000     -0.976000
H          13.816000      4.835000      0.820000
C         -10.599000     12.945000      3.249000
C          -9.703000     12.676000      2.235000
N         -10.646000     14.125000      3.846000
C          -8.650000     13.638000      2.021000
C          -9.703000     15.009000      3.668000
C          -8.615000     14.791000      2.781000
C          -7.384000     15.723000      2.688000
C          -6.589000     15.900000      1.579000
C          -7.024000     16.551000      3.770000
N          -5.517000     16.666000      1.466000
N          -7.730000     16.651000      4.954000
C          -5.950000     17.404000      3.713000
C          -5.163000     17.442000      2.508000
S          -6.844000     17.660000      5.933000
N          -5.697000     18.125000      4.825000
C          -3.984000     18.319000      2.413000
S          -3.633000     19.871000      3.267000
C          -2.815000     17.925000      1.723000
C          -1.942000     19.872000      2.685000
S          -2.602000     16.520000      0.785000
C          -1.702000     18.797000      1.912000
C          -0.930000     20.846000      3.062000
C          -0.833000     17.007000      0.639000
C          -0.535000     18.188000      1.277000
N           0.319000     20.430000      2.927000
S          -1.238000     22.353000      3.858000
C           1.116000     21.300000      3.571000
C           0.497000     22.389000      4.095000
C         -11.809000     12.051000      3.499000
H          -9.859000     11.757000      1.678000
H          -7.862000     13.541000      1.281000
H          -9.859000     15.909000      4.260000
H          -6.757000     15.249000      0.722000
H          -0.087000     16.383000      0.165000
H           0.494000     18.500000      1.412000
H           2.180000     21.122000      3.650000
H           0.922000     23.208000      4.661000
H         -11.700000     11.096000      2.970000
C         -13.221000     12.687000      3.297000
H         -11.700000     11.751000      4.548000
H         -13.455000     12.823000      2.234000
H         -13.175000     13.688000      3.743000
C         -14.271000     11.897000      4.131000
H         -14.116000     10.855000      3.824000
C         -15.717000     12.459000      3.991000
H         -14.035000     11.848000      5.201000
H         -15.907000     12.694000      2.937000
H         -15.767000     13.406000      4.542000
C         -16.794000     11.510000      4.494000
H         -17.700000     11.823000      3.961000
C         -17.019000     11.617000      6.048000
H         -16.684000     10.469000      4.164000
H         -18.025000     11.270000      6.315000
H         -16.828000     12.622000      6.445000
H         -16.350000     10.936000      6.588000
$end

--------------------------------------------------------------

             Standard Nuclear Orientation (Angstroms)
    I     Atom           X                Y                Z
 ----------------------------------------------------------------
    1      C     -12.1245608181     0.3954253255    -1.4121471779
    2      C     -11.0620545941     0.5185179845    -2.2822820648
    3      N     -11.9295328520     0.2640683726    -0.1213848282
    4      C      -9.7369522000     0.4354844937    -1.8470222751
    5      C     -10.6462331394     0.2893317580     0.3769409780
    6      C      -9.5010307006     0.3626970450    -0.4285910877
    7      C      -8.1131099092     0.3143859926     0.1616435427
    8      C      -7.1108320340    -0.2889876613    -0.6303616938
    9      C      -7.6284850632     1.0563992839     1.2963576187
   10      N      -5.7927828444    -0.3058522762    -0.2521013091
   11      N      -8.3710553363     1.8035567992     2.0538931207
   12      C      -6.3106233173     1.1324162441     1.6289893076
   13      C      -5.4060714857     0.3423176461     0.8400525614
   14      S      -7.3848896032     2.5409593387     3.0988771596
   15      N      -6.0026496261     1.9181737930     2.6326049112
   16      C      -4.0163904684     0.0756977798     1.2772213126
   17      S      -2.7587052690     0.0571842509     0.1690741255
   18      C      -3.6262067978    -0.1590819577     2.5413194805
   19      C      -1.6221861987    -0.2929468219     1.4492825596
   20      S      -4.5970980208    -0.4761296661     3.9856539237
   21      C      -2.2773488733    -0.4067884414     2.6435094875
   22      C      -0.1868852226    -0.5271835336     1.3741475428
   23      C      -3.0747922879    -0.7594665356     4.8032727066
   24      C      -2.0040082386    -0.6958265372     3.9822383162
   25      N       0.3395154371    -0.1820907639     0.1955490846
   26      S       0.8624658650    -1.4952158228     2.4662660263
   27      C       1.6721146607    -0.5434341356     0.1713772605
   28      C       2.1261208677    -1.2586243465     1.2042559204
   29      C     -13.5869678411     0.4657380302    -1.9078686949
   30      H     -11.2592649723     0.6509921798    -3.3425276280
   31      H      -8.8874067465     0.6149902642    -2.4985084228
   32      H     -10.6218202754     0.0875278403     1.4471569333
   33      H      -7.3434103796    -0.8622401380    -1.5270561296
   34      H      -3.0476973758    -0.9563147121     5.8664710235
   35      H      -0.9901183632    -0.8789213825     4.3215163707
   36      H       2.2201710257    -0.1245240507    -0.6618199320
   37      H       3.1141375060    -1.6711268246     1.3595293184
   38      H     -13.6207677564    -0.1544573471    -2.8128997771
   39      C     -14.1582159885     1.8073139996    -2.3534048577
   40      H     -14.2370677109     0.0317630979    -1.1379895372
   41      H     -15.1572523684     1.7858017284    -2.8059891411
   42      H     -13.5385056047     2.2185015588    -3.1593979292
   43      C     -14.1681769722     2.8635665419    -1.1732644653
   44      H     -14.8615282346     2.5091032123    -0.4011001209
   45      C     -14.4446188731     4.3234687847    -1.6146569404
   46      H     -13.2097647621     2.8066245938    -0.6445512631
   47      H     -13.7998410422     4.5860079772    -2.4628908239
   48      H     -14.2979036320     4.9813621392    -0.7484329670
   49      C     -15.9293285943     4.5166584400    -2.1570993804
   50      H     -16.0626756725     3.8703098313    -3.0337161910
   51      C     -16.2164645946     5.9313645220    -2.6041436948
   52      H     -16.6692682154     4.1647660830    -1.4275720497
   53      H     -17.3008119470     6.0871150666    -2.5479157024
   54      H     -15.8573795732     6.1349943472    -3.6206936649
   55      H     -15.7204246617     6.5147840760    -1.8187399713
   56      C       9.9604198977     3.8423966167    -0.7618889984
   57      C       8.9771880543     3.9367966867    -1.7250695468
   58      N      10.2911648953     2.6855539264    -0.2111252228
   59      C       8.1470860204     2.7749418138    -1.9277339679
   60      C       9.5533243323     1.6227639556    -0.3798195667
   61      C       8.4003203859     1.6223525856    -1.2096501099
   62      C       7.3963162267     0.4479219056    -1.2826036993
   63      C       6.6029811175     0.1315702863    -2.3613882271
   64      C       7.2788583402    -0.4666059698    -0.2168877849
   65      N       5.7171889562    -0.8458134510    -2.4552086782
   66      N       8.0489825734    -0.4418440255     0.9305386883
   67      C       6.4127307181    -1.5307841458    -0.2578969560
   68      C       5.5923311770    -1.7072490266    -1.4277870101
   69      S       7.4524341239    -1.6445681308     1.9098765637
   70      N       6.3780470684    -2.3184445636     0.8369921300
   71      C       4.6270647350    -2.8166623283    -1.5030055040
   72      S       4.6630232581    -4.4297031601    -0.6918167099
   73      C       3.3671020853    -2.6681068188    -2.1261606868
   74      C       2.9847568874    -4.7828217437    -1.1987045228
   75      S       2.8086267965    -1.3188412019    -3.0018465019
   76      C       2.4795332465    -3.7657508127    -1.9205561656
   77      C       2.2272283204    -5.9629798572    -0.8135729901
   78      C       1.1812986960    -2.1745622245    -3.0878161744
   79      C       1.1779231477    -3.4084154088    -2.4810180819
   80      N       0.9126853669    -5.8248975657    -0.8783194498
   81      S       2.8931395383    -7.3874071017    -0.0875576494
   82      C       0.3559238726    -6.8638666601    -0.2322506769
   83      C       1.2210989448    -7.8057201946     0.2238655518
   84      C      10.9601162580     4.9710675221    -0.5326616560
   85      H       8.9027392502     4.8820237033    -2.2543608301
   86      H       7.3201901158     2.7177897551    -2.6283977997
   87      H       9.9296891798     0.7629475314     0.1714201436
   88      H       6.5828288884     0.8257705658    -3.2005269877
   89      H       0.2951530667    -1.7153415437    -3.5054646990
   90      H       0.2486935641    -3.9399673373    -2.3125101345
   91      H      -0.7160040537    -6.9234326621    -0.1001771664
   92      H       1.0121195502    -8.7120539653     0.7776062029
   93      H      10.6209134581     5.8931099626    -1.0210530958
   94      C      12.4639642656     4.6625736916    -0.8195705729
   95      H      10.8423536812     5.2125962226     0.5303895481
   96      H      12.6675207656     4.6085957420    -1.8960798075
   97      H      12.6577343380     3.6641461609    -0.4089264145
   98      C      13.3597293548     5.6396832804    -0.0040843643
   99      H      12.9681696950     6.6307989077    -0.2656352123
  100      C      14.8839124499     5.4091565524    -0.2278773945
  101      H      13.1733497386     5.6081520957     1.0763162203
  102      H      15.0663813651     5.2487824301    -1.2970949756
  103      H      15.1649736951     4.4815239802     0.2853597705
  104      C      15.7548945275     6.5559604528     0.2617857902
  105      H      16.6788325357     6.4613786456    -0.3215553095
  106      C      16.0762787679     6.4596782880     1.7994567286
  107      H      15.4062635453     7.5564809249    -0.0247385946
  108      H      16.9959375706     7.0098397300     2.0345823851
  109      H      16.1270312568     5.4271284047     2.1673968371
  110      H      15.3043981984     6.9646493022     2.3928593417
 ----------------------------------------------------------------

   11   -5663.5107630596      6.94E-06 Convergence criterion met
 Total energy in the final basis set = -5663.5107630596

                    Orbital Energies (a.u.)
 --------------------------------------------------------------

 Alpha MOs
 -- Occupied --
-88.990 -88.989 -88.933 -88.927 -88.922 -88.921 -88.910 -88.909
-14.390 -14.384 -14.383 -14.375 -14.352 -14.349 -14.344 -14.330
-14.327 -14.319 -10.271 -10.268 -10.262 -10.260 -10.255 -10.254
-10.252 -10.249 -10.244 -10.242 -10.241 -10.237 -10.233 -10.231
-10.229 -10.229 -10.228 -10.228 -10.227 -10.226 -10.225 -10.224
-10.224 -10.222 -10.221 -10.220 -10.218 -10.218 -10.217 -10.217
-10.213 -10.211 -10.210 -10.200 -10.200 -10.198 -10.196 -10.195
-10.186 -10.183 -10.182 -10.179 -10.177 -10.177 -10.174 -10.174
-10.174 -10.173 -10.172 -10.169  -8.046  -8.045  -7.995  -7.985
 -7.982  -7.980  -7.969  -7.969  -6.011  -6.010  -6.005  -6.005
 -6.003  -6.003  -5.958  -5.955  -5.952  -5.950  -5.946  -5.946
 -5.945  -5.942  -5.941  -5.941  -5.939  -5.937  -5.934  -5.934
 -5.931  -5.930  -5.926  -5.925  -1.067  -1.029  -0.983  -0.966
 -0.959  -0.952  -0.949  -0.941  -0.926  -0.920  -0.907  -0.895
 -0.856  -0.837  -0.832  -0.831  -0.815  -0.814  -0.810  -0.800
 -0.799  -0.797  -0.795  -0.787  -0.782  -0.781  -0.767  -0.767
 -0.748  -0.746  -0.741  -0.741  -0.732  -0.719  -0.710  -0.707
 -0.697  -0.692  -0.676  -0.676  -0.654  -0.653  -0.649  -0.647
 -0.636  -0.633  -0.630  -0.629  -0.610  -0.610  -0.601  -0.596
 -0.592  -0.591  -0.585  -0.581  -0.579  -0.574  -0.566  -0.560
 -0.553  -0.550  -0.541  -0.535  -0.526  -0.525  -0.520  -0.512
 -0.508  -0.506  -0.501  -0.498  -0.490  -0.484  -0.481  -0.479
 -0.469  -0.467  -0.465  -0.462  -0.456  -0.456  -0.448  -0.447
 -0.445  -0.440  -0.438  -0.437  -0.435  -0.434  -0.432  -0.431
 -0.428  -0.427  -0.422  -0.420  -0.416  -0.414  -0.413  -0.410
 -0.409  -0.409  -0.405  -0.404  -0.401  -0.401  -0.400  -0.397
 -0.396  -0.395  -0.392  -0.391  -0.386  -0.385  -0.383  -0.379
 -0.378  -0.375  -0.374  -0.369  -0.363  -0.362  -0.359  -0.357
 -0.354  -0.353  -0.352  -0.351  -0.349  -0.345  -0.344  -0.340
 -0.339  -0.337  -0.334  -0.333  -0.330  -0.326  -0.322  -0.316
 -0.315  -0.313  -0.310  -0.305  -0.303  -0.302  -0.301  -0.299
 -0.296  -0.296  -0.293  -0.290  -0.287  -0.285  -0.282  -0.278
 -0.277  -0.274  -0.267  -0.266  -0.254  -0.252  -0.250  -0.244
 -0.243  -0.242  -0.235  -0.233  -0.197  -0.194

          Ground-State Mulliken Net Atomic Charges

     Atom                 Charge (a.u.)
  ----------------------------------------
      1 C                     0.297381
      2 C                    -0.118514
      3 N                    -0.485062
      4 C                    -0.074213
      5 C                     0.067894
      6 C                     0.034763
      7 C                     0.039911
      8 C                     0.037151
      9 C                     0.249905
     10 N                    -0.499062
     11 N                    -0.545695
     12 C                     0.204464
     13 C                     0.247258
     14 S                     0.596165
     15 N                    -0.527975
     16 C                    -0.203198
     17 S                     0.349829
     18 C                    -0.111516
     19 C                    -0.221089
     20 S                     0.248593
     21 C                     0.173126
     22 C                     0.048926
     23 C                    -0.293835
     24 C                    -0.082679
     25 N                    -0.443752
     26 S                     0.245906
     27 C                     0.149972
     28 C                    -0.324731
     29 C                    -0.227106
     30 H                     0.087766
     31 H                     0.107130
     32 H                     0.113625
     33 H                     0.117933
     34 H                     0.128733
     35 H                     0.102912
     36 H                     0.121619
     37 H                     0.141580
     38 H                     0.095570
     39 C                    -0.179597
     40 H                     0.117133
     41 H                     0.102176
     42 H                     0.085392
     43 C                    -0.179047
     44 H                     0.092648
     45 C                    -0.177466
     46 H                     0.101331
     47 H                     0.091914
     48 H                     0.090455
     49 C                    -0.181379
     50 H                     0.088751
     51 C                    -0.311371
     52 H                     0.091914
     53 H                     0.100233
     54 H                     0.104070
     55 H                     0.102251
     56 C                     0.265029
     57 C                    -0.123979
     58 N                    -0.469680
     59 C                    -0.088714
     60 C                     0.098774
     61 C                     0.037585
     62 C                     0.069345
     63 C                     0.035698
     64 C                     0.228645
     65 N                    -0.510173
     66 N                    -0.567078
     67 C                     0.220313
     68 C                     0.266756
     69 S                     0.601488
     70 N                    -0.579931
     71 C                    -0.197770
     72 S                     0.304726
     73 C                    -0.121902
     74 C                    -0.255220
     75 S                     0.259503
     76 C                     0.184191
     77 C                     0.064398
     78 C                    -0.300058
     79 C                    -0.037023
     80 N                    -0.426657
     81 S                     0.277181
     82 C                     0.143673
     83 C                    -0.315283
     84 C                    -0.226858
     85 H                     0.092808
     86 H                     0.096166
     87 H                     0.122407
     88 H                     0.101867
     89 H                     0.130470
     90 H                     0.135576
     91 H                     0.116040
     92 H                     0.130723
     93 H                     0.084747
     94 C                    -0.171055
     95 H                     0.113159
     96 H                     0.091823
     97 H                     0.122684
     98 C                    -0.178682
     99 H                     0.085410
    100 C                    -0.177756
    101 H                     0.097032
    102 H                     0.086917
    103 H                     0.096605
    104 C                    -0.174954
    105 H                     0.089687
    106 C                    -0.323432
    107 H                     0.094111
    108 H                     0.101579
    109 H                     0.104745
    110 H                     0.105251
  ----------------------------------------
  Sum of atomic charges =     0.000000

                    Cartesian Multipole Moments
 -----------------------------------------------------------------
    Charge (ESU x 10^10)
                 0.0000
    Dipole Moment (Debye)
         X      -0.7684      Y      -1.0930      Z       0.7695
       Tot       1.5419
    Quadrupole Moments (Debye-Ang)
        XX    -457.1493     XY       0.8082     YY    -417.1723
        XZ      15.4738     YZ     -16.4327     ZZ    -426.0861

 Total job time:  104.34s(wall), 1142.02s(cpu)
        *  Thank you very much for using Q-Chem.  Have a nice day.  *
