 Q-Chem 4.4, Q-Chem, Inc., Pleasanton, CA (2016)
 Q-Chem 4.4.2 for Intel X86 Linux

User input:
--------------------------------------------------------------
$comment
SP
$end

$rem
MEM_STATIC 5000
MEM_TOTAL 20000
JOBTYPE SP
EXCHANGE B3LYP
BASIS 6-31g(d,p)
$end

$molecule
0 1
C           2.323000     19.230000     10.867000
C           3.662000     19.577000     10.754000
N           1.738000     18.394000     10.026000
C           4.456000     19.046000      9.744000
C           2.446000     17.848000      9.017000
C           3.830000     18.183000      8.770000
C           4.577000     17.637000      7.588000
C           5.826000     17.042000      7.759000
C           4.143000     17.737000      6.240000
N           6.632000     16.673000      6.748000
N           2.903000     18.234000      5.878000
C           4.944000     17.368000      5.163000
C           6.258000     16.895000      5.461000
S           2.830000     18.082000      4.253000
N           4.348000     17.546000      3.953000
C           7.256000     16.456000      4.502000
S           8.670000     15.639000      5.086000
C           7.531000     17.024000      3.248000
C           9.481000     15.646000      3.471000
S           6.598000     17.994000      2.190000
C           8.722000     16.515000      2.675000
C          10.874000     15.324000      3.262000
C           7.866000     17.891000      0.963000
C           8.874000     17.022000      1.347000
N          11.404000     15.434000      2.047000
S          12.014000     14.874000      4.539000
C          12.706000     15.188000      2.053000
C          13.215000     14.790000      3.249000
C           1.327000     19.895000     11.871000
H           4.110000     20.295000     11.435000
H           5.474000     19.414000      9.651000
H           1.881000     17.200000      8.349000
H           6.124000     17.032000      8.806000
H           7.668000     18.528000      0.111000
H           9.771000     16.774000      0.792000
H          13.203000     15.107000      1.095000
H          14.233000     14.466000      3.418000
H           1.580000     20.963000     11.872000
C           1.476000     19.369000     13.242000
H           0.283000     19.803000     11.547000
H           1.043000     20.061000     13.975000
H           2.557000     19.384000     13.428000
C           0.898000     17.897000     13.448000
H          -0.188000     17.963000     13.311000
C           0.874000     17.395000     14.870000
H           1.220000     17.143000     12.720000
H           0.533000     18.145000     15.593000
H           1.909000     17.220000     15.190000
C          -0.037000     16.127000     15.076000
H          -1.112000     16.245000     14.889000
C           0.004000     15.592000     16.567000
H           0.199000     15.379000     14.310000
H          -0.338000     14.551000     16.635000
H          -0.538000     16.215000     17.288000
H           1.045000     15.511000     16.903000
C         -10.599000     12.945000      3.249000
C          -9.703000     12.676000      2.235000
N         -10.646000     14.125000      3.846000
C          -8.650000     13.638000      2.021000
C          -9.703000     15.009000      3.668000
C          -8.615000     14.791000      2.781000
C          -7.384000     15.723000      2.688000
C          -6.589000     15.900000      1.579000
C          -7.024000     16.551000      3.770000
N          -5.517000     16.666000      1.466000
N          -7.730000     16.651000      4.954000
C          -5.950000     17.404000      3.713000
C          -5.163000     17.442000      2.508000
S          -6.844000     17.660000      5.933000
N          -5.697000     18.125000      4.825000
C          -3.984000     18.319000      2.413000
S          -3.633000     19.871000      3.267000
C          -2.815000     17.925000      1.723000
C          -1.942000     19.872000      2.685000
S          -2.602000     16.520000      0.785000
C          -1.702000     18.797000      1.912000
C          -0.930000     20.846000      3.062000
C          -0.833000     17.007000      0.639000
C          -0.535000     18.188000      1.277000
N           0.319000     20.430000      2.927000
S          -1.238000     22.353000      3.858000
C           1.116000     21.300000      3.571000
C           0.497000     22.389000      4.095000
C         -11.809000     12.051000      3.499000
H          -9.859000     11.757000      1.678000
H          -7.862000     13.541000      1.281000
H          -9.859000     15.909000      4.260000
H          -6.757000     15.249000      0.722000
H          -0.087000     16.383000      0.165000
H           0.494000     18.500000      1.412000
H           2.180000     21.122000      3.650000
H           0.922000     23.208000      4.661000
H         -11.700000     11.096000      2.970000
C         -13.221000     12.687000      3.297000
H         -11.700000     11.751000      4.548000
H         -13.455000     12.823000      2.234000
H         -13.175000     13.688000      3.743000
C         -14.271000     11.897000      4.131000
H         -14.116000     10.855000      3.824000
C         -15.717000     12.459000      3.991000
H         -14.035000     11.848000      5.201000
H         -15.907000     12.694000      2.937000
H         -15.767000     13.406000      4.542000
C         -16.794000     11.510000      4.494000
H         -17.700000     11.823000      3.961000
C         -17.019000     11.617000      6.048000
H         -16.684000     10.469000      4.164000
H         -18.025000     11.270000      6.315000
H         -16.828000     12.622000      6.445000
H         -16.350000     10.936000      6.588000
$end

--------------------------------------------------------------

             Standard Nuclear Orientation (Angstroms)
    I     Atom           X                Y                Z
 ----------------------------------------------------------------
    1      C      -3.3306038266    -5.8207464052    -1.3130310862
    2      C      -4.6944538568    -5.6396208939    -1.4952552457
    3      N      -2.5861079654    -4.9509365746    -0.6515488331
    4      C      -5.3441528756    -4.5260529122    -0.9752989637
    5      C      -3.1488031841    -3.8434853340    -0.1277293599
    6      C      -4.5470932278    -3.5247882549    -0.3063550169
    7      C      -5.1374652746    -2.2426578238     0.2043811225
    8      C      -6.3027263318    -2.2604900252     0.9693096689
    9      C      -4.6370305872    -0.9473363631    -0.0908601979
   10      N      -6.9861493289    -1.1604546465     1.3309354045
   11      N      -3.4553885793    -0.7299056896    -0.7779548545
   12      C      -5.3113563605     0.2178247407     0.2632236250
   13      C      -6.5653899616     0.0672677474     0.9294528043
   14      S      -3.2603807640     0.8918735911    -0.8073132729
   15      N      -4.6699744177     1.3563980861    -0.1152997434
   16      C      -7.4324630295     1.1369949354     1.3901848720
   17      S      -8.7568252045     0.7429813749     2.4384019981
   18      C      -7.7023323481     2.3484463724     0.7341963305
   19      C      -9.4580630389     2.4070487454     2.3667062089
   20      S      -6.8444597847     3.2349913202    -0.4527517394
   21      C      -8.7750620657     3.0564376677     1.3290831087
   22      C     -10.7787405734     2.7513318889     2.8411468975
   23      C      -8.0071112125     4.5592686622    -0.3167621116
   24      C      -8.9103977851     4.3377762906     0.7097345991
   25      N     -11.2412336164     3.9871578573     2.6736376114
   26      S     -11.9254408907     1.6136392072     3.5647232545
   27      C     -12.4957436260     4.1038696464     3.0839289642
   28      C     -13.0204491621     2.9935290368     3.6667915818
   29      C      -2.4989216392    -6.9565240947    -1.9916847381
   30      H      -5.2774480835    -6.3498206866    -2.0746713190
   31      H      -6.3946976333    -4.3912418361    -1.2173293044
   32      H      -2.4604093289    -3.1617760538     0.3689992959
   33      H      -6.6619212547    -3.2760026825     1.1268725142
   34      H      -7.8439108315     5.3291022989    -1.0594590939
   35      H      -9.7288700032     4.9806222919     1.0113804957
   36      H     -12.9159331007     5.1003049224     3.1274208736
   37      H     -13.9938418672     2.9342500579     4.1346095427
   38      H      -2.8936695677    -7.0400233202    -3.0123883936
   39      C      -2.6613502145    -8.2557922168    -1.3104819014
   40      H      -1.4337746372    -6.7057374600    -2.0687816133
   41      H      -2.3729638022    -9.0822638648    -1.9718591706
   42      H      -3.7439795278    -8.3594519265    -1.1671276737
   43      C      -1.9035997102    -8.3640095814     0.0885917833
   44      H      -0.8300704732    -8.3170845213    -0.1301638246
   45      C      -1.9014224231    -9.7293677377     0.7292604686
   46      H      -2.0741541024    -7.5450505636     0.7973945249
   47      H      -1.7112248878   -10.5444308315     0.0214419533
   48      H      -2.9212889781    -9.9514233573     1.0681018946
   49      C      -0.8420054001    -9.8824045351     1.8844211977
   50      H       0.2167569273    -9.7899707891     1.6105666071
   51      C      -0.9039767983   -11.3081484655     2.5731887859
   52      H      -0.9259434681    -9.0328551494     2.5722992698
   53      H      -0.4292210268   -11.3024892791     3.5630594496
   54      H      -0.4977189871   -12.1244402322     1.9646196916
   55      H      -1.9435027609   -11.5545860581     2.8217693284
   56      C      10.7765427374     1.3545738629     2.4308209232
   57      C       9.9907846802     2.4549148319     2.7050599202
   58      N      10.6257752059     0.6459923166     1.3234820665
   59      C       8.8328680445     2.6558769632     1.8690621412
   60      C       9.5849161012     0.8102745981     0.5540584795
   61      C       8.5944151102     1.7943358181     0.8159139782
   62      C       7.2569369752     1.8916262687     0.0449919286
   63      C       6.5166748584     3.0360537643    -0.1435092797
   64      C       6.7208385940     0.7662333684    -0.6122731213
   65      N       5.3601373514     3.1568986634    -0.7732127856
   66      N       7.3308950807    -0.4722510330    -0.6776907826
   67      C       5.5470270046     0.8233575430    -1.3216652422
   68      C       4.8395253423     2.0757055133    -1.3841469131
   69      S       6.2566760373    -1.4725791992    -1.4567382823
   70      N       5.1293214930    -0.3297675442    -1.8839984520
   71      C       3.5610331808     2.1762600939    -2.1077086377
   72      S       2.9502123020     1.2074756776    -3.5039806775
   73      C       2.5018582207     2.9877402342    -1.6412910290
   74      C       1.3146364493     1.9138970554    -3.3488469705
   75      S       2.5403890985     4.0688676594    -0.3264081970
   76      C       1.2714321765     2.8018641039    -2.3386975203
   77      C       0.1584467625     1.5240077573    -4.1401501635
   78      C       0.7344864614     4.3021727155    -0.5949792607
   79      C       0.2398668672     3.5790937094    -1.6547515041
   80      N      -1.0117801493     1.7928288972    -3.5837454820
   81      S       0.2089854965     0.5668582091    -5.5826617159
   82      C      -1.9581061026     1.1314623078    -4.2721540994
   83      C      -1.5263713296     0.4604176330    -5.3707723817
   84      C      12.0782343862     1.0994354351     3.1833760602
   85      H      10.3044443171     3.0834503411     3.5331340388
   86      H       8.1133840380     3.4596425826     1.9884631189
   87      H       9.5801312678     0.1250348677    -0.2916504640
   88      H       6.8248135280     3.9358907125     0.3873560771
   89      H       0.1111052549     4.8889519429     0.0665749772
   90      H      -0.8283244511     3.4937841323    -1.8163051591
   91      H      -2.9910764468     1.1511015406    -3.9518299377
   92      H      -2.0930534200    -0.1470202874    -6.0647699186
   93      H      12.1329708968     1.7238060971     4.0838826903
   94      C      13.4010729567     1.1317066538     2.3538577150
   95      H      11.9450390015     0.0951734038     3.6028981239
   96      H      13.6809415006     2.1559684015     2.0785715542
   97      H      13.1920705420     0.5971437139     1.4191955012
   98      C      14.4937337051     0.2992139287     3.0854343355
   99      H      14.5007879599     0.7150408393     4.1008535681
  100      C      15.8563034675     0.2744101166     2.3310150798
  101      H      14.1996745249    -0.7401347364     3.2759088770
  102      H      16.0787020341     1.2836569154     1.9646808382
  103      H      15.7429257618    -0.3665374649     1.4482684040
  104      C      17.0180061977    -0.2164601747     3.1813280362
  105      H      17.9050471523     0.2136820746     2.7006722441
  106      C      17.1282184995    -1.7861909873     3.2094069298
  107      H      17.0708685618     0.2186702249     4.1875825298
  108      H      18.1531066039    -2.0947886513     3.4504584910
  109      H      16.7783819625    -2.2614513197     2.2842815253
  110      H      16.5248796366    -2.2062692950     4.0233101378
 ----------------------------------------------------------------

   10   -5663.5266930881      3.22E-06 Convergence criterion met
 Total energy in the final basis set = -5663.5266930881

                    Orbital Energies (a.u.)
 --------------------------------------------------------------

 Alpha MOs
 -- Occupied --
-88.991 -88.987 -88.934 -88.928 -88.926 -88.920 -88.910 -88.907
-14.387 -14.386 -14.382 -14.380 -14.351 -14.350 -14.346 -14.338
-14.327 -14.317 -10.273 -10.272 -10.266 -10.266 -10.259 -10.257
-10.252 -10.251 -10.244 -10.243 -10.242 -10.240 -10.237 -10.235
-10.232 -10.232 -10.230 -10.230 -10.229 -10.228 -10.227 -10.226
-10.226 -10.224 -10.224 -10.224 -10.222 -10.220 -10.219 -10.219
-10.216 -10.212 -10.211 -10.210 -10.201 -10.200 -10.199 -10.197
-10.182 -10.182 -10.182 -10.181 -10.176 -10.176 -10.175 -10.174
-10.174 -10.173 -10.173 -10.172  -8.046  -8.042  -7.995  -7.989
 -7.984  -7.980  -7.970  -7.969  -6.011  -6.007  -6.005  -6.004
 -6.001  -5.999  -5.959  -5.956  -5.953  -5.952  -5.949  -5.948
 -5.946  -5.945  -5.944  -5.940  -5.940  -5.936  -5.934  -5.933
 -5.931  -5.929  -5.926  -5.925  -1.032  -1.025  -0.984  -0.975
 -0.964  -0.958  -0.948  -0.942  -0.911  -0.907  -0.896  -0.892
 -0.847  -0.837  -0.830  -0.830  -0.816  -0.809  -0.808  -0.805
 -0.802  -0.799  -0.798  -0.796  -0.781  -0.781  -0.768  -0.766
 -0.748  -0.748  -0.740  -0.739  -0.722  -0.720  -0.711  -0.706
 -0.697  -0.691  -0.674  -0.674  -0.652  -0.649  -0.645  -0.645
 -0.635  -0.631  -0.629  -0.628  -0.612  -0.610  -0.597  -0.596
 -0.592  -0.591  -0.581  -0.581  -0.579  -0.578  -0.571  -0.565
 -0.553  -0.551  -0.544  -0.539  -0.525  -0.520  -0.512  -0.511
 -0.507  -0.507  -0.502  -0.497  -0.486  -0.483  -0.478  -0.476
 -0.474  -0.467  -0.465  -0.461  -0.458  -0.455  -0.447  -0.446
 -0.441  -0.439  -0.438  -0.436  -0.434  -0.433  -0.432  -0.432
 -0.429  -0.428  -0.421  -0.419  -0.417  -0.415  -0.414  -0.413
 -0.412  -0.409  -0.403  -0.402  -0.402  -0.400  -0.400  -0.398
 -0.395  -0.393  -0.391  -0.390  -0.386  -0.385  -0.383  -0.382
 -0.378  -0.377  -0.373  -0.373  -0.366  -0.361  -0.359  -0.354
 -0.351  -0.350  -0.349  -0.346  -0.344  -0.343  -0.339  -0.338
 -0.337  -0.336  -0.334  -0.331  -0.331  -0.329  -0.322  -0.314
 -0.312  -0.308  -0.307  -0.305  -0.303  -0.302  -0.300  -0.299
 -0.297  -0.296  -0.293  -0.292  -0.290  -0.287  -0.284  -0.282
 -0.277  -0.276  -0.266  -0.264  -0.255  -0.252  -0.250  -0.243
 -0.242  -0.241  -0.236  -0.235  -0.197  -0.194

          Ground-State Mulliken Net Atomic Charges

     Atom                 Charge (a.u.)
  ----------------------------------------
      1 C                     0.277808
      2 C                    -0.114418
      3 N                    -0.471803
      4 C                    -0.073521
      5 C                     0.091398
      6 C                    -0.002534
      7 C                     0.021373
      8 C                     0.078903
      9 C                     0.207354
     10 N                    -0.532961
     11 N                    -0.546895
     12 C                     0.251664
     13 C                     0.292131
     14 S                     0.624962
     15 N                    -0.575780
     16 C                    -0.215054
     17 S                     0.320335
     18 C                    -0.137395
     19 C                    -0.213056
     20 S                     0.289468
     21 C                     0.128303
     22 C                     0.046024
     23 C                    -0.321554
     24 C                    -0.049579
     25 N                    -0.420315
     26 S                     0.270180
     27 C                     0.136443
     28 C                    -0.312834
     29 C                    -0.210629
     30 H                     0.089629
     31 H                     0.106574
     32 H                     0.116531
     33 H                     0.109828
     34 H                     0.139044
     35 H                     0.124521
     36 H                     0.112316
     37 H                     0.128686
     38 H                     0.093398
     39 C                    -0.181805
     40 H                     0.117254
     41 H                     0.091429
     42 H                     0.087655
     43 C                    -0.176523
     44 H                     0.095302
     45 C                    -0.169150
     46 H                     0.108293
     47 H                     0.089096
     48 H                     0.087257
     49 C                    -0.186681
     50 H                     0.095964
     51 C                    -0.328288
     52 H                     0.095194
     53 H                     0.100212
     54 H                     0.106470
     55 H                     0.102107
     56 C                     0.264447
     57 C                    -0.123841
     58 N                    -0.469731
     59 C                    -0.088588
     60 C                     0.099086
     61 C                     0.036762
     62 C                     0.069494
     63 C                     0.036088
     64 C                     0.227871
     65 N                    -0.510717
     66 N                    -0.568477
     67 C                     0.219468
     68 C                     0.272508
     69 S                     0.602634
     70 N                    -0.570096
     71 C                    -0.193305
     72 S                     0.313010
     73 C                    -0.124574
     74 C                    -0.257527
     75 S                     0.273433
     76 C                     0.179835
     77 C                     0.065981
     78 C                    -0.308207
     79 C                    -0.045088
     80 N                    -0.440280
     81 S                     0.283422
     82 C                     0.146312
     83 C                    -0.314417
     84 C                    -0.226247
     85 H                     0.092055
     86 H                     0.095688
     87 H                     0.122810
     88 H                     0.100442
     89 H                     0.124803
     90 H                     0.129892
     91 H                     0.114073
     92 H                     0.131999
     93 H                     0.084367
     94 C                    -0.171663
     95 H                     0.112999
     96 H                     0.091702
     97 H                     0.122980
     98 C                    -0.178217
     99 H                     0.085179
    100 C                    -0.178576
    101 H                     0.097070
    102 H                     0.086944
    103 H                     0.096848
    104 C                    -0.174354
    105 H                     0.089527
    106 C                    -0.323769
    107 H                     0.093960
    108 H                     0.101458
    109 H                     0.104908
    110 H                     0.105286
  ----------------------------------------
  Sum of atomic charges =     0.000000

                    Cartesian Multipole Moments
 -----------------------------------------------------------------
    Charge (ESU x 10^10)
                 0.0000
    Dipole Moment (Debye)
         X      -3.6226      Y      -0.3123      Z      -1.4126
       Tot       3.9008
    Quadrupole Moments (Debye-Ang)
        XX    -411.6038     XY       1.6586     YY    -431.6743
        XZ      14.4651     YZ      16.9587     ZZ    -427.8797

 Total job time:  88.38s(wall), 949.17s(cpu)
        *  Thank you very much for using Q-Chem.  Have a nice day.  *
