 Q-Chem 4.4, Q-Chem, Inc., Pleasanton, CA (2016)
 Q-Chem 4.4.2 for Intel X86 Linux

User input:
--------------------------------------------------------------
$comment
SP
$end

$rem
MEM_STATIC 5000
MEM_TOTAL 20000
JOBTYPE SP
EXCHANGE B3LYP
BASIS 6-31g(d,p)
$end

$molecule
0 1
C           3.608000    -17.980000     -5.512000
C           2.907000    -18.600000     -4.379000
N           3.025000    -17.019000     -6.266000
C           1.611000    -18.138000     -4.090000
C           1.749000    -16.649000     -5.984000
C           0.996000    -17.187000     -4.923000
C          -0.341000    -16.688000     -4.646000
C          -0.680000    -15.269000     -4.724000
C          -1.385000    -17.590000     -4.264000
N          -1.884000    -14.777000     -4.383000
N          -1.270000    -18.937000     -4.235000
C          -2.616000    -17.067000     -3.815000
C          -2.797000    -15.649000     -3.906000
S          -2.710000    -19.399000     -3.634000
N          -3.530000    -17.971000     -3.424000
C          -3.974000    -14.927000     -3.344000
S          -4.971000    -15.524000     -2.036000
C          -4.405000    -13.623000     -3.497000
C          -5.912000    -14.050000     -1.728000
S          -3.809000    -12.490000     -4.652000
C          -5.483000    -13.171000     -2.725000
C          -6.800000    -13.772000     -0.682000
C          -5.155000    -11.344000     -4.171000
C          -5.985000    -11.900000     -3.178000
N          -7.190000    -12.517000     -0.560000
S          -7.041000    -14.841000      0.727000
C          -7.655000    -12.310000      0.682000
C          -7.715000    -13.401000      1.528000
C           5.038000    -18.339000     -5.879000
H           3.434000    -19.246000     -3.684000
H           1.079000    -18.617000     -3.274000
H           1.317000    -15.819000     -6.540000
H           0.091000    -14.573000     -5.052000
H          -5.295000    -10.437000     -4.743000
H          -6.911000    -11.422000     -2.881000
H          -7.819000    -11.266000      0.915000
H          -7.952000    -13.441000      2.583000
H           5.229000    -19.379000     -5.590000
C           6.058000    -17.358000     -5.217000
H           5.057000    -18.393000     -6.974000
H           7.019000    -17.885000     -5.263000
H           5.775000    -17.276000     -4.160000
C           6.163000    -15.956000     -5.858000
H           6.770000    -15.990000     -6.771000
C           6.837000    -14.934000     -4.893000
H           5.160000    -15.557000     -6.053000
H           7.893000    -15.227000     -4.842000
H           6.426000    -15.127000     -3.895000
C           6.628000    -13.461000     -5.312000
H           5.580000    -13.325000     -5.605000
C           7.513000    -13.067000     -6.523000
H           6.870000    -12.791000     -4.478000
H           7.201000    -12.167000     -7.068000
H           7.727000    -13.886000     -7.221000
H           8.542000    -12.865000     -6.200000
C           4.850000    -21.850000     -3.099000
C           5.830000    -22.670000     -3.652000
N           5.170000    -20.845000     -2.298000
C           7.194000    -22.318000     -3.558000
C           6.445000    -20.486000     -2.100000
C           7.504000    -21.204000     -2.748000
C           8.940000    -20.829000     -2.614000
C           9.884000    -21.829000     -2.219000
C           9.533000    -19.535000     -2.849000
N          11.178000    -21.602000     -1.970000
N           8.803000    -18.488000     -3.153000
C          10.834000    -19.313000     -2.659000
C          11.688000    -20.373000     -2.217000
S           9.896000    -17.201000     -3.175000
N          11.281000    -17.988000     -2.810000
C          13.138000    -20.191000     -2.000000
S          13.932000    -20.921000     -0.587000
C          14.054000    -19.509000     -2.697000
C          15.567000    -20.247000     -1.106000
S          13.762000    -19.000000     -4.309000
C          15.395000    -19.596000     -2.292000
C          16.858000    -20.589000     -0.569000
C          15.515000    -18.657000     -4.388000
C          16.246000    -19.154000     -3.337000
N          17.004000    -21.767000      0.005000
S          18.140000    -19.397000     -0.170000
C          18.302000    -21.880000      0.414000
C          19.050000    -20.717000      0.393000
C           3.381000    -22.113000     -3.171000
H           5.508000    -23.480000     -4.300000
H           7.975000    -22.823000     -4.119000
H           6.639000    -19.647000     -1.434000
H           9.546000    -22.862000     -2.284000
H          15.942000    -18.054000     -5.179000
H          17.326000    -19.141000     -3.245000
H          18.691000    -22.867000      0.623000
H          20.044000    -20.328000      0.568000
H           3.272000    -23.017000     -2.559000
C           2.698000    -22.216000     -4.614000
H           2.921000    -21.293000     -2.606000
H           3.008000    -23.015000     -5.299000
H           2.946000    -21.256000     -5.083000
C           1.205000    -22.409000     -4.455000
H           1.143000    -23.318000     -3.844000
C           0.432000    -22.786000     -5.787000
H           0.695000    -21.634000     -3.869000
H           0.910000    -23.600000     -6.345000
H           0.271000    -21.907000     -6.424000
C          -0.968000    -23.229000     -5.421000
H          -0.863000    -24.240000     -5.008000
C          -1.951000    -23.301000     -6.610000
H          -1.398000    -22.597000     -4.635000
H          -1.363000    -23.637000     -7.473000
H          -2.344000    -22.301000     -6.831000
H          -2.780000    -24.011000     -6.499000
$end

--------------------------------------------------------------

             Standard Nuclear Orientation (Angstroms)
    I     Atom           X                Y                Z
 ----------------------------------------------------------------
    1      C       0.8812706119    -0.5752472779     2.2767519910
    2      C       1.3622448230    -1.1335137999     1.0053384868
    3      N       1.7131599283     0.0704038533     3.1270582781
    4      C       2.7202243052    -0.9493566498     0.6913976168
    5      C       3.0292166223     0.1702150779     2.8066952069
    6      C       3.5836511391    -0.3348520878     1.6151904756
    7      C       4.9909620102    -0.1272341362     1.3157411505
    8      C       5.6742873599     1.1335288006     1.5952215320
    9      C       5.7628996141    -1.1693489304     0.7094630862
   10      N       6.9486573685     1.3774233876     1.2424361701
   11      N       5.3161523015    -2.4232984775     0.4717608101
   12      C       7.0669349351    -0.8831502429     0.2533126803
   13      C       7.5975781615     0.4119339115     0.5581746149
   14      S       6.5721584600    -3.1006091461    -0.3105075505
   15      N       7.7121965894    -1.8946634842    -0.3516429877
   16      C       8.8943790668     0.9210325130     0.0275306419
   17      S       9.6608271182     0.3453137741    -1.4361589830
   18      C       9.6411040814     2.0368081629     0.3546887868
   19      C      10.9256256055     1.5837624285    -1.5759828623
   20      S       9.3899349690     3.0561412568     1.7224622039
   21      C      10.7669714945     2.3487691227    -0.4182762367
   22      C      11.8138361619     1.8232421515    -2.6312910967
   23      C      10.9586744800     3.9156419430     1.3265986959
   24      C      11.5857943975     3.3630327667     0.1928312121
   25      N      12.4981134539     2.9506560018    -2.5792180918
   26      S      11.7274786468     0.9944283973    -4.2098135516
   27      C      12.9517069431     3.2576299293    -3.8046396333
   28      C      12.7063937333     2.3511841384    -4.8184317507
   29      C      -0.5778426894    -0.6429744899     2.6949282683
   30      H       0.6650154318    -1.5020919609     0.2596231823
   31      H       3.0848308891    -1.3888883456    -0.2317464279
   32      H       3.6748007882     0.7617216061     3.4532252618
   33      H       5.1133889656     1.9235372779     2.0929369097
   34      H      11.3413468092     4.6473011190     2.0249322398
   35      H      12.5892975477     3.6518851041    -0.0965038096
   36      H      13.3605815358     4.2569319576    -3.8777014128
   37      H      12.8852008730     2.4433850281    -5.8815973083
   38      H      -1.0319808261    -1.5396241168     2.2574582700
   39      C      -1.3471860985     0.6537017042     2.2853595115
   40      H      -0.5674264155    -0.8838777782     3.7645820005
   41      H      -2.4064041688     0.3708117967     2.3227276760
   42      H      -1.0936511162     0.8518307898     1.2362995141
   43      C      -1.0761445792     1.9041579621     3.1516190810
   44      H      -1.6369307973     1.8544212655     4.0930111771
   45      C      -1.5120835993     3.2113410384     2.4227743954
   46      H       0.0012483809     2.0121494469     3.3271105302
   47      H      -2.6089182468     3.1916959807     2.4103716631
   48      H      -1.2006306303     3.1059474918     1.3767996115
   49      C      -0.9280437333     4.4942263447     3.0568672322
   50      H       0.1314095876     4.3229915541     3.2824471677
   51      C      -1.6402044220     4.8666074281     4.3831935428
   52      H      -1.0281454213     5.3393013161     2.3648788330
   53      H      -1.0938239728     5.5554538759     5.0399491870
   54      H      -2.0237081286     4.0117603807     4.9540897091
   55      H      -2.5985340192     5.3614367221     4.1813957406
   56      C      -1.3744372202    -3.5486714756    -0.6236899955
   57      C      -2.5052231264    -4.1966235488    -0.1336998475
   58      N      -1.4656217696    -2.3709502963    -1.2225924933
   59      C      -3.7417573983    -3.5194049363    -0.0589071665
   60      C      -2.6182806827    -1.6898022589    -1.2561302503
   61      C      -3.7965564075    -2.2383698112    -0.6497896226
   62      C      -5.0986160659    -1.5149800705    -0.6047904085
   63      C      -6.2757738702    -2.1755743077    -1.0792119064
   64      C      -5.3423860672    -0.1797300539    -0.1159207126
   65      N      -7.4815511080    -1.6069436321    -1.1827802772
   66      N      -4.3642109007     0.5927571646     0.2939107659
   67      C      -6.5539055652     0.3753453785    -0.1617112172
   68      C      -7.6606517841    -0.3556355495    -0.6993539329
   69      S      -5.1019005654     2.0779464434     0.6125465528
   70      N      -6.6518998533     1.7203485550     0.2377866861
   71      C      -9.0273633454     0.2014554563    -0.7661530294
   72      S     -10.0315589958    -0.0567352267    -2.2100483396
   73      C      -9.7178641638     0.9472544153     0.1038938271
   74      C     -11.4268580980     0.8839373413    -1.4582920392
   75      S      -9.2467557518     1.0785449690     1.7481896201
   76      C     -11.0530807606     1.2547987703    -0.2002247507
   77      C     -12.7820550207     0.9594239289    -1.9376218587
   78      C     -10.8553849890     1.8090588781     2.0230721514
   79      C     -11.7268170134     1.6943226046     0.9678883692
   80      N     -13.2378724034    -0.0292691042    -2.6813910432
   81      S     -13.7424928499     2.4733657480    -2.0331642300
   82      C     -14.5380746442     0.2439255926    -2.9971326952
   83      C     -14.9726383310     1.5288148532    -2.7274514202
   84      C      -0.0150277683    -4.1619696269    -0.7141627529
   85      H      -2.3696028410    -5.1615023450     0.3462001909
   86      H      -4.6014334079    -3.9152655733     0.4739704129
   87      H      -2.6235004797    -0.7244834938    -1.7593652209
   88      H      -6.2024867753    -3.2540218899    -1.2101233808
   89      H     -11.0885452814     2.3464684128     2.9332623898
   90      H     -12.7725157002     1.9798850665     0.9667321259
   91      H     -15.1676275281    -0.5691786556    -3.3313416837
   92      H     -15.8449727789     2.1677110754    -2.7561956051
   93      H      -0.1574795287    -4.9429029169    -1.4714550957
   94      C       0.6761378439    -4.6782359001     0.6330960313
   95      H       0.6119650254    -3.3882198192    -1.1739630049
   96      H       0.2041743168    -5.4888487951     1.2022033705
   97      H       0.6924319795    -3.7854461326     1.2700622251
   98      C       2.0672469500    -5.1894950752     0.3248615251
   99      H       1.8780994350    -5.9642024123    -0.4284629465
  100      C       2.7732438033    -5.9691958199     1.5112498224
  101      H       2.7306587274    -4.4668959092    -0.1669273106
  102      H       2.1300473540    -6.7316951827     1.9665926048
  103      H       3.1717991331    -5.2807792558     2.2672705122
  104      C       4.0043065798    -6.6604500009     0.9664038832
  105      H       3.6358292655    -7.5279052555     0.4047448673
  106      C       4.9837580895    -7.1734939960     2.0446685072
  107      H       4.5470817735    -6.0199879819     0.2611922190
  108      H       4.3644811345    -7.5073189781     2.8863726917
  109      H       5.6208718268    -6.3510499905     2.3924643433
  110      H       5.6056873249    -8.0290832857     1.7534074671
 ----------------------------------------------------------------

   10   -5663.4942363278      4.24E-06 Convergence criterion met
 Total energy in the final basis set = -5663.4942363278

                    Orbital Energies (a.u.)
 --------------------------------------------------------------

 Alpha MOs
 -- Occupied --
-88.994 -88.990 -88.926 -88.924 -88.917 -88.916 -88.907 -88.901
-14.400 -14.398 -14.393 -14.386 -14.356 -14.355 -14.345 -14.340
-14.333 -14.329 -10.269 -10.269 -10.269 -10.266 -10.262 -10.261
-10.258 -10.255 -10.246 -10.242 -10.241 -10.239 -10.237 -10.236
-10.235 -10.233 -10.232 -10.231 -10.231 -10.231 -10.230 -10.228
-10.228 -10.227 -10.226 -10.225 -10.225 -10.224 -10.222 -10.222
-10.209 -10.208 -10.208 -10.207 -10.206 -10.204 -10.200 -10.199
-10.191 -10.188 -10.182 -10.181 -10.180 -10.179 -10.178 -10.176
-10.173 -10.172 -10.169 -10.168  -8.049  -8.046  -7.987  -7.986
 -7.976  -7.975  -7.969  -7.961  -6.013  -6.011  -6.008  -6.007
 -6.005  -6.003  -5.950  -5.949  -5.947  -5.946  -5.944  -5.943
 -5.940  -5.940  -5.936  -5.936  -5.933  -5.933  -5.931  -5.930
 -5.925  -5.924  -5.922  -5.917  -1.044  -1.040  -0.975  -0.973
 -0.961  -0.960  -0.952  -0.930  -0.918  -0.917  -0.908  -0.907
 -0.840  -0.836  -0.834  -0.832  -0.817  -0.815  -0.808  -0.807
 -0.801  -0.801  -0.798  -0.794  -0.791  -0.777  -0.769  -0.764
 -0.750  -0.745  -0.743  -0.733  -0.719  -0.711  -0.710  -0.706
 -0.692  -0.687  -0.675  -0.674  -0.663  -0.655  -0.648  -0.647
 -0.642  -0.635  -0.634  -0.624  -0.611  -0.608  -0.599  -0.597
 -0.595  -0.589  -0.584  -0.581  -0.577  -0.574  -0.573  -0.560
 -0.552  -0.550  -0.548  -0.536  -0.530  -0.527  -0.521  -0.510
 -0.510  -0.505  -0.503  -0.502  -0.491  -0.487  -0.481  -0.477
 -0.475  -0.473  -0.470  -0.469  -0.467  -0.456  -0.451  -0.447
 -0.445  -0.439  -0.438  -0.435  -0.435  -0.432  -0.431  -0.428
 -0.427  -0.427  -0.426  -0.422  -0.422  -0.420  -0.417  -0.411
 -0.409  -0.407  -0.406  -0.403  -0.399  -0.398  -0.397  -0.396
 -0.394  -0.393  -0.391  -0.390  -0.389  -0.385  -0.383  -0.381
 -0.376  -0.375  -0.374  -0.372  -0.370  -0.365  -0.362  -0.362
 -0.357  -0.351  -0.349  -0.346  -0.344  -0.343  -0.342  -0.339
 -0.337  -0.333  -0.330  -0.328  -0.328  -0.327  -0.325  -0.322
 -0.319  -0.315  -0.312  -0.311  -0.310  -0.307  -0.305  -0.302
 -0.301  -0.300  -0.297  -0.293  -0.293  -0.288  -0.286  -0.280
 -0.278  -0.277  -0.269  -0.263  -0.255  -0.251  -0.247  -0.246
 -0.240  -0.236  -0.236  -0.229  -0.197  -0.190

          Ground-State Mulliken Net Atomic Charges

     Atom                 Charge (a.u.)
  ----------------------------------------
      1 C                     0.247686
      2 C                    -0.133456
      3 N                    -0.472310
      4 C                    -0.066971
      5 C                     0.065748
      6 C                     0.046814
      7 C                    -0.006287
      8 C                     0.076321
      9 C                     0.221999
     10 N                    -0.506937
     11 N                    -0.540971
     12 C                     0.222379
     13 C                     0.295217
     14 S                     0.600614
     15 N                    -0.547210
     16 C                    -0.211596
     17 S                     0.294861
     18 C                    -0.122132
     19 C                    -0.236162
     20 S                     0.260693
     21 C                     0.160328
     22 C                     0.061553
     23 C                    -0.312467
     24 C                    -0.043533
     25 N                    -0.423115
     26 S                     0.261557
     27 C                     0.135851
     28 C                    -0.319303
     29 C                    -0.229828
     30 H                     0.124564
     31 H                     0.108348
     32 H                     0.099874
     33 H                     0.119090
     34 H                     0.126784
     35 H                     0.125879
     36 H                     0.112657
     37 H                     0.136477
     38 H                     0.098569
     39 C                    -0.180518
     40 H                     0.113895
     41 H                     0.105651
     42 H                     0.099717
     43 C                    -0.171954
     44 H                     0.091511
     45 C                    -0.187993
     46 H                     0.119166
     47 H                     0.083675
     48 H                     0.086294
     49 C                    -0.170892
     50 H                     0.100367
     51 C                    -0.325647
     52 H                     0.093357
     53 H                     0.101184
     54 H                     0.103836
     55 H                     0.096974
     56 C                     0.288391
     57 C                    -0.120744
     58 N                    -0.491420
     59 C                    -0.070199
     60 C                     0.105380
     61 C                     0.012403
     62 C                    -0.000244
     63 C                     0.068939
     64 C                     0.289512
     65 N                    -0.490328
     66 N                    -0.571726
     67 C                     0.173969
     68 C                     0.241134
     69 S                     0.610397
     70 N                    -0.517967
     71 C                    -0.199806
     72 S                     0.316687
     73 C                    -0.105159
     74 C                    -0.238478
     75 S                     0.251425
     76 C                     0.168681
     77 C                     0.025402
     78 C                    -0.293924
     79 C                    -0.069497
     80 N                    -0.398222
     81 S                     0.264528
     82 C                     0.115765
     83 C                    -0.307412
     84 C                    -0.245835
     85 H                     0.091605
     86 H                     0.113662
     87 H                     0.116985
     88 H                     0.109722
     89 H                     0.125608
     90 H                     0.111485
     91 H                     0.113485
     92 H                     0.146040
     93 H                     0.114670
     94 C                    -0.186591
     95 H                     0.121992
     96 H                     0.091357
     97 H                     0.110088
     98 C                    -0.177928
     99 H                     0.091469
    100 C                    -0.179976
    101 H                     0.102571
    102 H                     0.090738
    103 H                     0.103173
    104 C                    -0.174145
    105 H                     0.090118
    106 C                    -0.326363
    107 H                     0.090495
    108 H                     0.100604
    109 H                     0.105131
    110 H                     0.102146
  ----------------------------------------
  Sum of atomic charges =     0.000000

                    Cartesian Multipole Moments
 -----------------------------------------------------------------
    Charge (ESU x 10^10)
                 0.0000
    Dipole Moment (Debye)
         X      -2.1129      Y       0.0550      Z      -0.6409
       Tot       2.2087
    Quadrupole Moments (Debye-Ang)
        XX    -396.7129     XY     -14.2883     YY    -424.9376
        XZ     -32.5780     YZ      -4.3759     ZZ    -441.4840

 Total job time:  95.21s(wall), 1051.85s(cpu)
        *  Thank you very much for using Q-Chem.  Have a nice day.  *
