 Q-Chem 4.4, Q-Chem, Inc., Pleasanton, CA (2016)
 Q-Chem 4.4.2 for Intel X86 Linux

User input:
--------------------------------------------------------------
$comment
SP
$end

$rem
MEM_STATIC 5000
MEM_TOTAL 20000
JOBTYPE SP
EXCHANGE B3LYP
BASIS 6-31g(d,p)
$end

$molecule
0 1
C          19.509000    -27.166000     13.589000
C          20.612000    -26.345000     13.444000
N          18.582000    -27.269000     12.610000
C          20.742000    -25.479000     12.369000
C          18.693000    -26.502000     11.544000
C          19.684000    -25.491000     11.347000
C          19.654000    -24.497000     10.243000
C          18.524000    -23.708000      9.923000
C          20.834000    -24.307000      9.444000
N          18.607000    -22.724000      9.015000
N          22.071000    -24.845000      9.649000
C          20.881000    -23.146000      8.596000
C          19.751000    -22.317000      8.438000
S          23.056000    -24.003000      8.673000
N          22.068000    -22.954000      8.064000
C          19.763000    -21.164000      7.499000
S          20.789000    -20.957000      6.022000
C          19.091000    -20.002000      7.735000
C          20.135000    -19.331000      5.783000
S          17.999000    -19.694000      9.006000
C          19.380000    -19.025000      6.868000
C          20.092000    -18.620000      4.545000
C          17.660000    -18.142000      8.256000
C          18.528000    -17.928000      7.162000
N          21.095000    -18.959000      3.737000
S          18.795000    -17.660000      3.923000
C          20.819000    -18.383000      2.550000
C          19.670000    -17.666000      2.467000
C          19.277000    -27.993000     14.885000
H          21.308000    -26.219000     14.268000
H          21.621000    -24.844000     12.306000
H          17.891000    -26.613000     10.816000
H          17.582000    -23.850000     10.450000
H          16.907000    -17.450000      8.612000
H          18.544000    -16.968000      6.659000
H          21.464000    -18.572000      1.702000
H          19.378000    -17.127000      1.575000
H          18.609000    -28.795000     14.547000
C          18.630000    -27.180000     15.961000
H          20.170000    -28.531000     15.225000
H          19.473000    -26.540000     16.250000
H          18.501000    -27.650000     16.944000
C          17.515000    -26.170000     15.647000
H          17.347000    -25.443000     16.451000
C          16.145000    -26.879000     15.398000
H          17.693000    -25.556000     14.755000
H          15.949000    -27.621000     16.182000
H          16.210000    -27.537000     14.523000
C          15.020000    -25.889000     15.091000
H          14.036000    -26.370000     15.045000
C          15.329000    -25.165000     13.739000
H          14.888000    -25.181000     15.919000
H          15.447000    -25.936000     12.968000
H          16.207000    -24.507000     13.765000
H          14.394000    -24.701000     13.402000
C           4.850000    -21.850000     -3.099000
C           5.830000    -22.670000     -3.652000
N           5.170000    -20.845000     -2.298000
C           7.194000    -22.318000     -3.558000
C           6.445000    -20.486000     -2.100000
C           7.504000    -21.204000     -2.748000
C           8.940000    -20.829000     -2.614000
C           9.884000    -21.829000     -2.219000
C           9.533000    -19.535000     -2.849000
N          11.178000    -21.602000     -1.970000
N           8.803000    -18.488000     -3.153000
C          10.834000    -19.313000     -2.659000
C          11.688000    -20.373000     -2.217000
S           9.896000    -17.201000     -3.175000
N          11.281000    -17.988000     -2.810000
C          13.138000    -20.191000     -2.000000
S          13.932000    -20.921000     -0.587000
C          14.054000    -19.509000     -2.697000
C          15.567000    -20.247000     -1.106000
S          13.762000    -19.000000     -4.309000
C          15.395000    -19.596000     -2.292000
C          16.858000    -20.589000     -0.569000
C          15.515000    -18.657000     -4.388000
C          16.246000    -19.154000     -3.337000
N          17.004000    -21.767000      0.005000
S          18.140000    -19.397000     -0.170000
C          18.302000    -21.880000      0.414000
C          19.050000    -20.717000      0.393000
C           3.381000    -22.113000     -3.171000
H           5.508000    -23.480000     -4.300000
H           7.975000    -22.823000     -4.119000
H           6.639000    -19.647000     -1.434000
H           9.546000    -22.862000     -2.284000
H          15.942000    -18.054000     -5.179000
H          17.326000    -19.141000     -3.245000
H          18.691000    -22.867000      0.623000
H          20.044000    -20.328000      0.568000
H           3.272000    -23.017000     -2.559000
C           2.698000    -22.216000     -4.614000
H           2.921000    -21.293000     -2.606000
H           3.008000    -23.015000     -5.299000
H           2.946000    -21.256000     -5.083000
C           1.205000    -22.409000     -4.455000
H           1.143000    -23.318000     -3.844000
C           0.432000    -22.786000     -5.787000
H           0.695000    -21.634000     -3.869000
H           0.910000    -23.600000     -6.345000
H           0.271000    -21.907000     -6.424000
C          -0.968000    -23.229000     -5.421000
H          -0.863000    -24.240000     -5.008000
C          -1.951000    -23.301000     -6.610000
H          -1.398000    -22.597000     -4.635000
H          -1.363000    -23.637000     -7.473000
H          -2.344000    -22.301000     -6.831000
H          -2.780000    -24.011000     -6.499000
$end

--------------------------------------------------------------

             Standard Nuclear Orientation (Angstroms)
    I     Atom           X                Y                Z
 ----------------------------------------------------------------
    1      C      11.5027461010    -4.8822489463    -1.4450272201
    2      C      11.9972680806    -3.6170070929    -1.1875664193
    3      N      10.1855911293    -5.0833414208    -1.6753391767
    4      C      11.1586159044    -2.5288278331    -1.0004583598
    5      C       9.3558745959    -4.0658668037    -1.5600921483
    6      C       9.7101034984    -2.7488235741    -1.1323889616
    7      C       8.7258948108    -1.6863285157    -0.8004409084
    8      C       7.6298611109    -1.8724778227     0.0747045448
    9      C       8.8813812703    -0.3838247790    -1.3888361640
   10      N       6.8662624425    -0.8356521148     0.4508940250
   11      N       9.9252129893     0.0673971065    -2.1427938236
   12      C       8.1121407504     0.6939963351    -0.8268711574
   13      C       7.1299415507     0.4489967118     0.1551496757
   14      S       9.7246345893     1.6759118058    -2.2077073635
   15      N       8.4693652057     1.8698592636    -1.2944115963
   16      C       6.2716239682     1.5438251311     0.6804264216
   17      S       5.8221131066     3.0870083632    -0.1523877818
   18      C       5.8318210583     1.5945592963     1.9694273700
   19      C       4.9737272672     3.6354947460     1.2995478764
   20      S       6.0089242292     0.3858901459     3.1570815081
   21      C       5.2348186743     2.7475883703     2.2916867503
   22      C       3.9240682035     4.6032715406     1.3400191745
   23      C       5.0004834316     1.3626577591     4.2130631309
   24      C       4.7294260237     2.6119436113     3.6115078624
   25      N       4.0355366721     5.5048888813     0.3661326557
   26      S       2.4695970251     4.5452819821     2.2737449384
   27      C       2.8907498902     6.2159746263     0.3933592458
   28      C       1.9682292172     5.8605225217     1.3227614242
   29      C      12.4320502458    -6.1285695946    -1.4661849200
   30      H      13.0447298991    -3.4839661072    -0.9338109563
   31      H      11.5944425442    -1.5569849954    -0.7873582922
   32      H       8.3075806373    -4.3106691974    -1.7233727794
   33      H       7.4223251932    -2.8520612801     0.5020242059
   34      H       4.6662846879     1.0456485704     5.1930760767
   35      H       4.2249086036     3.3892508298     4.1737539481
   36      H       2.7152663690     6.9743428644    -0.3582611033
   37      H       1.0365987794     6.3944116735     1.4586882458
   38      H      11.8630968038    -6.8476193779    -2.0686227924
   39      C      12.6818305794    -6.6655008280    -0.0926243515
   40      H      13.3498830386    -5.9786489874    -2.0472182891
   41      H      13.3535752329    -5.8901500561     0.2964261607
   42      H      13.3940935385    -7.4941602349     0.0065475424
   43      C      11.5671465115    -6.7254338728     0.9636939996
   44      H      11.9430579077    -6.8474281133     1.9869129534
   45      C      10.5892996794    -7.9167430227     0.7064391020
   46      H      10.9328839800    -5.8310295579     1.0094756856
   47      H      11.1509570843    -8.8387276452     0.5111922955
   48      H      10.0829853849    -7.7925301396    -0.2584603719
   49      C       9.4762076672    -7.9977280144     1.7525947326
   50      H       8.8678979176    -8.9040987756     1.6516774802
   51      C       8.5713910805    -6.7266223803     1.6378846145
   52      H       9.8963312213    -8.1173385427     2.7593029927
   53      H       8.1936156355    -6.6787476389     0.6093907048
   54      H       9.0689472449    -5.7872403882     1.9108742413
   55      H       7.6392324507    -6.9464779291     2.1725189069
   56      C     -11.2531949551    -3.7246823768     0.1242615652
   57      C     -10.8965777507    -3.2242108907    -1.1251228677
   58      N     -10.6005694498    -3.3631263250     1.2185116149
   59      C      -9.9840871794    -2.1522699821    -1.2325456115
   60      C      -9.6706428676    -2.3996437810     1.1930569666
   61      C      -9.3476148200    -1.7433105878    -0.0405510019
   62      C      -8.3617062524    -0.6297930448    -0.1340388510
   63      C      -7.3008724576    -0.7211446584    -1.0897833473
   64      C      -8.3390297661     0.5873639504     0.6401217436
   65      N      -6.3010881669     0.1589106793    -1.2076815016
   66      N      -9.1990888596     0.8046291981     1.6068787802
   67      C      -7.3775342236     1.4987713693     0.4889667290
   68      C      -6.3320865171     1.2904939441    -0.4659885616
   69      S      -8.6896212430     2.2528999809     2.3100547803
   70      N      -7.3932071353     2.5914891915     1.3743802601
   71      C      -5.2468488340     2.2684605287    -0.6863372182
   72      S      -3.5719344984     1.7151605259    -0.9063964726
   73      C      -5.2625658743     3.6053995421    -0.7346699094
   74      C      -2.9828244029     3.4492129551    -1.1134555663
   75      S      -6.7221499307     4.4804024413    -0.9511723544
   76      C      -4.0697748124     4.2710182431    -1.0572783837
   77      C      -1.6872448758     3.8779955714    -1.5713127020
   78      C      -5.6808778693     5.8983066282    -1.2708584673
   79      C      -4.3497354960     5.6071555441    -1.4419199423
   80      N      -0.9913876973     3.0584425473    -2.3345896032
   81      S      -0.7282252074     5.1949588736    -0.8166750826
   82      C       0.1800073526     3.6787899612    -2.6630050765
   83      C       0.4822085126     4.8248132696    -1.9503908501
   84      C     -12.2316103916    -4.8311464991     0.3495488917
   85      H     -11.4664358111    -3.5580688466    -1.9873807504
   86      H      -9.8109676697    -1.6137953669    -2.1597897671
   87      H      -9.1758251148    -2.1462918451     2.1290490542
   88      H      -7.4168858792    -1.4752388360    -1.8665979052
   89      H      -6.0753507606     6.9062781374    -1.2689677927
   90      H      -3.5746443840     6.3041413321    -1.7393717527
   91      H       0.7370154839     3.3086942436    -3.5126768375
   92      H       1.2061859927     5.6244570380    -1.8703380437
   93      H     -11.7158876816    -5.6957383133    -0.0865154170
   94      C     -13.7317026049    -4.6358023203    -0.1709422260
   95      H     -12.2379852055    -4.9833764950     1.4358317232
   96      H     -13.9156664236    -4.5148947175    -1.2457746153
   97      H     -14.0587748271    -3.7173400579     0.3315673102
   98      C     -14.5654857514    -5.8355514719     0.2252731672
   99      H     -14.0189029230    -6.6703249966    -0.2306285483
  100      C     -16.0017462048    -5.9040977346    -0.4428131445
  101      H     -14.5824493288    -6.0564849149     1.2999925030
  102      H     -15.9792725828    -5.7398503901    -1.5267696686
  103      H     -16.7094793669    -5.2244691701     0.0486640021
  104      C     -16.5841487592    -7.2778023672    -0.1899340290
  105      H     -16.0591502755    -7.9554889423    -0.8746474713
  106      C     -18.0979767039    -7.3961479265    -0.4719150256
  107      H     -16.3793879281    -7.6204688867     0.8312283765
  108      H     -18.3000650564    -6.7483000660    -1.3338097102
  109      H     -18.6684218054    -7.0158237820     0.3843769405
  110      H     -18.4543076420    -8.3981276556    -0.7415942518
 ----------------------------------------------------------------

    9   -5663.4548047830      9.18E-06 Convergence criterion met
 Total energy in the final basis set = -5663.4548047830

                    Orbital Energies (a.u.)
 --------------------------------------------------------------

 Alpha MOs
 -- Occupied --
-88.990 -88.989 -88.937 -88.924 -88.921 -88.915 -88.910 -88.905
-14.397 -14.383 -14.381 -14.380 -14.351 -14.347 -14.343 -14.342
-14.329 -14.325 -10.266 -10.265 -10.264 -10.263 -10.258 -10.255
-10.252 -10.251 -10.244 -10.240 -10.239 -10.234 -10.233 -10.232
-10.232 -10.231 -10.230 -10.229 -10.228 -10.228 -10.228 -10.227
-10.226 -10.226 -10.225 -10.225 -10.221 -10.220 -10.219 -10.218
-10.217 -10.216 -10.205 -10.204 -10.202 -10.201 -10.199 -10.195
-10.188 -10.186 -10.186 -10.181 -10.181 -10.180 -10.175 -10.175
-10.173 -10.172 -10.168 -10.164  -8.046  -8.046  -7.999  -7.983
 -7.982  -7.973  -7.971  -7.966  -6.011  -6.011  -6.005  -6.005
 -6.004  -6.004  -5.962  -5.959  -5.956  -5.947  -5.947  -5.944
 -5.943  -5.940  -5.939  -5.937  -5.936  -5.934  -5.932  -5.931
 -5.929  -5.928  -5.928  -5.922  -1.053  -1.037  -0.983  -0.970
 -0.958  -0.957  -0.944  -0.943  -0.926  -0.915  -0.912  -0.904
 -0.848  -0.837  -0.828  -0.827  -0.824  -0.814  -0.812  -0.811
 -0.807  -0.807  -0.798  -0.795  -0.787  -0.783  -0.769  -0.766
 -0.752  -0.748  -0.743  -0.740  -0.727  -0.717  -0.707  -0.706
 -0.692  -0.689  -0.676  -0.672  -0.661  -0.651  -0.646  -0.644
 -0.639  -0.637  -0.630  -0.624  -0.619  -0.605  -0.603  -0.597
 -0.596  -0.593  -0.585  -0.582  -0.579  -0.578  -0.573  -0.555
 -0.550  -0.549  -0.545  -0.543  -0.529  -0.527  -0.525  -0.518
 -0.505  -0.505  -0.501  -0.501  -0.490  -0.486  -0.480  -0.478
 -0.475  -0.474  -0.469  -0.468  -0.464  -0.458  -0.451  -0.450
 -0.446  -0.445  -0.443  -0.440  -0.437  -0.435  -0.432  -0.431
 -0.428  -0.425  -0.425  -0.424  -0.421  -0.420  -0.416  -0.415
 -0.409  -0.406  -0.404  -0.403  -0.400  -0.399  -0.399  -0.396
 -0.394  -0.393  -0.391  -0.390  -0.388  -0.386  -0.386  -0.379
 -0.377  -0.376  -0.374  -0.372  -0.367  -0.364  -0.363  -0.359
 -0.358  -0.354  -0.352  -0.349  -0.348  -0.342  -0.340  -0.339
 -0.337  -0.335  -0.334  -0.330  -0.329  -0.327  -0.322  -0.318
 -0.316  -0.313  -0.312  -0.309  -0.305  -0.304  -0.300  -0.300
 -0.299  -0.297  -0.295  -0.294  -0.287  -0.286  -0.282  -0.278
 -0.275  -0.269  -0.264  -0.264  -0.256  -0.253  -0.249  -0.248
 -0.247  -0.238  -0.234  -0.232  -0.194  -0.193

          Ground-State Mulliken Net Atomic Charges

     Atom                 Charge (a.u.)
  ----------------------------------------
      1 C                     0.252574
      2 C                    -0.103998
      3 N                    -0.461559
      4 C                    -0.053585
      5 C                     0.076685
      6 C                     0.006589
      7 C                    -0.019953
      8 C                     0.074870
      9 C                     0.230339
     10 N                    -0.499322
     11 N                    -0.535358
     12 C                     0.158301
     13 C                     0.281975
     14 S                     0.608578
     15 N                    -0.524027
     16 C                    -0.204107
     17 S                     0.344080
     18 C                    -0.104008
     19 C                    -0.208137
     20 S                     0.283503
     21 C                     0.163232
     22 C                     0.038926
     23 C                    -0.292972
     24 C                    -0.117922
     25 N                    -0.416967
     26 S                     0.313344
     27 C                     0.114246
     28 C                    -0.305195
     29 C                    -0.222454
     30 H                     0.089316
     31 H                     0.111668
     32 H                     0.099623
     33 H                     0.125339
     34 H                     0.131678
     35 H                     0.106118
     36 H                     0.102484
     37 H                     0.134978
     38 H                     0.117586
     39 C                    -0.185613
     40 H                     0.103569
     41 H                     0.085971
     42 H                     0.097929
     43 C                    -0.172173
     44 H                     0.088785
     45 C                    -0.170451
     46 H                     0.101165
     47 H                     0.075105
     48 H                     0.107949
     49 C                    -0.181402
     50 H                     0.087832
     51 C                    -0.323563
     52 H                     0.086361
     53 H                     0.113251
     54 H                     0.107827
     55 H                     0.095186
     56 C                     0.286572
     57 C                    -0.121144
     58 N                    -0.483340
     59 C                    -0.070760
     60 C                     0.107332
     61 C                     0.013234
     62 C                    -0.000475
     63 C                     0.068007
     64 C                     0.286843
     65 N                    -0.490333
     66 N                    -0.565669
     67 C                     0.176013
     68 C                     0.241749
     69 S                     0.600708
     70 N                    -0.518544
     71 C                    -0.199858
     72 S                     0.316468
     73 C                    -0.105117
     74 C                    -0.242482
     75 S                     0.251189
     76 C                     0.169186
     77 C                     0.024197
     78 C                    -0.293871
     79 C                    -0.070431
     80 N                    -0.400753
     81 S                     0.250217
     82 C                     0.115812
     83 C                    -0.296794
     84 C                    -0.242625
     85 H                     0.087703
     86 H                     0.110910
     87 H                     0.113981
     88 H                     0.109462
     89 H                     0.123930
     90 H                     0.110084
     91 H                     0.114703
     92 H                     0.140152
     93 H                     0.112680
     94 C                    -0.182726
     95 H                     0.126898
     96 H                     0.092134
     97 H                     0.104480
     98 C                    -0.175046
     99 H                     0.094896
    100 C                    -0.179762
    101 H                     0.097092
    102 H                     0.092101
    103 H                     0.094623
    104 C                    -0.172652
    105 H                     0.090932
    106 C                    -0.325820
    107 H                     0.093434
    108 H                     0.099294
    109 H                     0.104162
    110 H                     0.102830
  ----------------------------------------
  Sum of atomic charges =     0.000000

                    Cartesian Multipole Moments
 -----------------------------------------------------------------
    Charge (ESU x 10^10)
                 0.0000
    Dipole Moment (Debye)
         X      -0.7129      Y       3.3820      Z       1.3367
       Tot       3.7058
    Quadrupole Moments (Debye-Ang)
        XX    -392.0804     XY       1.9166     YY    -424.5309
        XZ      16.4906     YZ       3.7758     ZZ    -437.4618

 Total job time:  83.29s(wall), 900.46s(cpu)
        *  Thank you very much for using Q-Chem.  Have a nice day.  *
