 Q-Chem 4.4, Q-Chem, Inc., Pleasanton, CA (2016)
 Q-Chem 4.4.2 for Intel X86 Linux

User input:
--------------------------------------------------------------
$comment
SP
$end

$rem
MEM_STATIC 5000
MEM_TOTAL 20000
JOBTYPE SP
EXCHANGE B3LYP
BASIS 6-31g(d,p)
$end

$molecule
0 1
C         -13.314000      1.147000     -0.096000
C         -12.036000      1.773000     -0.202000
N         -13.409000     -0.068000      0.417000
C         -10.894000      1.014000     -0.014000
C         -12.285000     -0.800000      0.711000
C         -10.962000     -0.243000      0.545000
C          -9.707000     -1.065000      0.904000
C          -9.661000     -1.695000      2.162000
C          -8.663000     -1.362000     -0.015000
N          -8.689000     -2.556000      2.531000
N          -8.625000     -0.941000     -1.281000
C          -7.577000     -2.190000      0.362000
C          -7.626000     -2.823000      1.652000
S          -7.209000     -1.496000     -1.870000
N          -6.608000     -2.324000     -0.602000
C          -6.645000     -3.791000      2.156000
S          -5.106000     -4.136000      1.383000
C          -6.758000     -4.652000      3.259000
C          -4.769000     -5.536000      2.451000
S          -7.993000     -4.734000      4.396000
C          -5.744000     -5.598000      3.385000
C          -3.586000     -6.307000      2.410000
C          -7.112000     -5.968000      5.265000
C          -6.020000     -6.399000      4.560000
N          -3.718000     -7.523000      2.936000
S          -2.033000     -5.795000      1.928000
C          -2.540000     -8.222000      2.751000
C          -1.442000     -7.464000      2.245000
C         -14.557000      1.884000     -0.523000
H         -11.977000      2.742000     -0.690000
H          -9.902000      1.427000     -0.171000
H         -12.415000     -1.790000      1.144000
H         -10.483000     -1.507000      2.851000
H          -7.599000     -6.379000      6.139000
H          -5.354000     -7.192000      4.882000
H          -2.521000     -9.285000      2.954000
H          -0.460000     -7.878000      2.057000
H         -14.270000      2.783000     -1.082000
C         -15.572000      2.294000      0.588000
H         -15.154000      1.339000     -1.265000
H         -15.052000      3.031000      1.213000
H         -15.867000      1.349000      1.060000
C         -16.847000      3.057000      0.123000
H         -16.495000      4.056000     -0.164000
C         -17.889000      3.342000      1.176000
H         -17.172000      2.469000     -0.744000
H         -17.568000      3.988000      2.003000
H         -18.082000      2.384000      1.675000
C         -19.108000      3.947000      0.499000
H         -18.875000      4.826000     -0.116000
C         -20.212000      4.352000      1.501000
H         -19.516000      3.214000     -0.208000
H         -19.818000      5.135000      2.160000
H         -20.409000      3.436000      2.072000
H         -21.124000      4.688000      0.992000
C          -0.255000      8.035000     13.327000
C          -1.006000      6.882000     13.738000
N          -0.223000      8.468000     12.056000
C          -1.520000      6.031000     12.762000
C          -0.789000      7.684000     11.119000
C          -1.365000      6.351000     11.411000
C          -1.890000      5.520000     10.257000
C          -3.109000      4.801000     10.445000
C          -1.415000      5.502000      8.918000
N          -3.639000      3.969000      9.489000
N          -0.367000      6.180000      8.383000
C          -1.973000      4.605000      7.988000
C          -3.058000      3.775000      8.318000
S          -0.208000      5.689000      6.779000
N          -1.399000      4.570000      6.758000
C          -3.615000      2.704000      7.471000
S          -2.768000      1.998000      6.059000
C          -4.839000      2.000000      7.671000
C          -3.916000      0.587000      5.982000
S          -6.106000      2.326000      8.823000
C          -4.960000      0.845000      6.835000
C          -3.721000     -0.618000      5.228000
C          -6.694000      0.673000      8.411000
C          -6.097000      0.071000      7.284000
N          -4.510000     -1.609000      5.411000
S          -2.383000     -0.881000      4.196000
C          -4.060000     -2.683000      4.604000
C          -2.874000     -2.516000      3.990000
C           0.321000      8.951000     14.328000
H          -1.129000      6.606000     14.781000
H          -1.990000      5.084000     13.013000
H          -0.782000      8.042000     10.091000
H          -3.602000      4.781000     11.416000
H          -7.504000      0.283000      9.013000
H          -6.528000     -0.832000      6.867000
H          -4.708000     -3.549000      4.604000
H          -2.323000     -3.241000      3.406000
H           1.410000      9.015000     14.215000
C           0.009000      8.719000     15.844000
H           0.006000      9.977000     14.101000
H           0.172000      7.641000     15.973000
H          -1.053000      8.857000     16.079000
C           0.881000      9.729000     16.723000
H           1.945000      9.508000     16.570000
C           0.601000      9.670000     18.178000
H           0.785000     10.763000     16.370000
H           0.584000      8.598000     18.409000
H          -0.462000      9.880000     18.351000
C           1.572000     10.385000     19.037000
H           1.168000     10.340000     20.056000
C           1.918000     11.841000     18.665000
H           2.499000      9.799000     19.051000
H           2.236000     12.465000     19.509000
H           0.970000     12.138000     18.199000
H           2.662000     11.894000     17.861000
$end

--------------------------------------------------------------

             Standard Nuclear Orientation (Angstroms)
    I     Atom           X                Y                Z
 ----------------------------------------------------------------
    1      C      -7.9101625311     5.3033375065    -0.7556417809
    2      C      -6.9848248511     4.8096621663    -1.7233353463
    3      N      -8.2230541884     4.5598539514     0.2920938795
    4      C      -6.6285864954     3.4725021151    -1.6971393296
    5      C      -7.7908144053     3.2601377072     0.3897793664
    6      C      -6.9169056942     2.6830503448    -0.6059051924
    7      C      -6.4157563585     1.2302986568    -0.4719205799
    8      C      -5.8528963555     0.8305280202     0.7548442937
    9      C      -6.6319848899     0.2224923317    -1.4518581459
   10      N      -5.5157285078    -0.4447657636     1.0415664717
   11      N      -7.2604800684     0.4168107519    -2.6131828904
   12      C      -6.2118939291    -1.1116731619    -1.2268358798
   13      C      -5.6795399657    -1.4433260076     0.0669166651
   14      S      -7.1834119525    -1.0192784182    -3.3824100357
   15      N      -6.4168264427    -1.9552192638    -2.2910941375
   16      C      -5.2996026824    -2.7916834860     0.5039301333
   17      S      -5.1763153920    -4.1812745652    -0.5632680097
   18      C      -5.0431514106    -3.2451150017     1.8075142717
   19      C      -4.9742394451    -5.3334632205     0.7953414318
   20      S      -4.9713177753    -2.3498005498     3.2280669674
   21      C      -4.8914349374    -4.6227507119     1.9420131998
   22      C      -4.7577728519    -6.7210062776     0.6421178087
   23      C      -4.5304489776    -3.7900237667     4.1143343022
   24      C      -4.6429561602    -4.9133275313     3.3392338013
   25      N      -5.0820962740    -7.4378138811     1.7162487028
   26      S      -3.9983961316    -7.5122163972    -0.6631065181
   27      C      -4.9299745278    -8.7798666382     1.4225424357
   28      C      -4.3062901947    -9.0745274712     0.1733839805
   29      C      -8.4938494101     6.6849498432    -0.9005692743
   30      H      -6.7978416889     5.4103689972    -2.6092103941
   31      H      -5.9977651260     3.0348015126    -2.4651006453
   32      H      -8.0636620949     2.6930461834     1.2777266295
   33      H      -5.7291973105     1.5904390600     1.5248980307
   34      H      -4.4031953431    -3.6754501720     5.1823443227
   35      H      -4.4670048391    -5.9237394585     3.6916509832
   36      H      -5.3162486006    -9.5173740996     2.1142172763
   37      H      -4.1176303622   -10.0785002922    -0.1837015027
   38      H      -8.2685198591     7.0691167269    -1.9029132268
   39      C      -8.0748290506     7.7605134012     0.1483496792
   40      H      -9.5910376258     6.6975604909    -0.8964472709
   41      H      -7.0017692019     7.9297082138    -0.0069232307
   42      H      -8.3866869270     7.3455380759     1.1144625837
   43      C      -8.6883655941     9.1810721914    -0.0237102908
   44      H      -8.1931770795     9.6024579973    -0.9077331059
   45      C      -8.3860279844    10.1864846392     1.0595882735
   46      H      -9.7468314037     8.9611532773    -0.2090310971
   47      H      -7.3277271256    10.4471935197     1.1873230448
   48      H      -8.6315846549     9.6905198715     2.0070769915
   49      C      -9.1931668787    11.4458434731     0.7896676686
   50      H      -9.0447977897    11.8520154013    -0.2193744406
   51      C      -8.8982838909    12.5760924342     1.8008186511
   52      H     -10.2601195756    11.1942352693     0.8333397915
   53      H      -7.8462968947    12.8697251105     1.7022833209
   54      H      -9.0759280179    12.1159933497     2.7809499671
   55      H      -9.5624811695    13.4375112865     1.6575687435
   56      C      11.6513598929     1.3934921232    -0.2877705011
   57      C      10.9498928307     1.1598689151     0.9433652174
   58      N      11.0222940526     1.6001555944    -1.4563253258
   59      C       9.5841699162     0.8882977382     0.8983872598
   60      C       9.6889827364     1.4145056253    -1.4845392041
   61      C       8.9096280722     0.9238406706    -0.3244602371
   62      C       7.4271055713     0.6642667712    -0.5051545237
   63      C       6.5422626763     1.0556331528     0.5446794663
   64      C       6.7617361323     0.2362495185    -1.6853895600
   65      N       5.1911376898     0.8098208366     0.5115497827
   66      N       7.2987840340    -0.0792914475    -2.8921316410
   67      C       5.3806482777    -0.0329068264    -1.6533864342
   68      C       4.6080935277     0.1929635847    -0.5013592141
   69      S       6.0467198947    -0.6212103986    -3.8809881732
   70      N       4.8336981030    -0.5380240322    -2.7888612752
   71      C       3.1964774587    -0.1926659328    -0.3187970362
   72      S       2.3343346864    -1.3683481349    -1.3599839550
   73      C       2.3246603280     0.2133309069     0.7342430660
   74      C       0.9594273199    -1.5210931584    -0.1763232386
   75      S       2.5947054175     1.4146063385     1.9682130767
   76      C       1.1111926795    -0.5438679265     0.7755733533
   77      C      -0.0546452315    -2.5360148051    -0.1888496761
   78      C       1.1695947231     0.6727610776     2.7846823766
   79      C       0.4198917613    -0.2352973438     2.0085912915
   80      N      -0.8499308116    -2.6427529942     0.8082555366
   81      S      -0.1735341099    -3.7383050912    -1.3991391052
   82      C      -1.6979534859    -3.7537101499     0.5761849822
   83      C      -1.3977723908    -4.5262950687    -0.4842323194
   84      C      13.0998699249     1.6667085780    -0.2856596198
   85      H      11.4543152055     1.1148148727     1.9039286984
   86      H       9.0276226397     0.5858987014     1.7812915307
   87      H       9.1740138502     1.6006421959    -2.4253671498
   88      H       6.9288015568     1.4501775005     1.4834086347
   89      H       0.9500012076     1.0196375369     3.7857115520
   90      H      -0.5477105086    -0.5719793223     2.3627806371
   91      H      -2.4794563821    -3.8856306222     1.3121946371
   92      H      -1.8648310929    -5.4564976832    -0.7789546714
   93      H      13.6369613300     0.9202460367    -0.8832485229
   94      C      13.8469281756     1.8141534333     1.0816691573
   95      H      13.2931154897     2.5905586586    -0.8447545850
   96      H      13.4797404054     0.9584817545     1.6632988673
   97      H      13.5087267993     2.6875112925     1.6517383451
   98      C      15.4178926253     1.9324351387     0.8148262526
   99      H      15.7711679544     1.0047451524     0.3469225968
  100      C      16.2275565314     2.1730941497     2.0336099084
  101      H      15.6465083925     2.6971429577     0.0625378886
  102      H      15.8365578807     1.4568331804     2.7663610797
  103      H      15.8828784857     3.0935545284     2.5214087770
  104      C      17.6895085876     2.0150006492     1.8614192281
  105      H      18.1436444208     2.3307750010     2.8088627376
  106      C      18.3534652744     2.7520146630     0.6807381274
  107      H      17.8996103793     0.9428015199     1.7656733960
  108      H      19.4106578205     3.0006058773     0.8336509409
  109      H      17.6796565588     3.6147604282     0.6051037475
  110      H      18.2310963366     2.2086170732    -0.2639871779
 ----------------------------------------------------------------

    9   -5663.5232933731      9.13E-06 Convergence criterion met
 Total energy in the final basis set = -5663.5232933731

                    Orbital Energies (a.u.)
 --------------------------------------------------------------

 Alpha MOs
 -- Occupied --
-88.991 -88.986 -88.942 -88.927 -88.918 -88.916 -88.908 -88.907
-14.395 -14.386 -14.385 -14.379 -14.355 -14.349 -14.343 -14.333
-14.329 -14.329 -10.273 -10.273 -10.263 -10.259 -10.259 -10.258
-10.258 -10.252 -10.248 -10.244 -10.244 -10.243 -10.242 -10.242
-10.241 -10.237 -10.234 -10.233 -10.232 -10.230 -10.230 -10.229
-10.229 -10.226 -10.224 -10.224 -10.221 -10.219 -10.219 -10.217
-10.211 -10.210 -10.210 -10.205 -10.201 -10.200 -10.198 -10.198
-10.189 -10.185 -10.181 -10.181 -10.178 -10.176 -10.176 -10.176
-10.176 -10.174 -10.171 -10.171  -8.047  -8.041  -8.002  -7.986
 -7.979  -7.976  -7.969  -7.968  -6.012  -6.006  -6.006  -6.004
 -6.000  -5.998  -5.966  -5.963  -5.959  -5.950  -5.947  -5.943
 -5.943  -5.941  -5.939  -5.937  -5.936  -5.933  -5.932  -5.932
 -5.929  -5.929  -5.926  -5.924  -1.041  -1.025  -0.975  -0.974
 -0.954  -0.946  -0.936  -0.935  -0.921  -0.910  -0.898  -0.892
 -0.854  -0.829  -0.828  -0.826  -0.814  -0.812  -0.811  -0.810
 -0.807  -0.803  -0.800  -0.792  -0.787  -0.784  -0.770  -0.764
 -0.751  -0.745  -0.742  -0.737  -0.729  -0.712  -0.710  -0.708
 -0.696  -0.691  -0.677  -0.672  -0.657  -0.652  -0.646  -0.642
 -0.637  -0.633  -0.630  -0.626  -0.610  -0.608  -0.596  -0.594
 -0.594  -0.589  -0.588  -0.579  -0.576  -0.574  -0.567  -0.562
 -0.554  -0.546  -0.538  -0.534  -0.526  -0.520  -0.513  -0.508
 -0.506  -0.504  -0.503  -0.496  -0.492  -0.482  -0.479  -0.475
 -0.473  -0.472  -0.470  -0.468  -0.465  -0.461  -0.452  -0.451
 -0.449  -0.446  -0.445  -0.443  -0.440  -0.438  -0.434  -0.431
 -0.430  -0.427  -0.423  -0.421  -0.420  -0.414  -0.412  -0.412
 -0.411  -0.405  -0.405  -0.404  -0.401  -0.396  -0.395  -0.394
 -0.394  -0.392  -0.390  -0.389  -0.388  -0.387  -0.385  -0.382
 -0.381  -0.378  -0.372  -0.371  -0.367  -0.366  -0.356  -0.356
 -0.355  -0.354  -0.351  -0.349  -0.348  -0.346  -0.344  -0.342
 -0.336  -0.334  -0.334  -0.332  -0.329  -0.327  -0.325  -0.324
 -0.319  -0.308  -0.308  -0.307  -0.303  -0.303  -0.302  -0.300
 -0.298  -0.297  -0.292  -0.289  -0.289  -0.287  -0.280  -0.278
 -0.274  -0.271  -0.265  -0.263  -0.255  -0.253  -0.250  -0.246
 -0.243  -0.240  -0.237  -0.224  -0.199  -0.191

          Ground-State Mulliken Net Atomic Charges

     Atom                 Charge (a.u.)
  ----------------------------------------
      1 C                     0.296617
      2 C                    -0.126020
      3 N                    -0.484665
      4 C                    -0.053462
      5 C                     0.068108
      6 C                     0.026911
      7 C                     0.003508
      8 C                     0.077081
      9 C                     0.244894
     10 N                    -0.529104
     11 N                    -0.546812
     12 C                     0.199800
     13 C                     0.295611
     14 S                     0.607826
     15 N                    -0.552415
     16 C                    -0.202422
     17 S                     0.306493
     18 C                    -0.129512
     19 C                    -0.249552
     20 S                     0.291886
     21 C                     0.188140
     22 C                     0.044110
     23 C                    -0.308133
     24 C                    -0.058139
     25 N                    -0.421616
     26 S                     0.276578
     27 C                     0.118569
     28 C                    -0.314125
     29 C                    -0.232374
     30 H                     0.089254
     31 H                     0.101083
     32 H                     0.107764
     33 H                     0.121142
     34 H                     0.133732
     35 H                     0.117665
     36 H                     0.120370
     37 H                     0.137684
     38 H                     0.090159
     39 C                    -0.180208
     40 H                     0.111916
     41 H                     0.090935
     42 H                     0.112912
     43 C                    -0.175562
     44 H                     0.090057
     45 C                    -0.166195
     46 H                     0.090571
     47 H                     0.091458
     48 H                     0.091502
     49 C                    -0.174714
     50 H                     0.091530
     51 C                    -0.318403
     52 H                     0.093852
     53 H                     0.101938
     54 H                     0.103668
     55 H                     0.099524
     56 C                     0.271831
     57 C                    -0.120630
     58 N                    -0.477295
     59 C                    -0.093096
     60 C                     0.086396
     61 C                     0.037454
     62 C                     0.015916
     63 C                     0.052945
     64 C                     0.282942
     65 N                    -0.537472
     66 N                    -0.584552
     67 C                     0.166955
     68 C                     0.341699
     69 S                     0.598863
     70 N                    -0.555316
     71 C                    -0.214674
     72 S                     0.300014
     73 C                    -0.107751
     74 C                    -0.240271
     75 S                     0.281637
     76 C                     0.151422
     77 C                     0.098058
     78 C                    -0.301705
     79 C                    -0.056673
     80 N                    -0.447436
     81 S                     0.253197
     82 C                     0.119164
     83 C                    -0.304907
     84 C                    -0.232005
     85 H                     0.093620
     86 H                     0.098990
     87 H                     0.122363
     88 H                     0.116067
     89 H                     0.123881
     90 H                     0.136541
     91 H                     0.114350
     92 H                     0.138274
     93 H                     0.119134
     94 C                    -0.198567
     95 H                     0.125043
     96 H                     0.095923
     97 H                     0.099135
     98 C                    -0.173442
     99 H                     0.091780
    100 C                    -0.183943
    101 H                     0.097079
    102 H                     0.091348
    103 H                     0.086523
    104 C                    -0.173216
    105 H                     0.092276
    106 C                    -0.323622
    107 H                     0.093182
    108 H                     0.106940
    109 H                     0.106513
    110 H                     0.107704
  ----------------------------------------
  Sum of atomic charges =     0.000000

                    Cartesian Multipole Moments
 -----------------------------------------------------------------
    Charge (ESU x 10^10)
                 0.0000
    Dipole Moment (Debye)
         X      -0.4977      Y      -2.8878      Z       0.1205
       Tot       2.9329
    Quadrupole Moments (Debye-Ang)
        XX    -448.6557     XY      10.6596     YY    -401.0431
        XZ      29.6484     YZ       0.1070     ZZ    -427.9694

 Total job time:  84.23s(wall), 922.13s(cpu)
        *  Thank you very much for using Q-Chem.  Have a nice day.  *
