 Q-Chem 4.4, Q-Chem, Inc., Pleasanton, CA (2016)
 Q-Chem 4.4.2 for Intel X86 Linux

User input:
--------------------------------------------------------------
$comment
SP
$end

$rem
MEM_STATIC 5000
MEM_TOTAL 20000
JOBTYPE SP
EXCHANGE B3LYP
BASIS 6-31g(d,p)
$end

$molecule
0 1
C           1.258000      6.866000      3.804000
C           0.080000      6.161000      3.629000
N           2.422000      6.277000      3.805000
C           0.126000      4.773000      3.405000
C           2.456000      4.950000      3.529000
C           1.308000      4.106000      3.401000
C           1.492000      2.683000      3.185000
C           2.103000      2.230000      2.003000
C           1.472000      1.745000      4.264000
N           2.617000      0.996000      1.735000
N           1.020000      1.916000      5.511000
C           1.869000      0.421000      4.003000
C           2.605000      0.200000      2.809000
S           1.046000      0.423000      6.153000
N           1.661000     -0.453000      4.974000
C           3.409000     -0.965000      2.586000
S           3.540000     -1.899000      1.081000
C           4.391000     -1.251000      3.497000
C           4.954000     -2.757000      1.765000
S           4.881000     -0.418000      4.924000
C           5.235000     -2.223000      3.020000
C           5.666000     -3.887000      1.182000
C           6.154000     -1.651000      5.092000
C           6.323000     -2.356000      3.939000
N           5.002000     -4.660000      0.391000
S           7.429000     -4.017000      1.298000
C           5.896000     -5.606000     -0.195000
C           7.237000     -5.317000      0.111000
C           1.313000      8.367000      4.209000
H          -0.859000      6.701000      3.545000
H          -0.807000      4.244000      3.240000
H           3.473000      4.590000      3.376000
H           2.052000      2.881000      1.131000
H           6.724000     -1.597000      6.011000
H           7.223000     -2.938000      3.781000
H           5.526000     -6.356000     -0.882000
H           8.126000     -5.885000     -0.128000
H           1.865000      9.046000      3.548000
C           1.811000      8.711000      5.648000
H           0.318000      8.809000      4.073000
H           2.591000      8.014000      5.979000
H           1.011000      8.457000      6.355000
C           2.260000     10.166000      5.879000
H           3.102000     10.386000      5.211000
C           2.775000     10.462000      7.349000
H           1.463000     10.870000      5.608000
H           3.198000     11.474000      7.345000
H           3.573000      9.744000      7.575000
C           1.684000     10.503000      8.436000
H           1.018000     11.322000      8.136000
C           2.264000     10.550000      9.829000
H           1.073000      9.594000      8.385000
H           2.911000      9.669000      9.919000
H           1.518000     10.435000     10.625000
H           2.909000     11.375000     10.158000
C          -0.255000      8.035000     13.327000
C          -1.006000      6.882000     13.738000
N          -0.223000      8.468000     12.056000
C          -1.520000      6.031000     12.762000
C          -0.789000      7.684000     11.119000
C          -1.365000      6.351000     11.411000
C          -1.890000      5.520000     10.257000
C          -3.109000      4.801000     10.445000
C          -1.415000      5.502000      8.918000
N          -3.639000      3.969000      9.489000
N          -0.367000      6.180000      8.383000
C          -1.973000      4.605000      7.988000
C          -3.058000      3.775000      8.318000
S          -0.208000      5.689000      6.779000
N          -1.399000      4.570000      6.758000
C          -3.615000      2.704000      7.471000
S          -2.768000      1.998000      6.059000
C          -4.839000      2.000000      7.671000
C          -3.916000      0.587000      5.982000
S          -6.106000      2.326000      8.823000
C          -4.960000      0.845000      6.835000
C          -3.721000     -0.618000      5.228000
C          -6.694000      0.673000      8.411000
C          -6.097000      0.071000      7.284000
N          -4.510000     -1.609000      5.411000
S          -2.383000     -0.881000      4.196000
C          -4.060000     -2.683000      4.604000
C          -2.874000     -2.516000      3.990000
C           0.321000      8.951000     14.328000
H          -1.129000      6.606000     14.781000
H          -1.990000      5.084000     13.013000
H          -0.782000      8.042000     10.091000
H          -3.602000      4.781000     11.416000
H          -7.504000      0.283000      9.013000
H          -6.528000     -0.832000      6.867000
H          -4.708000     -3.549000      4.604000
H          -2.323000     -3.241000      3.406000
H           1.410000      9.015000     14.215000
C           0.009000      8.719000     15.844000
H           0.006000      9.977000     14.101000
H           0.172000      7.641000     15.973000
H          -1.053000      8.857000     16.079000
C           0.881000      9.729000     16.723000
H           1.945000      9.508000     16.570000
C           0.601000      9.670000     18.178000
H           0.785000     10.763000     16.370000
H           0.584000      8.598000     18.409000
H          -0.462000      9.880000     18.351000
C           1.572000     10.385000     19.037000
H           1.168000     10.340000     20.056000
C           1.918000     11.841000     18.665000
H           2.499000      9.799000     19.051000
H           2.236000     12.465000     19.509000
H           0.970000     12.138000     18.199000
H           2.662000     11.894000     17.861000
$end

--------------------------------------------------------------

             Standard Nuclear Orientation (Angstroms)
    I     Atom           X                Y                Z
 ----------------------------------------------------------------
    1      C      -0.4259358219     2.2787620270    -4.3098563642
    2      C      -0.1127712015     0.9312195741    -4.3471559358
    3      N       0.2595677745     3.1278141665    -3.5950044328
    4      C       0.9991277530     0.4547048884    -3.6292071428
    5      C       1.3628053939     2.6661493994    -2.9562608239
    6      C       1.7456533347     1.2908211497    -2.8639371555
    7      C       2.9096453886     0.9278760275    -2.0772769133
    8      C       4.1829333548     1.3781884796    -2.4666487800
    9      C       2.8001547887     0.4967208751    -0.7183795503
   10      N       5.3346494333     1.3945824555    -1.7372261919
   11      N       1.7131694039     0.0821248747    -0.0587380344
   12      C       3.9797819581     0.3704150249     0.0374197442
   13      C       5.1337627992     1.0253087149    -0.4681645446
   14      S       2.2946025324    -0.4965884294     1.3444424347
   15      N       3.8551560329    -0.2043317654     1.2223735433
   16      C       6.2783367490     1.3334008501     0.3370681607
   17      S       7.9848518793     1.1732998730    -0.1284592685
   18      C       6.0852837948     2.0844128754     1.4661175373
   19      C       8.4439084236     2.1158716578     1.3221411312
   20      S       4.6532809356     2.7829047149     2.1232286096
   21      C       7.2832200395     2.5159435738     1.9793221846
   22      C       9.7903617364     2.3705764270     1.8180463208
   23      C       5.6892971084     3.4781030922     3.3930363534
   24      C       7.0062758454     3.4228165887     3.0502457338
   25      N      10.7003531560     1.5023997058     1.5311825953
   26      S      10.2301657601     3.9419275347     2.5079398758
   27      C      11.9679549465     1.9954935408     1.9643017138
   28      C      11.8879075254     3.3279272706     2.4043593987
   29      C      -1.7149736810     2.8825268382    -4.9374712544
   30      H      -0.6526114043     0.2752551422    -5.0244005146
   31      H       1.2453379490    -0.6000246046    -3.6961491766
   32      H       1.9624410622     3.4747951851    -2.5393351007
   33      H       4.3279681216     1.6237567130    -3.5180512525
   34      H       5.1581905860     3.9784151872     4.1930305218
   35      H       7.7320806389     4.0389400851     3.5672440306
   36      H      12.8624567819     1.4021605063     1.8257687697
   37      H      12.6573321114     3.9433294519     2.8508254801
   38      H      -1.5870477658     3.6845965609    -5.6743464950
   39      C      -2.8199470024     3.4009870449    -3.9641809724
   40      H      -2.1658470723     2.1400684062    -5.6078097224
   41      H      -2.3822866608     3.8378077818    -3.0578636608
   42      H      -3.3299643019     2.5301105091    -3.5331108928
   43      C      -3.8612854323     4.3595199323    -4.5714831857
   44      H      -3.3447112991     5.2541994888    -4.9406547666
   45      C      -4.9507559889     4.8737684300    -3.5407827496
   46      H      -4.3492483956     3.9066632161    -5.4438815701
   47      H      -5.5344186320     5.6509125801    -4.0491860237
   48      H      -4.4219749152     5.3244667822    -2.6918625110
   49      C      -5.9950714707     3.8279150926    -3.1058954413
   50      H      -6.5093937475     3.5413360766    -4.0319959020
   51      C      -6.8458082089     4.3108998434    -1.9560994886
   52      H      -5.4896764258     2.9194079694    -2.7574795179
   53      H      -6.1490618168     4.5668408143    -1.1486908656
   54      H      -7.4987442773     3.5384705705    -1.5313825136
   55      H      -7.4773213060     5.2046853593    -2.0411268944
   56      C      -8.1594700389     0.8493974472     1.3903738427
   57      C      -7.8405545510    -0.3047886715     2.1831400850
   58      N      -7.5703959068     1.1083775961     0.2114442649
   59      C      -6.7131388763    -1.0550257948     1.8559533564
   60      C      -6.5282636607     0.3337866495    -0.1448565169
   61      C      -5.9617875472    -0.7216819608     0.7263609217
   62      C      -4.7279556730    -1.4654612275     0.2548173832
   63      C      -4.6655820580    -2.8744745083     0.4763057729
   64      C      -3.6762053910    -0.9665566696    -0.5599129932
   65      N      -3.5688226603    -3.6332252842     0.1469486969
   66      N      -3.5131760048     0.2864810321    -1.0574378041
   67      C      -2.5599122212    -1.7772866675    -0.8382642634
   68      C      -2.4870151396    -3.1122064111    -0.4050203439
   69      S      -2.0335370970     0.3264418662    -1.8625774407
   70      N      -1.5475221978    -1.1990130507    -1.5341572613
   71      C      -1.3090957412    -3.9926673322    -0.5145349880
   72      S       0.3529752966    -3.4096431921    -0.8419364499
   73      C      -1.2664449760    -5.4011687407    -0.2952254017
   74      C       1.0871757160    -5.0041479909    -0.3589683445
   75      S      -2.5929075438    -6.5038293265    -0.0436191846
   76      C       0.0677828363    -5.9119423982    -0.2145506485
   77      C       2.4762281230    -5.2465561206    -0.0937557707
   78      C      -1.3257799032    -7.6571498808     0.5150723596
   79      C       0.0077309319    -7.2794487618     0.2542415383
   80      N       2.8326337709    -6.3624330360     0.4218843400
   81      S       3.6943620764    -4.0603566267    -0.2768334379
   82      C       4.2312953755    -6.3168174066     0.6429950139
   83      C       4.8308945249    -5.1276699050     0.4483412715
   84      C      -9.3332713606     1.6804187885     1.7135254906
   85      H      -8.4016921247    -0.5762769899     3.0722816465
   86      H      -6.3556002951    -1.8631533338     2.4882555338
   87      H      -6.0617379541     0.5288028332    -1.1088686814
   88      H      -5.4420750319    -3.3859654570     1.0435144390
   89      H      -1.6731297176    -8.5839192502     0.9521657619
   90      H       0.8054340258    -8.0011238928     0.3880839050
   91      H       4.6631614940    -7.2456098115     0.9904087792
   92      H       5.8625766062    -4.8667627419     0.6428702807
   93      H      -9.0326465525     2.7154671300     1.9162214583
   94      C     -10.2967847967     1.2275037739     2.8606670896
   95      H      -9.9531981885     1.7931359097     0.8155190437
   96      H      -9.6110080667     0.9595965453     3.6750564273
   97      H     -10.8126335381     0.2883925314     2.6281092470
   98      C     -11.3781479409     2.3737242802     3.1251615154
   99      H     -10.8617728678     3.2788418587     3.4693488960
  100      C     -12.4097053421     2.0195014551     4.1298114635
  101      H     -11.8630845066     2.6979341700     2.1963421171
  102      H     -11.8423751941     1.5826473030     4.9605514667
  103      H     -12.9321282743     1.1100967656     3.8072352855
  104      C     -13.2519660017     3.1453878587     4.5934101989
  105      H     -14.0227486834     2.7040552890     5.2373990345
  106      C     -13.9033765828     4.0396368073     3.5191574015
  107      H     -12.6354340984     3.7762326134     5.2452110180
  108      H     -14.8329623546     4.5289405161     3.8342576608
  109      H     -14.0163576819     3.3017816074     2.7148726415
  110      H     -13.2031482972     4.7869381477     3.1267519291
 ----------------------------------------------------------------

    9   -5663.4907894226      8.07E-06 Convergence criterion met
 Total energy in the final basis set = -5663.4907894226

                    Orbital Energies (a.u.)
 --------------------------------------------------------------

 Alpha MOs
 -- Occupied --
-88.988 -88.982 -88.929 -88.929 -88.921 -88.921 -88.912 -88.911
-14.388 -14.383 -14.381 -14.375 -14.352 -14.346 -14.343 -14.337
-14.332 -14.330 -10.269 -10.262 -10.259 -10.257 -10.256 -10.255
-10.254 -10.249 -10.245 -10.243 -10.240 -10.239 -10.239 -10.238
-10.236 -10.235 -10.234 -10.232 -10.232 -10.232 -10.230 -10.230
-10.229 -10.227 -10.227 -10.226 -10.223 -10.221 -10.220 -10.214
-10.213 -10.211 -10.211 -10.208 -10.208 -10.202 -10.201 -10.200
-10.190 -10.186 -10.182 -10.181 -10.178 -10.177 -10.177 -10.175
-10.171 -10.171 -10.168 -10.156  -8.044  -8.036  -7.989  -7.987
 -7.984  -7.978  -7.973  -7.970  -6.009  -6.003  -6.002  -6.001
 -5.996  -5.994  -5.953  -5.951  -5.950  -5.948  -5.948  -5.946
 -5.944  -5.943  -5.943  -5.941  -5.939  -5.938  -5.935  -5.934
 -5.934  -5.931  -5.929  -5.926  -1.055  -1.022  -0.979  -0.967
 -0.964  -0.953  -0.952  -0.937  -0.922  -0.915  -0.899  -0.891
 -0.850  -0.842  -0.832  -0.826  -0.815  -0.814  -0.813  -0.805
 -0.802  -0.801  -0.795  -0.794  -0.788  -0.780  -0.766  -0.764
 -0.748  -0.747  -0.742  -0.739  -0.732  -0.713  -0.710  -0.710
 -0.693  -0.692  -0.673  -0.672  -0.656  -0.652  -0.646  -0.642
 -0.640  -0.633  -0.632  -0.627  -0.611  -0.611  -0.600  -0.597
 -0.596  -0.591  -0.586  -0.581  -0.578  -0.576  -0.563  -0.556
 -0.548  -0.548  -0.543  -0.534  -0.530  -0.521  -0.518  -0.513
 -0.511  -0.504  -0.503  -0.497  -0.496  -0.483  -0.479  -0.476
 -0.473  -0.470  -0.469  -0.468  -0.460  -0.454  -0.451  -0.450
 -0.447  -0.445  -0.442  -0.439  -0.436  -0.436  -0.434  -0.432
 -0.429  -0.426  -0.422  -0.420  -0.417  -0.413  -0.413  -0.410
 -0.406  -0.405  -0.404  -0.402  -0.398  -0.395  -0.394  -0.393
 -0.392  -0.390  -0.389  -0.387  -0.386  -0.386  -0.383  -0.380
 -0.379  -0.376  -0.374  -0.373  -0.367  -0.364  -0.359  -0.357
 -0.357  -0.354  -0.352  -0.350  -0.348  -0.345  -0.343  -0.342
 -0.335  -0.334  -0.332  -0.331  -0.328  -0.326  -0.321  -0.320
 -0.314  -0.308  -0.305  -0.303  -0.301  -0.300  -0.299  -0.298
 -0.296  -0.293  -0.291  -0.290  -0.289  -0.287  -0.285  -0.285
 -0.282  -0.272  -0.266  -0.264  -0.254  -0.253  -0.252  -0.250
 -0.250  -0.243  -0.239  -0.225  -0.199  -0.193

          Ground-State Mulliken Net Atomic Charges

     Atom                 Charge (a.u.)
  ----------------------------------------
      1 C                     0.276226
      2 C                    -0.142362
      3 N                    -0.456775
      4 C                    -0.076336
      5 C                     0.066271
      6 C                     0.054948
      7 C                    -0.019646
      8 C                     0.056935
      9 C                     0.255381
     10 N                    -0.472947
     11 N                    -0.543273
     12 C                     0.203063
     13 C                     0.212996
     14 S                     0.625119
     15 N                    -0.508899
     16 C                    -0.202165
     17 S                     0.347528
     18 C                    -0.106170
     19 C                    -0.219430
     20 S                     0.243721
     21 C                     0.153822
     22 C                     0.071809
     23 C                    -0.290072
     24 C                    -0.086935
     25 N                    -0.422663
     26 S                     0.264501
     27 C                     0.105002
     28 C                    -0.304809
     29 C                    -0.223188
     30 H                     0.097608
     31 H                     0.113435
     32 H                     0.106993
     33 H                     0.108404
     34 H                     0.135517
     35 H                     0.111032
     36 H                     0.122676
     37 H                     0.131787
     38 H                     0.112467
     39 C                    -0.177612
     40 H                     0.086300
     41 H                     0.111959
     42 H                     0.097997
     43 C                    -0.192858
     44 H                     0.094646
     45 C                    -0.175983
     46 H                     0.087364
     47 H                     0.089835
     48 H                     0.089996
     49 C                    -0.173177
     50 H                     0.086443
     51 C                    -0.329684
     52 H                     0.105461
     53 H                     0.099938
     54 H                     0.123677
     55 H                     0.091369
     56 C                     0.275107
     57 C                    -0.121926
     58 N                    -0.479447
     59 C                    -0.091540
     60 C                     0.086960
     61 C                     0.037779
     62 C                     0.015421
     63 C                     0.051269
     64 C                     0.278343
     65 N                    -0.538193
     66 N                    -0.595444
     67 C                     0.159641
     68 C                     0.339450
     69 S                     0.632362
     70 N                    -0.562321
     71 C                    -0.217100
     72 S                     0.301314
     73 C                    -0.107876
     74 C                    -0.245278
     75 S                     0.283562
     76 C                     0.153050
     77 C                     0.096835
     78 C                    -0.300797
     79 C                    -0.055651
     80 N                    -0.445044
     81 S                     0.252779
     82 C                     0.107347
     83 C                    -0.300163
     84 C                    -0.232645
     85 H                     0.094370
     86 H                     0.099195
     87 H                     0.126812
     88 H                     0.114931
     89 H                     0.124488
     90 H                     0.129250
     91 H                     0.109948
     92 H                     0.144341
     93 H                     0.119918
     94 C                    -0.198703
     95 H                     0.125411
     96 H                     0.096003
     97 H                     0.099273
     98 C                    -0.173496
     99 H                     0.091999
    100 C                    -0.184141
    101 H                     0.097332
    102 H                     0.091307
    103 H                     0.086640
    104 C                    -0.173332
    105 H                     0.092404
    106 C                    -0.323572
    107 H                     0.093215
    108 H                     0.107052
    109 H                     0.106535
    110 H                     0.107793
  ----------------------------------------
  Sum of atomic charges =     0.000000

                    Cartesian Multipole Moments
 -----------------------------------------------------------------
    Charge (ESU x 10^10)
                 0.0000
    Dipole Moment (Debye)
         X       1.6055      Y      -0.3698      Z       3.3694
       Tot       3.7507
    Quadrupole Moments (Debye-Ang)
        XX    -399.2363     XY      15.0373     YY    -436.0149
        XZ       3.8342     YZ      11.7814     ZZ    -429.4865

 Total job time:  88.72s(wall), 967.60s(cpu)
        *  Thank you very much for using Q-Chem.  Have a nice day.  *
