 Q-Chem 4.4, Q-Chem, Inc., Pleasanton, CA (2016)
 Q-Chem 4.4.2 for Intel X86 Linux

User input:
--------------------------------------------------------------
$comment
SP
$end

$rem
MEM_STATIC 5000
MEM_TOTAL 20000
JOBTYPE SP
EXCHANGE B3LYP
BASIS 6-31g(d,p)
$end

$molecule
0 1
C          20.722000     12.487000      3.551000
C          19.826000     12.729000      4.632000
N          21.984000     12.181000      3.764000
C          20.254000     12.734000      5.976000
C          22.374000     12.115000      5.000000
C          21.629000     12.368000      6.152000
C          22.199000     12.392000      7.542000
C          21.576000     13.202000      8.531000
C          23.406000     11.741000      8.000000
N          21.939000     13.124000      9.831000
N          24.161000     10.945000      7.263000
C          23.895000     11.801000      9.286000
C          23.080000     12.515000     10.232000
S          25.309000     10.276000      8.217000
N          25.019000     11.130000      9.566000
C          23.455000     12.714000     11.687000
S          25.155000     12.517000     12.313000
C          22.681000     13.124000     12.776000
C          24.644000     13.008000     13.933000
S          20.958000     13.592000     12.836000
C          23.296000     13.157000     14.028000
C          25.542000     13.085000     15.027000
C          21.049000     13.741000     14.631000
C          22.357000     13.497000     15.019000
N          26.845000     12.895000     14.851000
S          25.060000     13.533000     16.657000
C          27.514000     13.002000     16.034000
C          26.706000     13.198000     17.126000
C          20.192000     12.494000      2.104000
H          18.784000     12.983000      4.462000
H          19.521000     12.783000      6.775000
H          23.418000     11.879000      5.201000
H          20.658000     13.749000      8.322000
H          20.249000     14.059000     15.287000
H          22.615000     13.415000     16.069000
H          28.594000     12.969000     15.981000
H          26.960000     13.088000     18.172000
H          20.709000     11.718000      1.526000
C          20.334000     13.927000      1.532000
H          19.156000     12.162000      2.246000
H          21.372000     14.267000      1.433000
H          19.849000     14.586000      2.262000
C          19.867000     14.014000      0.062000
H          20.269000     15.013000     -0.146000
C          18.345000     13.999000     -0.077000
H          20.341000     13.279000     -0.601000
H          18.057000     14.730000     -0.842000
H          17.840000     14.284000      0.854000
C          17.689000     12.718000     -0.640000
H          17.923000     12.661000     -1.710000
C          16.198000     12.660000     -0.321000
H          18.186000     11.835000     -0.221000
H          16.003000     12.282000      0.691000
H          15.775000     11.942000     -1.034000
H          15.713000     13.640000     -0.401000
C          19.442000      7.440000     -2.721000
C          20.372000      8.368000     -2.116000
N          18.317000      6.951000     -2.141000
C          20.126000      8.796000     -0.794000
C          18.083000      7.379000     -0.899000
C          18.952000      8.315000     -0.145000
C          18.631000      8.645000      1.331000
C          17.327000      8.890000      1.773000
C          19.663000      8.814000      2.284000
N          17.061000      9.376000      2.980000
N          20.936000      8.498000      2.011000
C          19.423000      9.276000      3.562000
C          18.064000      9.591000      3.859000
S          21.695000      8.679000      3.475000
N          20.469000      9.294000      4.400000
C          17.683000     10.098000      5.171000
S          18.601000      9.948000      6.683000
C          16.505000     10.739000      5.520000
C          17.450000     10.859000      7.667000
S          15.206000     11.149000      4.415000
C          16.432000     11.201000      6.821000
C          17.624000     11.307000      8.992000
C          14.437000     11.993000      5.790000
C          15.196000     11.925000      6.984000
N          18.789000     10.989000      9.530000
S          16.542000     12.261000      9.961000
C          18.812000     11.270000     10.864000
C          17.626000     11.832000     11.316000
C          19.606000      7.074000     -4.212000
H          21.174000      8.857000     -2.661000
H          20.809000      9.502000     -0.332000
H          17.180000      6.982000     -0.436000
H          16.492000      8.845000      1.075000
H          13.496000     12.501000      5.624000
H          14.932000     12.370000      7.936000
H          19.630000     10.913000     11.474000
H          17.391000     12.132000     12.329000
H          20.576000      7.433000     -4.579000
C          18.525000      7.646000     -5.147000
H          19.571000      5.986000     -4.348000
H          17.540000      7.249000     -4.871000
H          18.721000      7.323000     -6.177000
C          18.475000      9.161000     -5.022000
H          17.605000      9.373000     -5.656000
C          19.545000      9.885000     -5.731000
H          18.324000      9.515000     -3.995000
H          19.572000      9.603000     -6.791000
H          20.518000      9.572000     -5.333000
C          19.293000     11.367000     -5.554000
H          19.734000     11.901000     -6.404000
C          19.885000     11.990000     -4.293000
H          18.233000     11.633000     -5.645000
H          20.958000     11.827000     -4.454000
H          19.594000     11.381000     -3.427000
H          19.658000     13.034000     -4.046000
$end

--------------------------------------------------------------

             Standard Nuclear Orientation (Angstroms)
    I     Atom           X                Y                Z
 ----------------------------------------------------------------
    1      C       1.8689481802    -0.7726207524     1.6843834546
    2      C       1.0887641388     0.4188547036     1.6438853152
    3      N       1.3412597125    -1.9455484481     1.4061129000
    4      C      -0.2976732058     0.4007480360     1.3850250478
    5      C       0.0805568619    -1.9667947472     1.0989827691
    6      C      -0.8141666212    -0.8971044770     1.0619609576
    7      C      -2.2905517205    -1.0347523488     0.8192345645
    8      C      -3.1747640750    -0.0648116601     1.3667138540
    9      C      -2.9654948769    -2.1238431885     0.1493488439
   10      N      -4.4846974755    -0.0432702185     1.0328524268
   11      N      -2.3595211055    -3.1448884090    -0.4312305615
   12      C      -4.3267586156    -2.2104383575    -0.0403332859
   13      C      -5.0941041792    -1.0813106319     0.4126439378
   14      S      -3.4760221983    -4.0366796410    -1.2272925618
   15      N      -4.8064075570    -3.2743131426    -0.6961719357
   16      C      -6.6042640195    -0.9949264134     0.3166959131
   17      S      -7.6718995096    -2.4525471120     0.0796698397
   18      C      -7.4607078719     0.1019786752     0.4447589995
   19      C      -9.1196422540    -1.4430785364     0.1874480423
   20      S      -7.0771180513     1.8103999450     0.7990309496
   21      C      -8.8237345820    -0.1172822515     0.2425194545
   22      C     -10.4300238846    -1.9719966599     0.0764768712
   23      C      -8.8083781378     2.2592769816     0.5671798789
   24      C      -9.5251036970     1.1002127231     0.3145566075
   25      N     -10.6288757027    -3.2830703545    -0.0037024396
   26      S     -11.8879225269    -0.9920945369     0.1416794631
   27      C     -11.9578770896    -3.5651832427    -0.1162485717
   28      C     -12.7666425905    -2.4594124036    -0.1993943232
   29      C       3.3804937837    -0.6859373712     1.9715661144
   30      H       1.5187330606     1.3891577796     1.8737084361
   31      H      -0.8283648791     1.3338892683     1.2246979175
   32      H      -0.3823312403    -2.9279996043     0.8802298776
   33      H      -2.8012037393     0.8096513392     1.8971675640
   34      H      -9.2354612835     3.2453789157     0.6962649756
   35      H     -10.5687999941     1.1489063820     0.0245308032
   36      H     -12.2327040141    -4.6109013823    -0.0810103245
   37      H     -13.8001377440    -2.4112538714    -0.5160969022
   38      H       3.9071341460    -1.4325403311     1.3642910951
   39      C       3.6026148468    -0.8232712713     3.4988639351
   40      H       3.6271329504     0.3021767546     1.5635421004
   41      H       3.3137279564    -1.7999577461     3.9056475316
   42      H       2.9462107488    -0.0764830840     3.9612999452
   43      C       5.1013702905    -0.7940272924     3.8722737766
   44      H       4.9854351577    -1.1227110810     4.9121752201
   45      C       5.6996564409     0.6109503210     3.8080741823
   46      H       5.7128325163    -1.5196447454     3.3208544640
   47      H       6.3649694384     0.7468513983     4.6691313885
   48      H       4.9317894220     1.3922995945     3.8617822283
   49      C       6.6658005796     0.9263520771     2.6438777918
   50      H       7.6036439927     0.3883837006     2.8281188252
   51      C       6.8351409766     2.4292575167     2.4418751442
   52      H       6.2879658420     0.4745633348     1.7190065341
   53      H       6.0209629536     2.8639614024     1.8475690962
   54      H       7.7645721728     2.5438285825     1.8710396842
   55      H       6.8747053403     2.9785762757     3.3898775504
   56      C       9.0602426075    -1.9409770155    -1.9719563960
   57      C       8.0371551676    -2.5448344239    -1.1468762056
   58      N       8.9546727211    -0.7595946667    -2.6309986898
   59      C       6.7982834069    -1.8805088969    -1.0233757818
   60      C       7.7868035935    -0.1297828087    -2.4898508089
   61      C       6.6418024801    -0.6317081855    -1.6918430605
   62      C       5.3004839461     0.1372549703    -1.7006325656
   63      C       5.2410490888     1.5323587080    -1.6234441028
   64      C       4.0634841294    -0.5493139510    -1.6848664679
   65      N       4.1047806993     2.1890728983    -1.4199210836
   66      N       3.9879506266    -1.8742058961    -1.8689045725
   67      C       2.8574804087     0.1004635889    -1.5185169132
   68      C       2.9371146798     1.5139263137    -1.3450334602
   69      S       2.3552571578    -2.1523025005    -1.9643630223
   70      N       1.7518183764    -0.6497906824    -1.6248841960
   71      C       1.7340931425     2.3126745075    -1.1493436456
   72      S       0.0699257990     1.8596758112    -1.5697092412
   73      C       1.6487547814     3.6061463127    -0.6594313541
   74      C      -0.6669658332     3.3415737037    -0.9500743822
   75      S       3.0009116345     4.5684307217    -0.0917989372
   76      C       0.3701803245     4.1038149194    -0.4892922464
   77      C      -2.0409026465     3.6097822152    -0.7858585867
   78      C       1.7947030539     5.7925128406     0.3991245052
   79      C       0.4606653853     5.4081330198     0.1181678319
   80      N      -2.8400276945     2.6215694490    -1.1500394299
   81      S      -2.7929590902     5.0266425544    -0.1174882668
   82      C      -4.1448863555     3.0169397903    -1.1585346008
   83      C      -4.3091263680     4.3387873944    -0.7680373154
   84      C      10.4703459662    -2.5691181805    -2.0032644569
   85      H       8.2088924905    -3.4090604569    -0.5120772957
   86      H       6.0258313391    -2.3160987362    -0.3973180411
   87      H       7.7052852497     0.8172268925    -3.0226869801
   88      H       6.1565209667     2.1194015906    -1.5622403870
   89      H       2.1424670850     6.6968271222     0.8811793349
   90      H      -0.4305117964     5.9846348043     0.3360529471
   91      H      -4.8977336767     2.3749522577    -1.5941329466
   92      H      -5.2389634940     4.8888605247    -0.7031029601
   93      H      10.4488689228    -3.5564099709    -1.5244496104
   94      C      11.5667746217    -1.7465543509    -1.3024057339
   95      H      10.8117470079    -2.6987808376    -3.0377198325
   96      H      11.6849000902    -0.7756056312    -1.7997134429
   97      H      12.5287211466    -2.2670777501    -1.3881919451
   98      C      11.1816891072    -1.4907375385     0.1465997543
   99      H      12.0000041603    -0.8227296697     0.4431228752
  100      C      11.3804944860    -2.6303870701     1.0595249245
  101      H      10.2029677261    -1.0103349049     0.2656113829
  102      H      12.4144799117    -2.9942623917     1.0113389335
  103      H      10.7698654453    -3.4759503946     0.7200299482
  104      C      11.0148619509    -2.1712782655     2.4547628809
  105      H      11.5733348639    -2.7753123787     3.1795992731
  106      C       9.5399860114    -2.2990210639     2.8250826622
  107      H      11.3743504855    -1.1596828620     2.6785478965
  108      H       9.3924562516    -3.3840532319     2.7560959650
  109      H       8.9347232385    -1.8414811966     2.0314629512
  110      H       9.1833852551    -1.8932390114     3.7793629284
 ----------------------------------------------------------------

   10   -5663.5085067048      3.82E-06 Convergence criterion met
 Total energy in the final basis set = -5663.5085067048

                    Orbital Energies (a.u.)
 --------------------------------------------------------------

 Alpha MOs
 -- Occupied --
-88.987 -88.986 -88.932 -88.925 -88.922 -88.919 -88.913 -88.911
-14.391 -14.385 -14.384 -14.375 -14.352 -14.347 -14.338 -14.338
-14.338 -14.323 -10.267 -10.266 -10.264 -10.264 -10.253 -10.252
-10.252 -10.251 -10.247 -10.239 -10.239 -10.238 -10.238 -10.237
-10.237 -10.237 -10.235 -10.233 -10.233 -10.231 -10.229 -10.228
-10.228 -10.227 -10.227 -10.227 -10.227 -10.226 -10.216 -10.213
-10.212 -10.210 -10.210 -10.207 -10.207 -10.206 -10.205 -10.196
-10.187 -10.184 -10.182 -10.178 -10.175 -10.175 -10.174 -10.173
-10.173 -10.172 -10.171 -10.166  -8.043  -8.041  -7.993  -7.987
 -7.980  -7.978  -7.972  -7.970  -6.008  -6.006  -6.002  -6.000
 -6.000  -5.998  -5.957  -5.954  -5.951  -5.949  -5.947  -5.944
 -5.944  -5.942  -5.940  -5.938  -5.937  -5.936  -5.934  -5.934
 -5.933  -5.931  -5.928  -5.926  -1.045  -1.038  -0.972  -0.968
 -0.963  -0.954  -0.948  -0.939  -0.916  -0.911  -0.909  -0.906
 -0.840  -0.839  -0.826  -0.825  -0.818  -0.812  -0.808  -0.807
 -0.805  -0.803  -0.797  -0.793  -0.783  -0.782  -0.770  -0.764
 -0.749  -0.747  -0.740  -0.739  -0.724  -0.718  -0.710  -0.709
 -0.694  -0.692  -0.677  -0.674  -0.657  -0.656  -0.645  -0.641
 -0.639  -0.637  -0.624  -0.618  -0.613  -0.612  -0.604  -0.601
 -0.599  -0.595  -0.585  -0.583  -0.582  -0.580  -0.565  -0.557
 -0.544  -0.542  -0.541  -0.537  -0.525  -0.525  -0.518  -0.517
 -0.507  -0.502  -0.496  -0.495  -0.487  -0.482  -0.477  -0.474
 -0.474  -0.471  -0.469  -0.468  -0.466  -0.458  -0.452  -0.452
 -0.446  -0.443  -0.441  -0.440  -0.439  -0.438  -0.436  -0.434
 -0.433  -0.433  -0.427  -0.423  -0.421  -0.418  -0.415  -0.414
 -0.411  -0.406  -0.403  -0.401  -0.400  -0.399  -0.397  -0.397
 -0.394  -0.393  -0.392  -0.391  -0.390  -0.387  -0.385  -0.385
 -0.379  -0.377  -0.374  -0.372  -0.370  -0.363  -0.360  -0.359
 -0.356  -0.352  -0.350  -0.349  -0.348  -0.345  -0.342  -0.338
 -0.336  -0.334  -0.333  -0.333  -0.331  -0.330  -0.327  -0.324
 -0.318  -0.308  -0.305  -0.304  -0.302  -0.300  -0.298  -0.296
 -0.295  -0.293  -0.291  -0.289  -0.287  -0.284  -0.281  -0.280
 -0.276  -0.269  -0.266  -0.264  -0.263  -0.255  -0.251  -0.249
 -0.245  -0.241  -0.230  -0.229  -0.195  -0.191

          Ground-State Mulliken Net Atomic Charges

     Atom                 Charge (a.u.)
  ----------------------------------------
      1 C                     0.246636
      2 C                    -0.127989
      3 N                    -0.470308
      4 C                    -0.087171
      5 C                     0.073685
      6 C                     0.065862
      7 C                     0.062113
      8 C                     0.057684
      9 C                     0.246835
     10 N                    -0.515981
     11 N                    -0.565457
     12 C                     0.203795
     13 C                     0.286882
     14 S                     0.599198
     15 N                    -0.563928
     16 C                    -0.215372
     17 S                     0.353965
     18 C                    -0.147989
     19 C                    -0.226007
     20 S                     0.261929
     21 C                     0.188550
     22 C                     0.064014
     23 C                    -0.309561
     24 C                    -0.095465
     25 N                    -0.438359
     26 S                     0.269302
     27 C                     0.130022
     28 C                    -0.320640
     29 C                    -0.220710
     30 H                     0.093634
     31 H                     0.124290
     32 H                     0.111479
     33 H                     0.113976
     34 H                     0.135631
     35 H                     0.110890
     36 H                     0.115879
     37 H                     0.133071
     38 H                     0.107195
     39 C                    -0.178417
     40 H                     0.106460
     41 H                     0.106588
     42 H                     0.099888
     43 C                    -0.185470
     44 H                     0.090840
     45 C                    -0.170139
     46 H                     0.097092
     47 H                     0.091854
     48 H                     0.089810
     49 C                    -0.186465
     50 H                     0.097275
     51 C                    -0.326814
     52 H                     0.090760
     53 H                     0.115385
     54 H                     0.100304
     55 H                     0.102369
     56 C                     0.256254
     57 C                    -0.126618
     58 N                    -0.457806
     59 C                    -0.053131
     60 C                     0.076720
     61 C                     0.012652
     62 C                     0.034685
     63 C                     0.059647
     64 C                     0.221495
     65 N                    -0.521881
     66 N                    -0.558966
     67 C                     0.252731
     68 C                     0.282348
     69 S                     0.616321
     70 N                    -0.565292
     71 C                    -0.217184
     72 S                     0.352842
     73 C                    -0.136493
     74 C                    -0.229332
     75 S                     0.284976
     76 C                     0.160141
     77 C                     0.059652
     78 C                    -0.309679
     79 C                    -0.090846
     80 N                    -0.439727
     81 S                     0.264494
     82 C                     0.148307
     83 C                    -0.318643
     84 C                    -0.219499
     85 H                     0.102957
     86 H                     0.119958
     87 H                     0.103707
     88 H                     0.116866
     89 H                     0.129111
     90 H                     0.105251
     91 H                     0.131400
     92 H                     0.128307
     93 H                     0.090438
     94 C                    -0.181853
     95 H                     0.109169
     96 H                     0.108976
     97 H                     0.088336
     98 C                    -0.168018
     99 H                     0.089281
    100 C                    -0.167178
    101 H                     0.104939
    102 H                     0.090636
    103 H                     0.080868
    104 C                    -0.179544
    105 H                     0.084223
    106 C                    -0.322171
    107 H                     0.091688
    108 H                     0.101131
    109 H                     0.104837
    110 H                     0.105615
  ----------------------------------------
  Sum of atomic charges =     0.000000

                    Cartesian Multipole Moments
 -----------------------------------------------------------------
    Charge (ESU x 10^10)
                 0.0000
    Dipole Moment (Debye)
         X      -2.4308      Y       2.0627      Z       1.2601
       Tot       3.4280
    Quadrupole Moments (Debye-Ang)
        XX    -395.2284     XY     -21.2280     YY    -424.1569
        XZ      19.2297     YZ      11.0404     ZZ    -455.4080

 Total job time:  109.24s(wall), 1228.23s(cpu)
        *  Thank you very much for using Q-Chem.  Have a nice day.  *
