 Q-Chem 4.4, Q-Chem, Inc., Pleasanton, CA (2016)
 Q-Chem 4.4.2 for Intel X86 Linux

User input:
--------------------------------------------------------------
$comment
SP
$end

$rem
MEM_STATIC 5000
MEM_TOTAL 20000
JOBTYPE SP
EXCHANGE B3LYP
BASIS 6-31g(d,p)
$end

$molecule
0 1
C           2.323000     19.230000     10.867000
C           3.662000     19.577000     10.754000
N           1.738000     18.394000     10.026000
C           4.456000     19.046000      9.744000
C           2.446000     17.848000      9.017000
C           3.830000     18.183000      8.770000
C           4.577000     17.637000      7.588000
C           5.826000     17.042000      7.759000
C           4.143000     17.737000      6.240000
N           6.632000     16.673000      6.748000
N           2.903000     18.234000      5.878000
C           4.944000     17.368000      5.163000
C           6.258000     16.895000      5.461000
S           2.830000     18.082000      4.253000
N           4.348000     17.546000      3.953000
C           7.256000     16.456000      4.502000
S           8.670000     15.639000      5.086000
C           7.531000     17.024000      3.248000
C           9.481000     15.646000      3.471000
S           6.598000     17.994000      2.190000
C           8.722000     16.515000      2.675000
C          10.874000     15.324000      3.262000
C           7.866000     17.891000      0.963000
C           8.874000     17.022000      1.347000
N          11.404000     15.434000      2.047000
S          12.014000     14.874000      4.539000
C          12.706000     15.188000      2.053000
C          13.215000     14.790000      3.249000
C           1.327000     19.895000     11.871000
H           4.110000     20.295000     11.435000
H           5.474000     19.414000      9.651000
H           1.881000     17.200000      8.349000
H           6.124000     17.032000      8.806000
H           7.668000     18.528000      0.111000
H           9.771000     16.774000      0.792000
H          13.203000     15.107000      1.095000
H          14.233000     14.466000      3.418000
H           1.580000     20.963000     11.872000
C           1.476000     19.369000     13.242000
H           0.283000     19.803000     11.547000
H           1.043000     20.061000     13.975000
H           2.557000     19.384000     13.428000
C           0.898000     17.897000     13.448000
H          -0.188000     17.963000     13.311000
C           0.874000     17.395000     14.870000
H           1.220000     17.143000     12.720000
H           0.533000     18.145000     15.593000
H           1.909000     17.220000     15.190000
C          -0.037000     16.127000     15.076000
H          -1.112000     16.245000     14.889000
C           0.004000     15.592000     16.567000
H           0.199000     15.379000     14.310000
H          -0.338000     14.551000     16.635000
H          -0.538000     16.215000     17.288000
H           1.045000     15.511000     16.903000
C          19.442000      7.440000     -2.721000
C          20.372000      8.368000     -2.116000
N          18.317000      6.951000     -2.141000
C          20.126000      8.796000     -0.794000
C          18.083000      7.379000     -0.899000
C          18.952000      8.315000     -0.145000
C          18.631000      8.645000      1.331000
C          17.327000      8.890000      1.773000
C          19.663000      8.814000      2.284000
N          17.061000      9.376000      2.980000
N          20.936000      8.498000      2.011000
C          19.423000      9.276000      3.562000
C          18.064000      9.591000      3.859000
S          21.695000      8.679000      3.475000
N          20.469000      9.294000      4.400000
C          17.683000     10.098000      5.171000
S          18.601000      9.948000      6.683000
C          16.505000     10.739000      5.520000
C          17.450000     10.859000      7.667000
S          15.206000     11.149000      4.415000
C          16.432000     11.201000      6.821000
C          17.624000     11.307000      8.992000
C          14.437000     11.993000      5.790000
C          15.196000     11.925000      6.984000
N          18.789000     10.989000      9.530000
S          16.542000     12.261000      9.961000
C          18.812000     11.270000     10.864000
C          17.626000     11.832000     11.316000
C          19.606000      7.074000     -4.212000
H          21.174000      8.857000     -2.661000
H          20.809000      9.502000     -0.332000
H          17.180000      6.982000     -0.436000
H          16.492000      8.845000      1.075000
H          13.496000     12.501000      5.624000
H          14.932000     12.370000      7.936000
H          19.630000     10.913000     11.474000
H          17.391000     12.132000     12.329000
H          20.576000      7.433000     -4.579000
C          18.525000      7.646000     -5.147000
H          19.571000      5.986000     -4.348000
H          17.540000      7.249000     -4.871000
H          18.721000      7.323000     -6.177000
C          18.475000      9.161000     -5.022000
H          17.605000      9.373000     -5.656000
C          19.545000      9.885000     -5.731000
H          18.324000      9.515000     -3.995000
H          19.572000      9.603000     -6.791000
H          20.518000      9.572000     -5.333000
C          19.293000     11.367000     -5.554000
H          19.734000     11.901000     -6.404000
C          19.885000     11.990000     -4.293000
H          18.233000     11.633000     -5.645000
H          20.958000     11.827000     -4.454000
H          19.594000     11.381000     -3.427000
H          19.658000     13.034000     -4.046000
$end

--------------------------------------------------------------

             Standard Nuclear Orientation (Angstroms)
    I     Atom           X                Y                Z
 ----------------------------------------------------------------
    1      C     -12.7909404615     0.4542721578    -0.4677394492
    2      C     -11.8302160815     0.7549183500    -1.4231030098
    3      N     -12.5268008245    -0.3026844907     0.5837589504
    4      C     -10.5311714212     0.2736130848    -1.3076681270
    5      C     -11.2897926195    -0.8107417376     0.7544912985
    6      C     -10.2292363730    -0.6107164449    -0.2067060434
    7      C      -8.8850139955    -1.2595582695    -0.0475850632
    8      C      -7.7206927074    -0.5001310978    -0.1519560786
    9      C      -8.6752430622    -2.6513389488     0.1378945756
   10      N      -6.4805351937    -1.0187329039    -0.1832531692
   11      N      -9.7064838093    -3.5539710535     0.3314166807
   12      C      -7.4098932383    -3.2309141573     0.1119446068
   13      C      -6.3021035062    -2.3646386575    -0.1360426263
   14      S      -8.9820547021    -4.9986336879     0.5706035141
   15      N      -7.4222210657    -4.5778575012     0.3032340548
   16      C      -4.9034351137    -2.7488599103    -0.2031750093
   17      S      -3.6967845122    -1.5031375814    -0.2137203919
   18      C      -4.3736358169    -3.9151558976    -0.7774844861
   19      C      -2.3456778633    -2.6558534532    -0.5480135900
   20      S      -5.0558324539    -5.4484180105    -1.1158157460
   21      C      -2.9631517579    -3.8653145962    -0.8955588864
   22      C      -1.0157161166    -2.2530789002    -0.9439787550
   23      C      -3.4681615239    -6.0587425414    -1.5961978700
   24      C      -2.4719729445    -5.1275132557    -1.3530902158
   25      N      -0.1070661915    -3.1759409926    -1.2471385677
   26      S      -0.4875098316    -0.5788356146    -1.1692264873
   27      C       1.0237569737    -2.6328779357    -1.6738439523
   28      C       1.0669590646    -1.2748834311    -1.6304215521
   29      C     -14.3038965946     0.8226534235    -0.6000874090
   30      H     -12.0818534148     1.3481375086    -2.2976078311
   31      H      -9.8418871785     0.4696015074    -2.1242909108
   32      H     -11.1660954127    -1.4526860850     1.6250999683
   33      H      -7.9432609073     0.5495531003    -0.3356391768
   34      H      -3.5189989295    -7.0549897048    -2.0154640716
   35      H      -1.4126518893    -5.2346787172    -1.5543176144
   36      H       1.8739730754    -3.2893995526    -1.8059270590
   37      H       1.9344904780    -0.6698834695    -1.8567516059
   38      H     -14.5580426446     0.6471159796    -1.6532874807
   39      C     -14.5681100712     2.2381562188    -0.2759561465
   40      H     -14.9468286540     0.1739809834     0.0075625169
   41      H     -15.5279257107     2.5626024347    -0.6968249993
   42      H     -13.8022923924     2.7960643496    -0.8288067596
   43      C     -14.4906132460     2.5821539558     1.2793456889
   44      H     -15.3164257588     2.0459379311     1.7620744621
   45      C     -14.9242645054     3.9741040346     1.6654616859
   46      H     -13.5943939377     2.2372380898     1.8085035073
   47      H     -15.8315927076     4.3086035229     1.1493457825
   48      H     -14.1732658791     4.6831232879     1.2945941058
   49      C     -15.1965925633     4.1450638569     3.2071462087
   50      H     -16.0137209609     3.5549678300     3.6414339715
   51      C     -15.5953250924     5.6309080102     3.5869705396
   52      H     -14.3541084738     3.7331588966     3.7750466071
   53      H     -15.4534536635     5.8289620344     4.6574452479
   54      H     -16.6066763256     5.9221430259     3.2802380034
   55      H     -14.8865779838     6.3327927047     3.1307102940
   56      C      11.7464381812    -2.4991473508     1.9596804872
   57      C      11.8200871303    -1.8507822463     0.6688251415
   58      N      10.8089417589    -2.2673420397     2.9128398421
   59      C      10.8601108906    -0.8637043771     0.3597832363
   60      C       9.8937750758    -1.3475719485     2.6013965541
   61      C       9.8500227171    -0.5899829675     1.3270662723
   62      C       8.8043984048     0.5323705567     1.1333929281
   63      C       7.4745945054     0.3903070090     1.5423483507
   64      C       9.1273899747     1.7209556727     0.4371631759
   65      N       6.5249565285     1.2524166235     1.1977388248
   66      N      10.3882269738     2.0210173787     0.0978004874
   67      C       8.1771426975     2.6622351653     0.0975295073
   68      C       6.8381663037     2.3525084525     0.4790089697
   69      S      10.2647235084     3.5647631755    -0.4969547640
   70      N       8.6261194642     3.7908936331    -0.4692455152
   71      C       5.7423576888     3.2614064353     0.1681039418
   72      S       5.8639156938     4.9895993944    -0.2191178905
   73      C       4.3849906986     2.9823436917     0.1748001242
   74      C       4.1328005365     5.2214871582    -0.4882765371
   75      S       3.6721656930     1.4142110421     0.5055061941
   76      C       3.5565684996     4.0052568918    -0.2479755201
   77      C       3.4949331523     6.3596870071    -1.0214100139
   78      C       2.0987520518     2.1529477887     0.0896221565
   79      C       2.2002406208     3.5174194344    -0.2767904505
   80      N       4.3131504964     7.3475725677    -1.3414029777
   81      S       1.8067077573     6.5925194242    -1.3612409742
   82      C       3.6229088401     8.4807061825    -1.6554422535
   83      C       2.2472939987     8.3109135269    -1.5806207175
   84      C      12.6898995432    -3.6832479268     2.2625327359
   85      H      12.4868593267    -2.1692467974    -0.1270047196
   86      H      10.8959974912    -0.3778531795    -0.6102836509
   87      H       9.1443122443    -1.1626598511     3.3704869132
   88      H       7.1420209693    -0.5289921168     2.0227002638
   89      H       1.2125922579     1.5324482957     0.1179452711
   90      H       1.3821999625     4.1620618757    -0.5755723181
   91      H       4.1516623236     9.4161393492    -1.7740067691
   92      H       1.4868276142     9.0573234993    -1.7702441103
   93      H      13.4660630765    -3.7480800917     1.4893335636
   94      C      12.0054815769    -5.0601614360     2.3377074370
   95      H      13.1844402852    -3.5439989601     3.2318129739
   96      H      11.2737878004    -5.0727937279     3.1553104229
   97      H      12.7524023992    -5.8302662603     2.5672566578
   98      C      11.2672461445    -5.3478290215     1.0393986114
   99      H      10.7695858088    -6.2872655815     1.3106791675
  100      C      12.1184181902    -5.7744994637    -0.0854193660
  101      H      10.5440460511    -4.5717741688     0.7608909983
  102      H      12.7276088493    -6.6435640824     0.1929085509
  103      H      12.8445930310    -4.9834918812    -0.3092029784
  104      C      11.2115962708    -6.0810699081    -1.2579574545
  105      H      11.7086329788    -6.8161017314    -1.9020224587
  106      C      10.8580035182    -4.8915443147    -2.1460537488
  107      H      10.3010657776    -6.6169143479    -0.9639473230
  108      H      11.8463334054    -4.6027126717    -2.5249987527
  109      H      10.5043052778    -4.0684816766    -1.5112439753
  110      H      10.1260774859    -5.0159775857    -2.9530696373
 ----------------------------------------------------------------

   10   -5663.5174978425      3.70E-06 Convergence criterion met
 Total energy in the final basis set = -5663.5174978425

                    Orbital Energies (a.u.)
 --------------------------------------------------------------

 Alpha MOs
 -- Occupied --
-88.993 -88.990 -88.932 -88.931 -88.921 -88.919 -88.912 -88.908
-14.396 -14.389 -14.389 -14.384 -14.353 -14.352 -14.340 -14.338
-14.338 -14.327 -10.273 -10.267 -10.267 -10.265 -10.261 -10.258
-10.257 -10.255 -10.245 -10.241 -10.241 -10.239 -10.239 -10.238
-10.238 -10.237 -10.233 -10.233 -10.232 -10.232 -10.231 -10.229
-10.229 -10.229 -10.228 -10.227 -10.227 -10.225 -10.224 -10.223
-10.219 -10.217 -10.212 -10.209 -10.208 -10.206 -10.201 -10.198
-10.183 -10.182 -10.182 -10.182 -10.176 -10.175 -10.174 -10.174
-10.173 -10.173 -10.173 -10.167  -8.048  -8.045  -7.993  -7.991
 -7.981  -7.978  -7.972  -7.969  -6.013  -6.010  -6.007  -6.006
 -6.005  -6.003  -5.957  -5.955  -5.954  -5.952  -5.950  -5.948
 -5.945  -5.942  -5.941  -5.938  -5.937  -5.936  -5.934  -5.933
 -5.933  -5.930  -5.928  -5.925  -1.043  -1.034  -0.977  -0.972
 -0.965  -0.959  -0.942  -0.940  -0.917  -0.912  -0.911  -0.897
 -0.848  -0.840  -0.831  -0.829  -0.819  -0.813  -0.810  -0.805
 -0.804  -0.804  -0.799  -0.798  -0.784  -0.781  -0.771  -0.769
 -0.750  -0.748  -0.739  -0.739  -0.723  -0.718  -0.711  -0.710
 -0.698  -0.695  -0.679  -0.675  -0.658  -0.650  -0.647  -0.646
 -0.640  -0.631  -0.629  -0.626  -0.613  -0.613  -0.605  -0.598
 -0.595  -0.593  -0.584  -0.583  -0.582  -0.579  -0.571  -0.558
 -0.552  -0.545  -0.545  -0.543  -0.526  -0.521  -0.519  -0.513
 -0.508  -0.504  -0.503  -0.497  -0.489  -0.487  -0.478  -0.477
 -0.475  -0.474  -0.472  -0.470  -0.468  -0.459  -0.453  -0.448
 -0.447  -0.442  -0.441  -0.439  -0.438  -0.436  -0.434  -0.433
 -0.432  -0.430  -0.428  -0.422  -0.421  -0.417  -0.416  -0.415
 -0.414  -0.413  -0.403  -0.402  -0.402  -0.401  -0.399  -0.398
 -0.395  -0.394  -0.394  -0.392  -0.390  -0.386  -0.385  -0.383
 -0.380  -0.379  -0.374  -0.373  -0.370  -0.367  -0.359  -0.359
 -0.357  -0.353  -0.351  -0.351  -0.346  -0.344  -0.339  -0.339
 -0.336  -0.335  -0.334  -0.331  -0.331  -0.330  -0.325  -0.323
 -0.321  -0.308  -0.306  -0.305  -0.304  -0.302  -0.302  -0.301
 -0.297  -0.296  -0.294  -0.293  -0.288  -0.288  -0.283  -0.280
 -0.278  -0.277  -0.267  -0.267  -0.265  -0.254  -0.252  -0.250
 -0.244  -0.243  -0.237  -0.231  -0.195  -0.194

          Ground-State Mulliken Net Atomic Charges

     Atom                 Charge (a.u.)
  ----------------------------------------
      1 C                     0.277748
      2 C                    -0.113601
      3 N                    -0.471934
      4 C                    -0.073483
      5 C                     0.091192
      6 C                    -0.001678
      7 C                     0.021149
      8 C                     0.079603
      9 C                     0.211332
     10 N                    -0.533177
     11 N                    -0.544143
     12 C                     0.253047
     13 C                     0.293779
     14 S                     0.617318
     15 N                    -0.572865
     16 C                    -0.214601
     17 S                     0.319549
     18 C                    -0.137544
     19 C                    -0.213479
     20 S                     0.292910
     21 C                     0.129162
     22 C                     0.046783
     23 C                    -0.321271
     24 C                    -0.049680
     25 N                    -0.420146
     26 S                     0.261018
     27 C                     0.137370
     28 C                    -0.321462
     29 C                    -0.210825
     30 H                     0.090244
     31 H                     0.107178
     32 H                     0.114739
     33 H                     0.110108
     34 H                     0.139725
     35 H                     0.124874
     36 H                     0.114505
     37 H                     0.140998
     38 H                     0.094503
     39 C                    -0.181707
     40 H                     0.117217
     41 H                     0.091740
     42 H                     0.087517
     43 C                    -0.176559
     44 H                     0.095382
     45 C                    -0.168879
     46 H                     0.107918
     47 H                     0.089239
     48 H                     0.087107
     49 C                    -0.186888
     50 H                     0.096086
     51 C                    -0.328434
     52 H                     0.095038
     53 H                     0.100231
     54 H                     0.106583
     55 H                     0.102079
     56 C                     0.256575
     57 C                    -0.125985
     58 N                    -0.457430
     59 C                    -0.050043
     60 C                     0.076651
     61 C                     0.012676
     62 C                     0.035937
     63 C                     0.060431
     64 C                     0.217697
     65 N                    -0.516437
     66 N                    -0.552000
     67 C                     0.244338
     68 C                     0.284709
     69 S                     0.595118
     70 N                    -0.558772
     71 C                    -0.220670
     72 S                     0.350908
     73 C                    -0.130991
     74 C                    -0.216453
     75 S                     0.284291
     76 C                     0.159508
     77 C                     0.066479
     78 C                    -0.320129
     79 C                    -0.089181
     80 N                    -0.431230
     81 S                     0.270824
     82 C                     0.130521
     83 C                    -0.316502
     84 C                    -0.219530
     85 H                     0.102532
     86 H                     0.113299
     87 H                     0.104303
     88 H                     0.116829
     89 H                     0.133384
     90 H                     0.105538
     91 H                     0.121316
     92 H                     0.128567
     93 H                     0.090299
     94 C                    -0.182565
     95 H                     0.109262
     96 H                     0.109374
     97 H                     0.088543
     98 C                    -0.167408
     99 H                     0.089464
    100 C                    -0.166792
    101 H                     0.104623
    102 H                     0.090532
    103 H                     0.080274
    104 C                    -0.178591
    105 H                     0.083767
    106 C                    -0.317061
    107 H                     0.091410
    108 H                     0.100825
    109 H                     0.100556
    110 H                     0.103795
  ----------------------------------------
  Sum of atomic charges =     0.000000

                    Cartesian Multipole Moments
 -----------------------------------------------------------------
    Charge (ESU x 10^10)
                 0.0000
    Dipole Moment (Debye)
         X      -0.0303      Y       0.4567      Z      -3.9451
       Tot       3.9716
    Quadrupole Moments (Debye-Ang)
        XX    -426.4960     XY     -13.5360     YY    -414.4444
        XZ      -1.2049     YZ      -2.9313     ZZ    -451.4322

 Total job time:  90.38s(wall), 977.71s(cpu)
        *  Thank you very much for using Q-Chem.  Have a nice day.  *
