 Q-Chem 4.4, Q-Chem, Inc., Pleasanton, CA (2016)
 Q-Chem 4.4.2 for Intel X86 Linux

User input:
--------------------------------------------------------------
$comment
SP
$end

$rem
MEM_STATIC 5000
MEM_TOTAL 20000
JOBTYPE SP
EXCHANGE B3LYP
BASIS 6-31g(d,p)
$end

$molecule
0 1
C          16.960000      7.318000     13.038000
C          17.441000      8.053000     11.947000
N          17.591000      6.194000     13.480000
C          18.536000      7.575000     11.260000
C          18.605000      5.689000     12.800000
C          19.184000      6.384000     11.694000
C          20.400000      5.966000     10.973000
C          20.757000      4.636000     10.858000
C          21.414000      6.880000     10.435000
N          21.918000      4.195000     10.350000
N          21.319000      8.237000     10.601000
C          22.623000      6.411000      9.879000
C          22.861000      5.028000      9.824000
S          22.697000      8.807000      9.843000
N          23.440000      7.390000      9.367000
C          24.154000      4.458000      9.367000
S          25.488000      5.309000      8.606000
C          24.527000      3.121000      9.632000
C          26.483000      3.835000      8.579000
S          23.718000      1.822000     10.539000
C          25.818000      2.845000      9.244000
C          27.743000      3.738000      7.990000
C          25.142000      0.888000     10.237000
C          26.205000      1.502000      9.634000
N          28.109000      4.879000      7.361000
S          28.814000      2.388000      7.794000
C          29.319000      4.671000      6.762000
C          29.801000      3.414000      6.854000
C          15.825000      7.879000     13.793000
H          16.967000      8.975000     11.624000
H          18.863000      8.139000     10.392000
H          19.040000      4.714000     13.018000
H          20.113000      3.822000     11.187000
H          25.141000     -0.117000     10.638000
H          27.115000      0.946000      9.438000
H          29.814000      5.485000      6.249000
H          30.757000      2.999000      6.562000
H          15.547000      7.432000     14.756000
C          14.544000      7.921000     12.934000
H          16.168000      8.916000     13.896000
H          14.164000      6.894000     12.859000
H          14.688000      8.313000     11.920000
C          13.415000      8.818000     13.549000
H          13.309000      8.487000     14.589000
C          12.089000      8.706000     12.798000
H          13.829000      9.831000     13.477000
H          11.308000      9.260000     13.334000
H          11.815000      7.645000     12.852000
C          12.030000      9.070000     11.288000
H          11.943000     10.159000     11.188000
C          10.774000      8.324000     10.639000
H          12.931000      8.819000     10.714000
H          10.706000      7.255000     10.873000
H          11.015000      8.285000      9.569000
H           9.835000      8.840000     10.872000
C          19.442000      7.440000     -2.721000
C          20.372000      8.368000     -2.116000
N          18.317000      6.951000     -2.141000
C          20.126000      8.796000     -0.794000
C          18.083000      7.379000     -0.899000
C          18.952000      8.315000     -0.145000
C          18.631000      8.645000      1.331000
C          17.327000      8.890000      1.773000
C          19.663000      8.814000      2.284000
N          17.061000      9.376000      2.980000
N          20.936000      8.498000      2.011000
C          19.423000      9.276000      3.562000
C          18.064000      9.591000      3.859000
S          21.695000      8.679000      3.475000
N          20.469000      9.294000      4.400000
C          17.683000     10.098000      5.171000
S          18.601000      9.948000      6.683000
C          16.505000     10.739000      5.520000
C          17.450000     10.859000      7.667000
S          15.206000     11.149000      4.415000
C          16.432000     11.201000      6.821000
C          17.624000     11.307000      8.992000
C          14.437000     11.993000      5.790000
C          15.196000     11.925000      6.984000
N          18.789000     10.989000      9.530000
S          16.542000     12.261000      9.961000
C          18.812000     11.270000     10.864000
C          17.626000     11.832000     11.316000
C          19.606000      7.074000     -4.212000
H          21.174000      8.857000     -2.661000
H          20.809000      9.502000     -0.332000
H          17.180000      6.982000     -0.436000
H          16.492000      8.845000      1.075000
H          13.496000     12.501000      5.624000
H          14.932000     12.370000      7.936000
H          19.630000     10.913000     11.474000
H          17.391000     12.132000     12.329000
H          20.576000      7.433000     -4.579000
C          18.525000      7.646000     -5.147000
H          19.571000      5.986000     -4.348000
H          17.540000      7.249000     -4.871000
H          18.721000      7.323000     -6.177000
C          18.475000      9.161000     -5.022000
H          17.605000      9.373000     -5.656000
C          19.545000      9.885000     -5.731000
H          18.324000      9.515000     -3.995000
H          19.572000      9.603000     -6.791000
H          20.518000      9.572000     -5.333000
C          19.293000     11.367000     -5.554000
H          19.734000     11.901000     -6.404000
C          19.885000     11.990000     -4.293000
H          18.233000     11.633000     -5.645000
H          20.958000     11.827000     -4.454000
H          19.594000     11.381000     -3.427000
H          19.658000     13.034000     -4.046000
$end

--------------------------------------------------------------

             Standard Nuclear Orientation (Angstroms)
    I     Atom           X                Y                Z
 ----------------------------------------------------------------
    1      C      -5.4822956454    -4.5528714255     0.9512125764
    2      C      -4.3632605531    -4.1039956724     0.2383745719
    3      N      -6.3570972744    -3.6855272361     1.5337391140
    4      C      -4.1052905377    -2.7507397441     0.1980277808
    5      C      -6.0952347020    -2.3907078483     1.5559144687
    6      C      -4.9956226866    -1.8374639975     0.8304651891
    7      C      -4.7159052977    -0.3975638583     0.6832688193
    8      C      -5.0693841373     0.5159187655     1.6580386413
    9      C      -4.1802023721     0.2349834430    -0.5274922171
   10      N      -4.9823669491     1.8485407906     1.5276064855
   11      N      -3.9251887982    -0.4879619817    -1.6634270700
   12      C      -4.0672316871     1.6359585593    -0.6511220995
   13      C      -4.4651245785     2.4527457830     0.4198110815
   14      S      -3.3645098038     0.6718338448    -2.7306012385
   15      N      -3.4930252828     2.0667689032    -1.8227719845
   16      C      -4.4921051942     3.9346880824     0.3264458432
   17      S      -3.8383518684     4.9369136590    -0.9584776886
   18      C      -5.2051878264     4.7375538560     1.2450549599
   19      C      -4.4579205117     6.4173513424    -0.1917515563
   20      S      -6.2407640886     4.3200271500     2.6298958370
   21      C      -5.2118569989     6.0673751843     0.8915980927
   22      C      -4.2191589103     7.7108708616    -0.6540611400
   23      C      -6.5456665094     6.0175001694     2.7601105150
   24      C      -6.0462453634     6.8427682200     1.7905306248
   25      N      -3.3885762488     7.7331356352    -1.7222908542
   26      S      -4.6628150137     9.2576934867    -0.0071716374
   27      C      -3.1610691376     9.0362420427    -2.0633468687
   28      C      -3.7144969507     9.9535134963    -1.2428788704
   29      C      -5.7709018753    -5.9983004919     0.9309084403
   30      H      -3.6922996247    -4.7922009503    -0.2668718314
   31      H      -3.2084578116    -2.4312223163    -0.3235550744
   32      H      -6.6748094549    -1.6770779429     2.1408926426
   33      H      -5.4646257872     0.2195959508     2.6283735462
   34      H      -7.2066636739     6.3180296694     3.5623522293
   35      H      -6.2265922027     7.9108290016     1.8392459648
   36      H      -2.5610372972     9.2693713417    -2.9330609139
   37      H      -3.7753550869    11.0310794575    -1.3239522102
   38      H      -6.7337268565    -6.3592584510     1.3144959889
   39      C      -4.6717112472    -6.8014732097     1.6570623829
   40      H      -5.6468818290    -6.1949481318    -0.1412742558
   41      H      -4.8106677618    -6.6494869228     2.7351835522
   42      H      -3.6471030137    -6.5117892484     1.3946558847
   43      C      -4.7350677628    -8.3406518685     1.3665627988
   44      H      -5.7749502971    -8.6336523312     1.5541582246
   45      C      -3.7704900053    -9.1508722183     2.2314059838
   46      H      -4.4707845483    -8.4089707129     0.3043782960
   47      H      -3.9363595919   -10.2237660564     2.0715338712
   48      H      -4.0630978395    -8.9385635803     3.2672721419
   49      C      -2.2463446279    -8.8531392067     2.1649761542
   50      H      -1.8220151114    -9.3643458509     1.2919914875
   51      C      -1.5739269610    -9.3641842204     3.5221572310
   52      H      -1.9852283712    -7.7983835210     2.0113963896
   53      H      -2.0826544548    -9.0361715365     4.4363481390
   54      H      -0.6422290785    -8.7878566054     3.5876365093
   55      H      -1.4330034181   -10.4515563821     3.5168339905
   56      C       8.6781781208     2.7401553650     1.8534497690
   57      C       8.1718561567     2.9142052527     0.5097780437
   58      N       8.2498465952     1.8165268985     2.7504383755
   59      C       7.1178444586     2.0809055199     0.0784372326
   60      C       7.2676771118     1.0200162869     2.3245065128
   61      C       6.6384951354     1.0897315388     0.9832224921
   62      C       5.4297627141     0.1846338024     0.6511366280
   63      C       5.3801633595    -1.1606902018     1.0298822258
   64      C       4.3591581689     0.6565573050    -0.1444060266
   65      N       4.4543678597    -1.9974118167     0.5753488037
   66      N       4.2379354223     1.9501970266    -0.4710791300
   67      C       3.3545251834    -0.1717415005    -0.6015292630
   68      C       3.4723641818    -1.5449508343    -0.2344800893
   69      S       2.7558497434     2.0175922664    -1.2133849444
   70      N       2.3447041363     0.4157687842    -1.2586267582
   71      C       2.4805151874    -2.5221257168    -0.6645019740
   72      S       0.8233651279    -2.1942901901    -1.2101626267
   73      C       2.6026754129    -3.9024718979    -0.6738454044
   74      C       0.4251739266    -3.8813114664    -1.5542279992
   75      S       4.0404017860    -4.7979080180    -0.2181448108
   76      C       1.5392121095    -4.5986864324    -1.2176331610
   77      C      -0.7199758441    -4.3727529651    -2.2128039296
   78      C       3.1732133771    -6.2668977549    -0.7514134262
   79      C       1.8713998679    -6.0013541792    -1.2424421389
   80      N      -1.5731286521    -3.4397718272    -2.5994167626
   81      S      -1.1073396302    -6.0156389545    -2.6259333560
   82      C      -2.7406405013    -3.9882495598    -3.0411567978
   83      C      -2.7352562299    -5.3754986255    -2.9936695435
   84      C       9.9257446439     3.5344613893     2.2968330232
   85      H       8.6399231709     3.5557919941    -0.2309173887
   86      H       6.7365267508     2.1922161533    -0.9317982590
   87      H       6.9249554111     0.2814498493     3.0486946465
   88      H       6.2045718497    -1.6067068693     1.5847459690
   89      H       3.6840128355    -7.2190845301    -0.6920395388
   90      H       1.1709857623    -6.7333868060    -1.6265948611
   91      H      -3.5943147578    -3.3528699508    -3.2314355834
   92      H      -3.5404948116    -6.0408296467    -3.2770764220
   93      H      10.1531485821     4.3134740085     1.5579847383
   94      C      11.2026355124     2.6944615724     2.4810069022
   95      H       9.7488887434     4.0220239643     3.2635127664
   96      H      11.0524928839     1.9497814111     3.2727888472
   97      H      12.0258637054     3.3427993007     2.8059661798
   98      C      11.5309880406     1.9544313679     1.1934161622
   99      H      12.3771673588     1.3463760846     1.5369992437
  100      C      12.1590764651     2.7733371694     0.1414393473
  101      H      10.7093485534     1.3313290197     0.8199218291
  102      H      13.0598388552     3.2724931805     0.5200201089
  103      H      11.4807841824     3.5902588407    -0.1336253036
  104      C      12.4747816182     1.8611525567    -1.0244965381
  105      H      13.3207262748     2.2830644226    -1.5799288160
  106      C      11.3457228931     1.6651391073    -2.0322262254
  107      H      12.8730991397     0.8891421206    -0.7095745412
  108      H      11.2087423505     2.6876524884    -2.4057522839
  109      H      10.4298110808     1.3959179452    -1.4898762296
  110      H      11.4652555477     0.9402451319    -2.8462991147
 ----------------------------------------------------------------

    9   -5663.5285874829      9.32E-06 Convergence criterion met
 Total energy in the final basis set = -5663.5285874829

                    Orbital Energies (a.u.)
 --------------------------------------------------------------

 Alpha MOs
 -- Occupied --
-88.990 -88.981 -88.936 -88.929 -88.921 -88.920 -88.913 -88.910
-14.396 -14.389 -14.389 -14.386 -14.354 -14.343 -14.342 -14.339
-14.338 -14.325 -10.271 -10.266 -10.261 -10.259 -10.258 -10.257
-10.255 -10.252 -10.241 -10.241 -10.239 -10.239 -10.238 -10.238
-10.235 -10.234 -10.234 -10.231 -10.230 -10.230 -10.229 -10.228
-10.227 -10.226 -10.225 -10.223 -10.221 -10.221 -10.220 -10.217
-10.210 -10.208 -10.208 -10.207 -10.203 -10.201 -10.199 -10.188
-10.185 -10.184 -10.183 -10.180 -10.179 -10.177 -10.177 -10.176
-10.174 -10.173 -10.173 -10.167  -8.045  -8.036  -7.996  -7.991
 -7.980  -7.978  -7.972  -7.970  -6.010  -6.005  -6.003  -6.001
 -5.995  -5.993  -5.960  -5.957  -5.955  -5.953  -5.952  -5.948
 -5.944  -5.942  -5.940  -5.939  -5.936  -5.936  -5.935  -5.934
 -5.933  -5.931  -5.928  -5.926  -1.043  -1.018  -0.976  -0.968
 -0.965  -0.947  -0.940  -0.935  -0.918  -0.912  -0.910  -0.894
 -0.845  -0.841  -0.829  -0.822  -0.818  -0.814  -0.813  -0.810
 -0.807  -0.802  -0.799  -0.790  -0.785  -0.784  -0.772  -0.766
 -0.751  -0.746  -0.740  -0.738  -0.722  -0.719  -0.711  -0.710
 -0.695  -0.691  -0.680  -0.670  -0.658  -0.649  -0.647  -0.641
 -0.640  -0.632  -0.626  -0.618  -0.614  -0.608  -0.606  -0.599
 -0.596  -0.592  -0.585  -0.584  -0.583  -0.575  -0.561  -0.558
 -0.547  -0.544  -0.544  -0.536  -0.527  -0.521  -0.521  -0.515
 -0.504  -0.504  -0.498  -0.497  -0.490  -0.489  -0.479  -0.474
 -0.473  -0.472  -0.470  -0.468  -0.462  -0.458  -0.455  -0.454
 -0.447  -0.443  -0.441  -0.438  -0.438  -0.434  -0.434  -0.433
 -0.428  -0.427  -0.423  -0.422  -0.418  -0.416  -0.414  -0.412
 -0.411  -0.407  -0.404  -0.402  -0.400  -0.399  -0.395  -0.394
 -0.394  -0.392  -0.391  -0.390  -0.387  -0.385  -0.384  -0.382
 -0.382  -0.378  -0.373  -0.373  -0.370  -0.365  -0.359  -0.358
 -0.357  -0.353  -0.353  -0.351  -0.351  -0.347  -0.342  -0.339
 -0.337  -0.336  -0.335  -0.334  -0.330  -0.330  -0.325  -0.321
 -0.318  -0.315  -0.311  -0.307  -0.302  -0.302  -0.302  -0.299
 -0.296  -0.296  -0.291  -0.289  -0.289  -0.285  -0.283  -0.282
 -0.278  -0.269  -0.267  -0.265  -0.263  -0.255  -0.252  -0.244
 -0.243  -0.242  -0.231  -0.227  -0.196  -0.189

          Ground-State Mulliken Net Atomic Charges

     Atom                 Charge (a.u.)
  ----------------------------------------
      1 C                     0.284184
      2 C                    -0.119715
      3 N                    -0.502780
      4 C                    -0.071572
      5 C                     0.102600
      6 C                     0.013238
      7 C                     0.054911
      8 C                     0.040528
      9 C                     0.211396
     10 N                    -0.539618
     11 N                    -0.547234
     12 C                     0.205449
     13 C                     0.312090
     14 S                     0.603241
     15 N                    -0.558543
     16 C                    -0.237608
     17 S                     0.368314
     18 C                    -0.113548
     19 C                    -0.234158
     20 S                     0.294552
     21 C                     0.141636
     22 C                     0.057056
     23 C                    -0.300218
     24 C                    -0.081507
     25 N                    -0.444221
     26 S                     0.290371
     27 C                     0.134345
     28 C                    -0.315659
     29 C                    -0.222378
     30 H                     0.098468
     31 H                     0.131674
     32 H                     0.098490
     33 H                     0.113134
     34 H                     0.122322
     35 H                     0.115296
     36 H                     0.112114
     37 H                     0.132591
     38 H                     0.114185
     39 C                    -0.190382
     40 H                     0.104294
     41 H                     0.100354
     42 H                     0.099066
     43 C                    -0.177913
     44 H                     0.090795
     45 C                    -0.166262
     46 H                     0.082948
     47 H                     0.089889
     48 H                     0.092588
     49 C                    -0.190028
     50 H                     0.094212
     51 C                    -0.324662
     52 H                     0.100153
     53 H                     0.107844
     54 H                     0.101980
     55 H                     0.109913
     56 C                     0.256816
     57 C                    -0.125896
     58 N                    -0.457334
     59 C                    -0.049677
     60 C                     0.076498
     61 C                     0.012899
     62 C                     0.038238
     63 C                     0.060921
     64 C                     0.217207
     65 N                    -0.516393
     66 N                    -0.550933
     67 C                     0.245979
     68 C                     0.284980
     69 S                     0.600461
     70 N                    -0.559910
     71 C                    -0.218281
     72 S                     0.346569
     73 C                    -0.131197
     74 C                    -0.222142
     75 S                     0.290346
     76 C                     0.161439
     77 C                     0.066711
     78 C                    -0.306979
     79 C                    -0.091714
     80 N                    -0.437876
     81 S                     0.267734
     82 C                     0.129367
     83 C                    -0.324244
     84 C                    -0.219602
     85 H                     0.102890
     86 H                     0.113894
     87 H                     0.104190
     88 H                     0.116844
     89 H                     0.129456
     90 H                     0.103902
     91 H                     0.135317
     92 H                     0.130502
     93 H                     0.090427
     94 C                    -0.182482
     95 H                     0.109539
     96 H                     0.109183
     97 H                     0.088665
     98 C                    -0.167961
     99 H                     0.089613
    100 C                    -0.166636
    101 H                     0.104674
    102 H                     0.090434
    103 H                     0.080316
    104 C                    -0.178707
    105 H                     0.083780
    106 C                    -0.317261
    107 H                     0.091500
    108 H                     0.100784
    109 H                     0.100608
    110 H                     0.104328
  ----------------------------------------
  Sum of atomic charges =     0.000000

                    Cartesian Multipole Moments
 -----------------------------------------------------------------
    Charge (ESU x 10^10)
                 0.0000
    Dipole Moment (Debye)
         X       1.2510      Y       0.4193      Z      -2.2183
       Tot       2.5810
    Quadrupole Moments (Debye-Ang)
        XX    -439.6178     XY      -7.2835     YY    -376.5854
        XZ      -7.7473     YZ       7.3281     ZZ    -447.8088

 Total job time:  86.15s(wall), 951.18s(cpu)
        *  Thank you very much for using Q-Chem.  Have a nice day.  *
