 Q-Chem 4.4, Q-Chem, Inc., Pleasanton, CA (2016)
 Q-Chem 4.4.2 for Intel X86 Linux

User input:
--------------------------------------------------------------
$comment
SP
$end

$rem
MEM_STATIC 5000
MEM_TOTAL 20000
JOBTYPE SP
EXCHANGE B3LYP
BASIS 6-31g(d,p)
$end

$molecule
0 1
C           8.567000     17.963000     -6.612000
C           7.163000     17.959000     -6.543000
N           9.304000     16.937000     -6.366000
C           6.449000     16.774000     -6.338000
C           8.688000     15.728000     -6.265000
C           7.278000     15.581000     -6.136000
C           6.688000     14.209000     -6.057000
C           5.381000     14.114000     -5.448000
C           7.224000     13.056000     -6.640000
N           4.864000     12.894000     -5.130000
N           8.358000     12.992000     -7.405000
C           6.488000     11.907000     -6.489000
C           5.381000     11.747000     -5.664000
S           8.411000     11.439000     -7.968000
N           7.102000     10.887000     -7.137000
C           4.640000     10.424000     -5.377000
S           5.230000      8.794000     -5.866000
C           3.492000     10.340000     -4.626000
C           3.995000      8.075000     -4.908000
S           2.471000     11.555000     -3.851000
C           3.237000      9.020000     -4.282000
C           3.915000      6.672000     -4.717000
C           1.535000     10.236000     -3.168000
C           2.075000      9.017000     -3.495000
N           4.636000      5.953000     -5.527000
S           2.882000      5.826000     -3.533000
C           4.335000      4.641000     -5.321000
C           3.382000      4.437000     -4.341000
C           9.265000     19.315000     -6.654000
H           6.566000     18.857000     -6.671000
H           5.369000     16.682000     -6.407000
H           9.456000     14.979000     -6.078000
H           4.936000     14.992000     -4.982000
H           0.560000     10.368000     -2.717000
H           1.488000      8.161000     -3.183000
H           4.747000      3.807000     -5.873000
H           3.049000      3.487000     -3.944000
H          10.339000     19.096000     -6.688000
C           8.979000     20.054000     -5.376000
H           8.975000     19.924000     -7.519000
H           9.281000     19.463000     -4.502000
H           7.900000     20.234000     -5.301000
C           9.635000     21.410000     -5.207000
H           9.679000     21.636000     -4.134000
C           9.029000     22.541000     -6.088000
H          10.680000     21.254000     -5.501000
H           7.958000     22.603000     -5.859000
H           9.076000     22.238000     -7.142000
C           9.856000     23.851000     -5.887000
H          10.893000     23.601000     -6.142000
C           9.670000     24.333000     -4.425000
H           9.540000     24.660000     -6.558000
H           8.645000     24.195000     -4.061000
H           9.811000     25.420000     -4.376000
H          10.400000     23.913000     -3.722000
C           0.771000     12.829000    -14.012000
C           1.787000     13.344000    -14.808000
N           0.872000     12.777000    -12.697000
C           3.057000     13.631000    -14.316000
C           2.129000     12.986000    -12.204000
C           3.300000     13.387000    -12.950000
C           4.677000     13.669000    -12.335000
C           5.859000     13.254000    -12.995000
C           4.799000     14.222000    -11.076000
N           7.108000     13.447000    -12.516000
N           3.787000     14.640000    -10.335000
C           6.100000     14.322000    -10.573000
C           7.258000     13.932000    -11.272000
S           4.413000     14.988000     -8.934000
N           6.035000     14.721000     -9.295000
C           8.652000     14.072000    -10.711000
S           9.102000     15.425000     -9.598000
C           9.759000     13.534000    -11.283000
C          10.865000     15.266000    -10.053000
S           9.864000     12.325000    -12.540000
C          10.971000     14.184000    -10.946000
C          11.961000     16.000000     -9.550000
C          11.660000     12.458000    -12.416000
C          12.055000     13.526000    -11.591000
N          13.072000     16.014000    -10.317000
S          11.827000     17.321000     -8.404000
C          13.935000     16.913000     -9.736000
C          13.532000     17.463000     -8.587000
C          -0.612000     12.612000    -14.556000
H           1.542000     13.443000    -15.862000
H           3.931000     13.868000    -14.915000
H           2.191000     12.961000    -11.117000
H           5.877000     12.821000    -13.994000
H          12.324000     11.859000    -13.025000
H          13.049000     13.926000    -11.428000
H          14.939000     16.990000    -10.132000
H          14.097000     18.242000     -8.094000
H          -0.465000     12.401000    -15.622000
C          -1.531000     13.827000    -14.341000
H          -1.046000     11.683000    -14.165000
H          -1.624000     14.090000    -13.280000
H          -2.568000     13.528000    -14.536000
C          -1.184000     15.064000    -15.240000
H          -0.335000     15.541000    -14.735000
C          -2.310000     16.099000    -15.379000
H          -0.733000     14.747000    -16.188000
H          -3.075000     15.665000    -16.035000
H          -1.851000     16.918000    -15.945000
C          -3.070000     16.615000    -14.115000
H          -3.433000     15.754000    -13.540000
C          -4.325000     17.432000    -14.521000
H          -2.494000     17.367000    -13.561000
H          -4.021000     18.268000    -15.163000
H          -4.792000     17.783000    -13.593000
H          -5.018000     16.787000    -15.075000
$end

--------------------------------------------------------------

             Standard Nuclear Orientation (Angstroms)
    I     Atom           X                Y                Z
 ----------------------------------------------------------------
    1      C      -4.8034811442    -0.5994217230    -2.0991074997
    2      C      -3.7852668159    -0.0781815112    -2.9161394595
    3      N      -4.6443680647    -1.5884572663    -1.2911144787
    4      C      -2.4624967376    -0.5166264947    -2.7974326089
    5      C      -3.3715881212    -1.9983656652    -1.0394315033
    6      C      -2.2534683008    -1.5902059238    -1.8201771038
    7      C      -0.8866179189    -2.0726273257    -1.4517824452
    8      C       0.0997425780    -2.0526204300    -2.5076459280
    9      C      -0.4576353386    -2.3997902718    -0.1612273892
   10      N       1.2986187384    -2.6762285576    -2.3326549130
   11      N      -1.2023556978    -2.3050884706     0.9840674005
   12      C       0.8587671720    -2.7700500372    -0.0400245177
   13      C       1.7350871833    -3.0305616648    -1.0868630581
   14      S      -0.1491332300    -2.6428580055     2.2121639661
   15      N       1.1427023516    -3.0146692260     1.2626044649
   16      C       3.1685857372    -3.5880503598    -0.9601063987
   17      S       3.8818409305    -4.2407635584     0.5595493221
   18      C       4.0257365749    -3.7377685955    -2.0239851002
   19      C       5.2290539064    -4.8219002447    -0.3389201261
   20      S       3.8974843528    -3.3298714772    -3.7375959978
   21      C       5.1020738016    -4.5374241864    -1.6664797011
   22      C       6.2422415276    -5.6153005548     0.2571140947
   23      C       5.4521074427    -4.1114390395    -3.9713591133
   24      C       5.9121477542    -4.6700406429    -2.8048184323
   25      N       6.2490110611    -5.6330486886     1.5580911034
   26      S       7.5201029646    -6.5154952311    -0.6039205692
   27      C       7.3593544369    -6.3032806273     1.9731907735
   28      C       8.1472907447    -6.7681155097     0.9371840617
   29      C      -6.2365869445    -0.1996196661    -2.4204143323
   30      H      -3.9632691682     0.7002481724    -3.6520466481
   31      H      -1.6127562143    -0.0643256513    -3.3004137121
   32      H      -3.4225977297    -2.8205445572    -0.3272419995
   33      H      -0.2011777420    -1.8054047574    -3.5246987153
   34      H       6.0487244558    -3.9958350445    -4.8669783717
   35      H       6.9120623041    -5.0842043964    -2.8621619428
   36      H       7.6578139096    -6.4491906822     3.0025770951
   37      H       9.0237280593    -7.3977430848     1.0173386018
   38      H      -6.8637922112    -0.7202718544    -1.6868423506
   39      C      -6.5934533326    -0.7125524187    -3.7881670045
   40      H      -6.4060672268     0.8826202379    -2.3635001512
   41      H      -6.4454413600    -1.7979697630    -3.8539138268
   42      H      -5.9376553456    -0.2404016148    -4.5292935919
   43      C      -8.0082105078    -0.4566599361    -4.2683900489
   44      H      -8.2430202923    -1.1947774084    -5.0458139759
   45      C      -8.3062681155     1.0201889479    -4.6590779505
   46      H      -8.6460990465    -0.7339673277    -3.4204538350
   47      H      -7.5820675468     1.3129465578    -5.4292419058
   48      H      -8.0854316474     1.6690101212    -3.8016420406
   49      C      -9.8149041308     1.1588818818    -5.0401444058
   50      H     -10.3841585722     0.8092478433    -4.1703171700
   51      C     -10.0759712780     0.3383578477    -6.3296979155
   52      H     -10.1115084081     2.1985857043    -5.2288766611
   53      H      -9.2537703713     0.4111419824    -7.0513994734
   54      H     -10.9270311595     0.7683585938    -6.8725122820
   55      H     -10.3483055042    -0.7079202055    -6.1435654233
   56      C       4.7070821158     5.8382427620     1.0633653390
   57      C       3.6516617547     6.2854156333     1.8489996589
   58      N       4.6111131201     4.7552025706     0.3150713489
   59      C       2.5113616872     5.5224635287     2.0834198842
   60      C       3.5337729802     3.9590876756     0.5839919633
   61      C       2.4419864957     4.2488269939     1.4854415735
   62      C       1.2220336207     3.3444487021     1.7038285881
   63      C       0.6789081373     3.1685066682     2.9995940414
   64      C       0.6977797522     2.5887031210     0.6743721791
   65      N      -0.3810170658     2.3787588217     3.2816364190
   66      N       1.1119200498     2.6336830254    -0.5803842204
   67      C      -0.3370588824     1.7140693291     1.0203992451
   68      C      -0.8782121180     1.5902190531     2.3140295187
   69      S       0.3565335865     1.4620718435    -1.3101098740
   70      N      -0.6207242610     0.9459350874    -0.0408329348
   71      C      -2.0105676506     0.6519149026     2.6530181159
   72      S      -3.3157554087     0.2612884702     1.4631551379
   73      C      -2.4187121740     0.3792565501     3.9183846520
   74      C      -4.4653048038    -0.1878504863     2.8112224159
   75      S      -1.6086574942     0.7229447467     5.4278364861
   76      C      -3.7593736200    -0.0644942581     4.0219467465
   77      C      -5.7868825230    -0.6716475702     2.7000751552
   78      C      -3.0084239513    -0.0460390253     6.2692631460
   79      C      -4.0651692601    -0.3293266901     5.3859107524
   80      N      -6.5684021820    -0.5282277870     3.7916170868
   81      S      -6.6478944146    -0.8634581489     1.1841001474
   82      C      -7.8377434330    -0.8968311670     3.4128885077
   83      C      -7.9741890811    -1.3534299366     2.1646857402
   84      C       5.8835891890     6.7216459416     0.7614648107
   85      H       3.8082201144     7.2485810137     2.3270623432
   86      H       1.7411456649     5.7412089751     2.8167436250
   87      H       3.4576799575     3.0813515178    -0.0561854256
   88      H       1.0076286426     3.7238442675     3.8767240090
   89      H      -3.0516532311    -0.1376999256     7.3464388553
   90      H      -5.0682433116    -0.6699939372     5.6148065235
   91      H      -8.6013911782    -0.9657633894     4.1763356048
   92      H      -8.9410163285    -1.5896933200     1.7421461711
   93      H       5.9692244441     7.3831801397     1.6318239940
   94      C       5.7062170547     7.5205063017    -0.5413675849
   95      H       6.8191398663     6.1482859418     0.7782350443
   96      H       5.5459139327     6.8658153489    -1.4069435003
   97      H       6.6725361399     7.9524169764    -0.8285532296
   98      C       4.6448000056     8.6712202763    -0.4517562212
   99      H       3.6788374406     8.1629914378    -0.5611855167
  100      C       4.7569523937     9.7416349219    -1.5472270462
  101      H       4.5774616854     9.0654484439     0.5693430406
  102      H       5.6391506739    10.3528844559    -1.3191542473
  103      H       3.8865915810    10.3867879413    -1.3797527578
  104      C       4.8977365433     9.3262932503    -3.0469680635
  105      H       5.7269016135     8.6144494190    -3.1443264023
  106      C       5.2650635834    10.5506079542    -3.9264419696
  107      H       3.9387643081     9.0253040872    -3.4873926040
  108      H       4.4988473026    11.3263729493    -3.8057055487
  109      H       5.3215449854    10.1948539612    -4.9621653630
  110      H       6.2354216412    10.9513943563    -3.6086912818
 ----------------------------------------------------------------

   10   -5663.4835080983      3.65E-06 Convergence criterion met
 Total energy in the final basis set = -5663.4835080983

                    Orbital Energies (a.u.)
 --------------------------------------------------------------

 Alpha MOs
 -- Occupied --
-88.988 -88.987 -88.927 -88.921 -88.918 -88.918 -88.909 -88.907
-14.381 -14.379 -14.376 -14.375 -14.350 -14.349 -14.342 -14.337
-14.326 -14.325 -10.264 -10.263 -10.262 -10.262 -10.250 -10.249
-10.249 -10.245 -10.242 -10.242 -10.241 -10.240 -10.238 -10.229
-10.226 -10.225 -10.224 -10.224 -10.224 -10.224 -10.224 -10.223
-10.223 -10.221 -10.221 -10.221 -10.220 -10.218 -10.218 -10.216
-10.214 -10.209 -10.205 -10.201 -10.201 -10.196 -10.193 -10.192
-10.185 -10.182 -10.181 -10.181 -10.180 -10.178 -10.177 -10.177
-10.177 -10.176 -10.174 -10.171  -8.044  -8.041  -7.989  -7.979
 -7.979  -7.975  -7.968  -7.966  -6.009  -6.006  -6.003  -6.001
 -6.001  -5.999  -5.953  -5.950  -5.946  -5.944  -5.943  -5.940
 -5.940  -5.940  -5.936  -5.936  -5.936  -5.933  -5.932  -5.930
 -5.929  -5.927  -5.924  -5.922  -1.048  -1.025  -0.979  -0.965
 -0.960  -0.950  -0.947  -0.939  -0.915  -0.908  -0.898  -0.887
 -0.846  -0.836  -0.829  -0.827  -0.818  -0.813  -0.806  -0.804
 -0.803  -0.800  -0.794  -0.792  -0.784  -0.778  -0.765  -0.762
 -0.746  -0.743  -0.740  -0.736  -0.726  -0.713  -0.707  -0.706
 -0.691  -0.689  -0.675  -0.672  -0.657  -0.651  -0.646  -0.643
 -0.633  -0.632  -0.627  -0.623  -0.614  -0.611  -0.599  -0.597
 -0.594  -0.587  -0.582  -0.578  -0.574  -0.573  -0.564  -0.556
 -0.547  -0.541  -0.538  -0.536  -0.524  -0.522  -0.515  -0.507
 -0.505  -0.500  -0.499  -0.493  -0.485  -0.484  -0.475  -0.474
 -0.470  -0.468  -0.465  -0.463  -0.461  -0.455  -0.451  -0.446
 -0.446  -0.444  -0.440  -0.438  -0.436  -0.433  -0.430  -0.429
 -0.426  -0.423  -0.422  -0.418  -0.417  -0.415  -0.413  -0.411
 -0.411  -0.409  -0.408  -0.401  -0.399  -0.398  -0.397  -0.394
 -0.393  -0.392  -0.389  -0.389  -0.384  -0.382  -0.381  -0.379
 -0.377  -0.372  -0.371  -0.371  -0.363  -0.357  -0.356  -0.354
 -0.352  -0.350  -0.349  -0.346  -0.345  -0.344  -0.341  -0.337
 -0.336  -0.335  -0.333  -0.331  -0.325  -0.323  -0.319  -0.318
 -0.315  -0.309  -0.307  -0.306  -0.305  -0.302  -0.300  -0.299
 -0.298  -0.293  -0.291  -0.289  -0.288  -0.285  -0.283  -0.278
 -0.275  -0.267  -0.265  -0.260  -0.251  -0.250  -0.249  -0.245
 -0.244  -0.239  -0.231  -0.226  -0.189  -0.188

          Ground-State Mulliken Net Atomic Charges

     Atom                 Charge (a.u.)
  ----------------------------------------
      1 C                     0.282570
      2 C                    -0.106462
      3 N                    -0.469955
      4 C                    -0.076279
      5 C                     0.073332
      6 C                     0.033256
      7 C                     0.004576
      8 C                     0.051533
      9 C                     0.291666
     10 N                    -0.529765
     11 N                    -0.570471
     12 C                     0.197773
     13 C                     0.306550
     14 S                     0.620861
     15 N                    -0.569652
     16 C                    -0.226401
     17 S                     0.365722
     18 C                    -0.122293
     19 C                    -0.223745
     20 S                     0.284622
     21 C                     0.152844
     22 C                     0.087200
     23 C                    -0.301392
     24 C                    -0.097503
     25 N                    -0.439719
     26 S                     0.281731
     27 C                     0.121281
     28 C                    -0.304916
     29 C                    -0.227863
     30 H                     0.090477
     31 H                     0.103502
     32 H                     0.118338
     33 H                     0.119027
     34 H                     0.129612
     35 H                     0.104233
     36 H                     0.114792
     37 H                     0.127566
     38 H                     0.116222
     39 C                    -0.180629
     40 H                     0.101896
     41 H                     0.099722
     42 H                     0.087022
     43 C                    -0.175787
     44 H                     0.096949
     45 C                    -0.179607
     46 H                     0.084073
     47 H                     0.089077
     48 H                     0.087402
     49 C                    -0.173216
     50 H                     0.098395
     51 C                    -0.318776
     52 H                     0.092015
     53 H                     0.106092
     54 H                     0.095366
     55 H                     0.108739
     56 C                     0.273775
     57 C                    -0.109679
     58 N                    -0.467071
     59 C                    -0.078380
     60 C                     0.072790
     61 C                     0.033101
     62 C                     0.017149
     63 C                     0.045936
     64 C                     0.232097
     65 N                    -0.512808
     66 N                    -0.537711
     67 C                     0.228134
     68 C                     0.300466
     69 S                     0.594302
     70 N                    -0.585816
     71 C                    -0.222986
     72 S                     0.334264
     73 C                    -0.115511
     74 C                    -0.228661
     75 S                     0.276656
     76 C                     0.158208
     77 C                     0.023288
     78 C                    -0.317405
     79 C                    -0.052503
     80 N                    -0.428451
     81 S                     0.325819
     82 C                     0.109624
     83 C                    -0.298188
     84 C                    -0.231662
     85 H                     0.083310
     86 H                     0.098134
     87 H                     0.109424
     88 H                     0.114934
     89 H                     0.127153
     90 H                     0.126022
     91 H                     0.107707
     92 H                     0.120177
     93 H                     0.087620
     94 C                    -0.171703
     95 H                     0.110738
     96 H                     0.118524
     97 H                     0.085725
     98 C                    -0.184285
     99 H                     0.100653
    100 C                    -0.174372
    101 H                     0.085485
    102 H                     0.088551
    103 H                     0.087176
    104 C                    -0.177400
    105 H                     0.101384
    106 C                    -0.316809
    107 H                     0.098286
    108 H                     0.102771
    109 H                     0.099816
    110 H                     0.100601
  ----------------------------------------
  Sum of atomic charges =     0.000000

                    Cartesian Multipole Moments
 -----------------------------------------------------------------
    Charge (ESU x 10^10)
                 0.0000
    Dipole Moment (Debye)
         X      -0.2896      Y       0.1944      Z      -1.7559
       Tot       1.7902
    Quadrupole Moments (Debye-Ang)
        XX    -399.9529     XY     -17.0038     YY    -428.7046
        XZ       5.6009     YZ       0.4468     ZZ    -426.5322

 Total job time:  101.81s(wall), 1103.28s(cpu)
        *  Thank you very much for using Q-Chem.  Have a nice day.  *
