 Q-Chem 4.4, Q-Chem, Inc., Pleasanton, CA (2016)
 Q-Chem 4.4.2 for Intel X86 Linux

User input:
--------------------------------------------------------------
$comment
SP
$end

$rem
MEM_STATIC 5000
MEM_TOTAL 20000
JOBTYPE SP
EXCHANGE B3LYP
BASIS 6-31g(d,p)
$end

$molecule
0 1
C          -9.056000    -14.605000     -5.948000
C          -8.477000    -13.823000     -4.944000
N         -10.335000    -14.866000     -5.999000
C          -9.178000    -13.535000     -3.737000
C         -11.004000    -14.704000     -4.826000
C         -10.498000    -14.000000     -3.671000
C         -11.219000    -13.931000     -2.410000
C         -10.531000    -13.887000     -1.140000
C         -12.569000    -13.637000     -2.360000
N         -11.110000    -13.906000      0.062000
N         -13.347000    -13.442000     -3.444000
C         -13.220000    -13.577000     -1.138000
C         -12.469000    -13.771000      0.072000
S         -14.814000    -13.069000     -2.789000
N         -14.529000    -13.214000     -1.183000
C         -13.083000    -13.708000      1.399000
S         -14.672000    -14.354000      1.851000
C         -12.506000    -12.997000      2.490000
C         -14.375000    -13.807000      3.512000
S         -10.909000    -12.255000      2.649000
C         -13.268000    -13.036000      3.625000
C         -15.340000    -14.099000      4.543000
C         -11.331000    -12.018000      4.357000
C         -12.637000    -12.393000      4.737000
N         -15.038000    -13.933000      5.775000
S         -16.977000    -14.788000      4.319000
C         -15.825000    -14.613000      6.593000
C         -16.840000    -15.260000      6.004000
C          -8.250000    -14.972000     -7.144000
H          -7.444000    -13.504000     -5.053000
H          -8.685000    -12.980000     -2.944000
H         -11.962000    -15.220000     -4.794000
H          -9.447000    -13.985000     -1.090000
H         -10.565000    -11.567000      4.974000
H         -13.015000    -12.322000      5.751000
H         -15.751000    -14.475000      7.664000
H         -17.713000    -15.833000      6.287000
H          -7.229000    -15.086000     -6.761000
C          -8.274000    -14.038000     -8.341000
H          -8.398000    -16.023000     -7.423000
H          -9.306000    -13.981000     -8.709000
H          -7.690000    -14.575000     -9.098000
C          -7.763000    -12.580000     -8.190000
H          -6.907000    -12.596000     -7.505000
C          -8.792000    -11.625000     -7.514000
H          -7.526000    -12.207000     -9.194000
H          -8.908000    -11.855000     -6.448000
H          -9.774000    -11.903000     -7.916000
C          -8.604000    -10.026000     -7.706000
H          -8.703000     -9.885000     -8.790000
C          -7.187000     -9.708000     -7.175000
H          -9.473000     -9.526000     -7.261000
H          -7.103000     -8.635000     -7.388000
H          -6.338000    -10.152000     -7.711000
H          -7.171000     -9.849000     -6.087000
C         -13.246000     -6.111000     -9.388000
C         -12.314000     -6.586000     -8.447000
N         -13.814000     -6.921000    -10.326000
C         -12.095000     -8.006000     -8.445000
C         -13.580000     -8.217000    -10.334000
C         -12.667000     -8.853000     -9.432000
C         -12.452000    -10.337000     -9.467000
C         -12.062000    -10.889000    -10.730000
C         -12.600000    -11.253000     -8.416000
N         -11.769000    -12.194000    -10.950000
N         -12.882000    -10.945000     -7.167000
C         -12.370000    -12.593000     -8.670000
C         -11.958000    -13.084000     -9.913000
S         -12.981000    -12.380000     -6.380000
N         -12.612000    -13.361000     -7.595000
C         -11.519000    -14.481000    -10.087000
S         -11.450000    -15.834000     -8.877000
C         -10.809000    -14.953000    -11.160000
C         -10.433000    -16.884000     -9.892000
S         -10.715000    -14.196000    -12.746000
C         -10.264000    -16.240000    -11.065000
C          -9.970000    -18.255000     -9.579000
C          -9.776000    -15.624000    -13.266000
C          -9.726000    -16.631000    -12.316000
N          -9.106000    -18.944000    -10.365000
S         -10.495000    -18.995000     -8.063000
C          -8.906000    -20.175000     -9.848000
C          -9.491000    -20.331000     -8.627000
C         -13.507000     -4.613000     -9.457000
H         -11.775000     -5.948000     -7.753000
H         -11.559000     -8.486000     -7.633000
H         -14.035000     -8.814000    -11.122000
H         -11.918000    -10.240000    -11.593000
H          -9.284000    -15.584000    -14.228000
H          -9.264000    -17.595000    -12.493000
H          -8.200000    -20.888000    -10.254000
H          -9.287000    -21.229000     -8.059000
H         -12.549000     -4.089000     -9.562000
C         -14.168000     -4.045000     -8.161000
H         -14.181000     -4.377000    -10.290000
H         -14.552000     -3.084000     -8.525000
H         -13.467000     -3.769000     -7.363000
C         -15.385000     -4.855000     -7.578000
H         -16.066000     -4.948000     -8.432000
C         -16.102000     -4.139000     -6.403000
H         -15.174000     -5.886000     -7.268000
H         -16.128000     -3.077000     -6.678000
H         -15.431000     -4.218000     -5.539000
C         -17.617000     -4.627000     -6.381000
H         -18.174000     -4.040000     -5.639000
C         -17.758000     -6.181000     -6.028000
H         -18.027000     -4.465000     -7.385000
H         -17.441000     -6.424000     -5.007000
H         -17.349000     -6.908000     -6.741000
H         -18.836000     -6.386000     -6.008000
$end

--------------------------------------------------------------

             Standard Nuclear Orientation (Angstroms)
    I     Atom           X                Y                Z
 ----------------------------------------------------------------
    1      C      -1.4858795225     2.8458415765     1.8902835186
    2      C      -0.6896825839     2.3785131687     2.9402623727
    3      N      -1.2201454190     2.6065448889     0.6338260057
    4      C       0.6313794149     1.8975273753     2.7065063850
    5      C       0.0670987204     2.2529019358     0.3736852990
    6      C       1.0311790264     1.8365364469     1.3650812558
    7      C       2.4210238689     1.5530931376     1.0445906880
    8      C       3.4889920837     1.8208888384     1.9804909790
    9      C       2.7719195829     0.7771278207    -0.0445309879
   10      N       4.7928197695     1.6697845571     1.7404766835
   11      N       1.8929112556     0.2616779996    -0.9277188742
   12      C       4.1079076533     0.5266767841    -0.3148921429
   13      C       5.1154928404     1.0361352440     0.5744678339
   14      S       2.8542476402    -0.6070536480    -1.9481994865
   15      N       4.3532802859    -0.3016561456    -1.3641451289
   16      C       6.5444954004     0.8009691532     0.3634166710
   17      S       7.3918840210     0.8223598878    -1.1947925454
   18      C       7.4293709657     0.4021474452     1.4058501121
   19      C       8.9045861503     0.4934229094    -0.3288412001
   20      S       7.1678910769     0.3192997082     3.1525666089
   21      C       8.7123606449     0.1983462498     0.9783076514
   22      C      10.1479610916     0.4437907759    -1.0575423780
   23      C       8.9121079181     0.0101224215     3.2693314001
   24      C       9.6085162717    -0.1164177322     2.0488134796
   25      N      11.2634900103     0.4524793913    -0.4313605038
   26      S      10.3529647981     0.4599568875    -2.8358500390
   27      C      12.2789126748     0.8204045724    -1.1958478309
   28      C      11.9809502829     1.0160033485    -2.4876351709
   29      C      -2.8167941552     3.4397756080     2.1913642499
   30      H      -1.0558155140     2.4655366849     3.9596271677
   31      H       1.2551805787     1.5998172906     3.5444585397
   32      H       0.3513401363     2.3733743679    -0.6702194910
   33      H       3.2873573211     2.3196697271     2.9279724024
   34      H       9.3063468327    -0.0960498986     4.2714038110
   35      H      10.6777615053    -0.2831427996     1.9778319150
   36      H      13.2934145360     0.7631874318    -0.8229226743
   37      H      12.4917723748     1.2311678377    -3.4167810330
   38      H      -2.6795940488     3.9431219826     3.1557005802
   39      C      -4.0224689267     2.5176280523     2.2329963389
   40      H      -2.9966611833     4.3467587035     1.6002842919
   41      H      -4.1394843152     2.0635644580     1.2411139612
   42      H      -4.8660225761     3.2034801997     2.3761678177
   43      C      -4.0740181556     1.3644503694     3.2708835721
   44      H      -3.6101101967     1.7273142714     4.1957274477
   45      C      -3.2265040969     0.1214723156     2.8652143989
   46      H      -5.1240013583     1.0674685117     3.3833604591
   47      H      -2.1524828077     0.3337889384     2.9293386681
   48      H      -3.3704408154    -0.0049002794     1.7851569058
   49      C      -3.5423163995    -1.2970353285     3.5843163758
   50      H      -4.5784108945    -1.5081531505     3.2899094082
   51      C      -3.3778111396    -1.0396262857     5.1001173536
   52      H      -2.9324108242    -2.0678535081     3.0974483000
   53      H      -3.6614713377    -2.0106682700     5.5248153131
   54      H      -4.0742946752    -0.3318196061     5.5682555693
   55      H      -2.3182813437    -0.8594346321     5.3210439920
   56      C      -4.2895395098    -6.7296545726     0.4806381109
   57      C      -3.5706570375    -5.9028776278     1.3634619181
   58      N      -5.0227900354    -6.2296246709    -0.5541960613
   59      C      -3.5446415211    -4.5053615651     1.0308404403
   60      C      -5.0166198956    -4.9417582047    -0.8295102357
   61      C      -4.3225272282    -3.9745178530    -0.0330490182
   62      C      -4.3280634348    -2.5206959024    -0.4019352967
   63      C      -5.6161318144    -1.9138781783    -0.5588591604
   64      C      -3.2245039620    -1.6854912219    -0.6258786640
   65      N      -5.8291046686    -0.6040695266    -0.8351160323
   66      N      -1.9624623118    -2.0263913174    -0.4664202119
   67      C      -3.4537630609    -0.3682181337    -0.9797824317
   68      C      -4.7308570749     0.1911333709    -1.0894673146
   69      S      -1.0989736522    -0.7026358829    -0.9028304368
   70      N      -2.3126555619     0.2956423126    -1.2271202242
   71      C      -4.9286852065     1.6426907709    -1.2581419866
   72      S      -3.6986692872     2.9703525731    -1.4125601758
   73      C      -6.1120301568     2.3028631349    -1.0530074493
   74      C      -4.8672566051     4.2832591830    -1.1338238951
   75      S      -7.7135545026     1.5732911920    -1.0642123542
   76      C      -6.0796569226     3.7029989346    -1.0215318021
   77      C      -4.5995437820     5.7392291198    -1.1552805348
   78      C      -8.3632796719     3.2269724411    -0.8784691699
   79      C      -7.3995268066     4.2165866735    -0.9828391169
   80      N      -5.5291034792     6.6695941032    -0.8245952356
   81      S      -2.9653146351     6.2888244537    -1.5409242360
   82      C      -5.0089316766     7.9055447836    -0.9811110861
   83      C      -3.6779526397     7.8798639559    -1.2730653608
   84      C      -4.3748330054    -8.2178401244     0.7887205399
   85      H      -3.0581844816    -6.2642117446     2.2500342702
   86      H      -2.8573805546    -3.8274363494     1.5259462532
   87      H      -5.6422833389    -4.5907089203    -1.6478546960
   88      H      -6.5220876125    -2.4957152551    -0.3932822656
   89      H      -9.4148364191     3.3356530440    -0.6514781261
   90      H      -7.6287581278     5.2755299377    -0.9701440558
   91      H      -5.5312410349     8.8141879767    -0.7105533624
   92      H      -3.1269779891     8.8108822231    -1.2896762150
   93      H      -4.7303392806    -8.3486476377     1.8182202644
   94      C      -2.9917501904    -8.9396564377     0.7164423495
   95      H      -5.0369589933    -8.7222637323     0.0738730038
   96      H      -3.3057164559    -9.9882788358     0.6437151170
   97      H      -2.3972319766    -8.9008121281     1.6380823080
   98      C      -2.0961395925    -8.6217700479    -0.5381125118
   99      H      -2.7594630806    -8.8248884665    -1.3869180598
  100      C      -0.8251677909    -9.5065068168    -0.6342453840
  101      H      -1.7900877419    -7.5752610959    -0.6594932271
  102      H      -1.1424914915   -10.5110414892    -0.3270634168
  103      H      -0.1406190596    -9.1474014693     0.1438384057
  104      C      -0.4209002790    -9.6209886818    -2.1696002881
  105      H       0.3990722706   -10.3436466205    -2.2734873494
  106      C       0.0376744723    -8.2201140148    -2.7914245115
  107      H      -1.3072149020    -9.9648354560    -2.7160211743
  108      H       0.9667116457    -7.8353838829    -2.3545587929
  109      H      -0.7118295717    -7.4220369605    -2.8655575241
  110      H       0.3219692260    -8.4331604155    -3.8298351837
 ----------------------------------------------------------------

   10   -5663.4823251417      9.25E-06 Convergence criterion met
 Total energy in the final basis set = -5663.4823251417

                    Orbital Energies (a.u.)
 --------------------------------------------------------------

 Alpha MOs
 -- Occupied --
-88.994 -88.978 -88.931 -88.930 -88.918 -88.917 -88.913 -88.897
-14.399 -14.391 -14.374 -14.366 -14.358 -14.346 -14.345 -14.336
-14.331 -14.323 -10.275 -10.268 -10.267 -10.262 -10.258 -10.257
-10.247 -10.246 -10.242 -10.242 -10.241 -10.236 -10.236 -10.236
-10.235 -10.234 -10.233 -10.227 -10.226 -10.226 -10.225 -10.225
-10.225 -10.223 -10.223 -10.220 -10.219 -10.218 -10.217 -10.213
-10.210 -10.210 -10.208 -10.206 -10.202 -10.199 -10.196 -10.187
-10.186 -10.185 -10.183 -10.182 -10.178 -10.178 -10.176 -10.176
-10.175 -10.172 -10.172 -10.170  -8.050  -8.034  -7.991  -7.991
 -7.980  -7.976  -7.971  -7.957  -6.015  -6.009  -6.008  -5.999
 -5.993  -5.991  -5.955  -5.954  -5.951  -5.951  -5.948  -5.947
 -5.944  -5.941  -5.941  -5.937  -5.937  -5.935  -5.933  -5.931
 -5.927  -5.921  -5.918  -5.913  -1.045  -1.039  -0.991  -0.964
 -0.963  -0.951  -0.944  -0.932  -0.920  -0.914  -0.905  -0.900
 -0.847  -0.844  -0.829  -0.821  -0.814  -0.806  -0.805  -0.803
 -0.801  -0.798  -0.798  -0.787  -0.776  -0.776  -0.766  -0.757
 -0.752  -0.742  -0.741  -0.729  -0.729  -0.712  -0.709  -0.701
 -0.695  -0.687  -0.678  -0.669  -0.659  -0.651  -0.647  -0.641
 -0.637  -0.631  -0.630  -0.622  -0.617  -0.610  -0.600  -0.595
 -0.593  -0.588  -0.583  -0.581  -0.575  -0.573  -0.562  -0.560
 -0.555  -0.547  -0.542  -0.531  -0.530  -0.520  -0.515  -0.513
 -0.504  -0.503  -0.493  -0.492  -0.488  -0.486  -0.484  -0.478
 -0.474  -0.472  -0.468  -0.466  -0.460  -0.454  -0.453  -0.444
 -0.441  -0.441  -0.439  -0.437  -0.433  -0.430  -0.429  -0.428
 -0.425  -0.422  -0.419  -0.418  -0.416  -0.414  -0.412  -0.410
 -0.408  -0.406  -0.404  -0.401  -0.401  -0.400  -0.397  -0.396
 -0.393  -0.391  -0.390  -0.389  -0.386  -0.385  -0.380  -0.378
 -0.375  -0.374  -0.373  -0.370  -0.369  -0.365  -0.361  -0.360
 -0.356  -0.355  -0.353  -0.347  -0.345  -0.342  -0.341  -0.340
 -0.337  -0.337  -0.328  -0.327  -0.324  -0.322  -0.320  -0.319
 -0.316  -0.309  -0.308  -0.308  -0.305  -0.302  -0.297  -0.295
 -0.294  -0.292  -0.291  -0.290  -0.287  -0.285  -0.281  -0.279
 -0.278  -0.267  -0.265  -0.259  -0.254  -0.254  -0.247  -0.245
 -0.243  -0.234  -0.231  -0.222  -0.196  -0.189

          Ground-State Mulliken Net Atomic Charges

     Atom                 Charge (a.u.)
  ----------------------------------------
      1 C                     0.282365
      2 C                    -0.125791
      3 N                    -0.430701
      4 C                    -0.085674
      5 C                     0.055320
      6 C                     0.036959
      7 C                     0.022155
      8 C                     0.055517
      9 C                     0.257032
     10 N                    -0.485068
     11 N                    -0.570037
     12 C                     0.202067
     13 C                     0.235271
     14 S                     0.606597
     15 N                    -0.532527
     16 C                    -0.204097
     17 S                     0.318091
     18 C                    -0.115379
     19 C                    -0.219246
     20 S                     0.281743
     21 C                     0.176796
     22 C                     0.054827
     23 C                    -0.305468
     24 C                    -0.052158
     25 N                    -0.422908
     26 S                     0.226428
     27 C                     0.134333
     28 C                    -0.310708
     29 C                    -0.232985
     30 H                     0.094602
     31 H                     0.106751
     32 H                     0.115593
     33 H                     0.107876
     34 H                     0.129549
     35 H                     0.131982
     36 H                     0.111442
     37 H                     0.138426
     38 H                     0.084629
     39 C                    -0.178471
     40 H                     0.117476
     41 H                     0.119274
     42 H                     0.099356
     43 C                    -0.176683
     44 H                     0.086454
     45 C                    -0.196527
     46 H                     0.100389
     47 H                     0.093601
     48 H                     0.080839
     49 C                    -0.193363
     50 H                     0.100688
     51 C                    -0.313239
     52 H                     0.097917
     53 H                     0.096499
     54 H                     0.116251
     55 H                     0.103204
     56 C                     0.280825
     57 C                    -0.112031
     58 N                    -0.478277
     59 C                    -0.086470
     60 C                     0.086643
     61 C                     0.025181
     62 C                    -0.007584
     63 C                     0.065360
     64 C                     0.271221
     65 N                    -0.529726
     66 N                    -0.583558
     67 C                     0.197540
     68 C                     0.309230
     69 S                     0.625703
     70 N                    -0.551151
     71 C                    -0.238816
     72 S                     0.339718
     73 C                    -0.125689
     74 C                    -0.259973
     75 S                     0.279895
     76 C                     0.192627
     77 C                     0.061038
     78 C                    -0.312576
     79 C                    -0.064421
     80 N                    -0.438558
     81 S                     0.280346
     82 C                     0.134991
     83 C                    -0.301852
     84 C                    -0.234549
     85 H                     0.096366
     86 H                     0.110317
     87 H                     0.099680
     88 H                     0.117900
     89 H                     0.123431
     90 H                     0.122528
     91 H                     0.118383
     92 H                     0.115923
     93 H                     0.110022
     94 C                    -0.196736
     95 H                     0.115970
     96 H                     0.096907
     97 H                     0.086419
     98 C                    -0.174112
     99 H                     0.094044
    100 C                    -0.178380
    101 H                     0.105408
    102 H                     0.086659
    103 H                     0.092878
    104 C                    -0.178796
    105 H                     0.092492
    106 C                    -0.328540
    107 H                     0.103900
    108 H                     0.104196
    109 H                     0.113988
    110 H                     0.096797
  ----------------------------------------
  Sum of atomic charges =     0.000000

                    Cartesian Multipole Moments
 -----------------------------------------------------------------
    Charge (ESU x 10^10)
                 0.0000
    Dipole Moment (Debye)
         X       4.5736      Y       1.7375      Z       2.1325
       Tot       5.3370
    Quadrupole Moments (Debye-Ang)
        XX    -431.3017     XY     -10.1374     YY    -425.3550
        XZ     -17.6069     YZ      -6.5068     ZZ    -430.7422

 Total job time:  109.80s(wall), 1220.41s(cpu)
        *  Thank you very much for using Q-Chem.  Have a nice day.  *
