 Q-Chem 4.4, Q-Chem, Inc., Pleasanton, CA (2016)
 Q-Chem 4.4.2 for Intel X86 Linux

User input:
--------------------------------------------------------------
$comment
SP
$end

$rem
MEM_STATIC 5000
MEM_TOTAL 20000
JOBTYPE SP
EXCHANGE B3LYP
BASIS 6-31g(d,p)
$end

$molecule
0 1
C          13.549000      8.901000     -3.064000
C          14.836000      9.407000     -3.316000
N          12.506000      9.739000     -2.844000
C          15.003000     10.798000     -3.318000
C          12.691000     11.095000     -2.928000
C          13.924000     11.698000     -3.135000
C          14.135000     13.192000     -3.074000
C          15.317000     13.738000     -3.678000
C          13.183000     14.076000     -2.563000
N          15.487000     15.083000     -3.825000
N          12.018000     13.848000     -1.941000
C          13.431000     15.457000     -2.757000
C          14.605000     15.965000     -3.387000
S          11.287000     15.299000     -1.635000
N          12.399000     16.235000     -2.433000
C          14.882000     17.410000     -3.753000
S          13.851000     18.781000     -3.332000
C          15.913000     17.837000     -4.545000
C          14.785000     19.894000     -4.291000
S          17.257000     17.014000     -5.283000
C          15.839000     19.176000     -4.796000
C          14.580000     21.264000     -4.513000
C          17.752000     18.539000     -5.953000
C          16.833000     19.585000     -5.715000
N          15.564000     22.122000     -4.661000
S          12.968000     21.962000     -4.321000
C          14.991000     23.406000     -4.961000
C          13.614000     23.504000     -4.833000
C          13.253000      7.413000     -3.110000
H          15.667000      8.718000     -3.432000
H          15.987000     11.125000     -3.638000
H          11.810000     11.723000     -2.802000
H          15.972000     13.032000     -4.186000
H          18.606000     18.593000     -6.615000
H          17.000000     20.600000     -6.057000
H          15.679000     24.231000     -5.092000
H          13.051000     24.423000     -4.926000
H          14.097000      6.733000     -3.283000
C          12.230000      7.078000     -4.250000
H          12.838000      7.068000     -2.155000
H          12.351000      7.730000     -5.124000
H          11.208000      7.143000     -3.857000
C          12.392000      5.638000     -4.763000
H          12.583000      4.855000     -4.018000
C          13.464000      5.573000     -5.895000
H          11.410000      5.417000     -5.200000
H          14.384000      6.134000     -5.693000
H          12.991000      6.128000     -6.715000
C          13.662000      4.100000     -6.288000
H          14.337000      3.690000     -5.526000
C          14.271000      4.161000     -7.727000
H          12.715000      3.546000     -6.301000
H          13.645000      4.660000     -8.477000
H          14.632000      3.174000     -8.042000
H          15.148000      4.810000     -7.605000
C          20.648000     18.436000     -1.206000
C          20.383000     19.408000     -2.205000
N          19.851000     18.346000     -0.123000
C          19.138000     20.027000     -2.163000
C          18.726000     19.047000     -0.033000
C          18.260000     19.880000     -1.108000
C          16.954000     20.599000     -0.932000
C          15.777000     19.945000     -0.463000
C          16.754000     21.942000     -1.262000
N          14.575000     20.489000     -0.337000
N          17.767000     22.710000     -1.690000
C          15.536000     22.599000     -1.059000
C          14.413000     21.827000     -0.682000
S          17.074000     24.171000     -1.879000
N          15.603000     23.910000     -1.370000
C          13.110000     22.446000     -0.590000
S          12.674000     24.131000     -1.121000
C          11.933000     21.782000     -0.113000
C          10.943000     23.863000     -0.756000
S          11.828000     20.321000      0.752000
C          10.828000     22.704000     -0.052000
C           9.879000     24.889000     -0.770000
C          10.201000     20.795000      1.212000
C           9.822000     22.043000      0.694000
N           8.891000     24.733000      0.063000
S          10.019000     26.393000     -1.668000
C           8.060000     25.840000     -0.069000
C           8.455000     26.806000     -0.900000
C          21.923000     17.602000     -1.268000
H          20.987000     19.580000     -3.091000
H          18.831000     20.529000     -3.076000
H          18.115000     18.873000      0.851000
H          15.721000     18.863000     -0.345000
H           9.623000     20.114000      1.821000
H           8.803000     22.386000      0.830000
H           7.029000     25.848000      0.262000
H           7.982000     27.764000     -1.073000
H          22.734000     18.168000     -0.792000
C          22.380000     17.011000     -2.608000
H          21.812000     16.709000     -0.641000
H          23.421000     16.667000     -2.624000
H          22.290000     17.857000     -3.301000
C          21.449000     15.889000     -3.096000
H          21.894000     14.956000     -2.728000
C          21.143000     15.702000     -4.604000
H          20.426000     15.990000     -2.712000
H          20.490000     16.540000     -4.878000
H          20.641000     14.750000     -4.813000
C          22.392000     15.747000     -5.606000
H          22.735000     16.786000     -5.689000
C          21.865000     15.396000     -7.017000
H          23.267000     15.182000     -5.262000
H          21.095000     16.093000     -7.370000
H          21.401000     14.403000     -6.964000
H          22.647000     15.342000     -7.784000
$end

--------------------------------------------------------------

             Standard Nuclear Orientation (Angstroms)
    I     Atom           X                Y                Z
 ----------------------------------------------------------------
    1      C       8.6705607083    -2.6638289755     1.1098618569
    2      C       8.4079181987    -1.2860871550     1.0162916254
    3      N       7.6724892751    -3.5705304788     0.9675987276
    4      C       7.0849591126    -0.8866908958     0.7859964140
    5      C       6.4033658305    -3.1466049322     0.6682163412
    6      C       6.0299822500    -1.8120038950     0.5896557077
    7      C       4.5997959940    -1.3622581897     0.4091728174
    8      C       4.3596876646    -0.0241337870    -0.0510739349
    9      C       3.5071586361    -2.2186747731     0.5560579420
   10      N       3.1126765455     0.3933005617    -0.4119698111
   11      N       3.4380244960    -3.4890117208     0.9774336768
   12      C       2.2458611018    -1.7118127428     0.1579117220
   13      C       2.0470091221    -0.3838198369    -0.3218097930
   14      S       1.8703842187    -4.0015720535     0.8626126581
   15      N       1.2850579320    -2.6344809974     0.1291965536
   16      C       0.7645055117     0.1893556987    -0.8922169236
   17      S      -0.7906718627    -0.6468032831    -0.9380916566
   18      C       0.6594802465     1.3901181206    -1.5400543260
   19      C      -1.5367124378     0.6027503433    -1.8935209816
   20      S       1.7943778984     2.6741069642    -1.8428561907
   21      C      -0.5922595715     1.5856674047    -2.0463209609
   22      C      -2.8422609751     0.6715696158    -2.4024570527
   23      C       0.5288467406     3.5210344452    -2.6799312952
   24      C      -0.6576571116     2.7674777740    -2.8202236761
   25      N      -3.5084619283     1.7980316011    -2.5190061224
   26      S      -3.7753635903    -0.8079466744    -2.6533814568
   27      C      -4.7635690678     1.5066345891    -3.1567982907
   28      C      -5.0708680669     0.1637370528    -3.3127166412
   29      C      10.0803061235    -3.1976013667     1.2875720110
   30      H       9.2110709346    -0.5766922707     1.1907696499
   31      H       6.9693342778     0.1766511810     0.6029130303
   32      H       5.6503713489    -3.9165918146     0.5053037522
   33      H       5.2395430099     0.5732193933    -0.2846306715
   34      H       0.7330920145     4.4656102594    -3.1662813741
   35      H      -1.5440454452     3.1567100931    -3.3079653330
   36      H      -5.4412657039     2.3368929768    -3.3068925247
   37      H      -6.0157928010    -0.2127885374    -3.6808534729
   38      H      10.8886997101    -2.4650108881     1.4078882603
   39      C      10.5109536159    -4.0691931074     0.0574400771
   40      H      10.1538987206    -3.8110664696     2.1939492488
   41      H      10.0834744174    -3.7022702468    -0.8839685213
   42      H      10.2265731018    -5.1143566175     0.2304110586
   43      C      12.0357820993    -4.0754313688    -0.1371676829
   44      H      12.6595568460    -4.1407658412     0.7635162084
   45      C      12.4850717957    -2.8646900018    -1.0129970675
   46      H      12.2111593774    -4.9989997058    -0.7032050820
   47      H      12.0227046813    -1.9063922102    -0.7487869349
   48      H      12.0600446719    -3.1005586031    -1.9968018992
   49      C      14.0209805549    -2.8605177046    -1.0789430703
   50      H      14.3452819436    -2.3943301847    -0.1398654348
   51      C      14.3518457357    -2.0300861037    -2.3619998065
   52      H      14.4324889855    -3.8737947778    -1.1673986215
   53      H      13.9454515851    -2.4353721153    -3.2968602470
   54      H      15.4227473661    -1.7970352685    -2.4127147581
   55      H      13.8156810441    -1.0859801426    -2.1995025520
   56      C       0.0016194541     5.5690439174     2.4639118780
   57      C      -0.7605939853     5.6347534345     1.2690382728
   58      N      -0.2502517563     4.6071604975     3.3736036829
   59      C      -1.5358248580     4.5224902675     0.9578506425
   60      C      -1.0989656995     3.6179678309     3.1160992930
   61      C      -1.7374404264     3.4765572490     1.8358559292
   62      C      -2.6463069684     2.3007710728     1.6235790425
   63      C      -2.2721356007     0.9704994980     1.9748329746
   64      C      -3.9019419194     2.3869509352     1.0165346445
   65      N      -2.9870030113    -0.1259931516     1.7667838105
   66      N      -4.4172311599     3.5706174022     0.6524087135
   67      C      -4.7447731667     1.2819356142     0.8585516423
   68      C      -4.2294818915    -0.0013301795     1.1534173819
   69      S      -5.8834805655     3.1750518010     0.0657814592
   70      N      -5.9376269684     1.6193573481     0.3264075065
   71      C      -5.0232113979    -1.1779184713     0.8794329621
   72      S      -6.5984364405    -1.2312873473    -0.0300173270
   73      C      -4.6410771974    -2.5111573363     1.2402675248
   74      C      -6.6499322507    -3.0182691337     0.0438357467
   75      S      -3.4267895442    -2.9987286497     2.3272591116
   76      C      -5.6947193016    -3.4387095001     0.9172887336
   77      C      -7.7826323061    -3.8763812105    -0.3631068145
   78      C      -4.2025491769    -4.5733542612     2.3736937545
   79      C      -5.3500852348    -4.6476869674     1.5692656069
   80      N      -7.9428043084    -4.9957035680     0.2817430825
   81      S      -9.0267554933    -3.3422299769    -1.4833121326
   82      C      -9.0972980509    -5.5947384647    -0.2099228520
   83      C      -9.8009578368    -4.9146984664    -1.1166480068
   84      C       0.9931826116     6.6770731780     2.8016968130
   85      H      -0.6561705914     6.3916943761     0.4973309672
   86      H      -1.8673535857     4.4537789060    -0.0742295150
   87      H      -1.2019667843     2.8541947045     3.8849259236
   88      H      -1.2580544016     0.7132785051     2.2802190947
   89      H      -3.7517113892    -5.3477676485     2.9784707338
   90      H      -5.8480228738    -5.6019664875     1.4431121080
   91      H      -9.3144674829    -6.6485415893    -0.0877655253
   92      H     -10.7543947547    -5.1843921740    -1.5521308969
   93      H       0.4526753908     7.4868444086     3.3084270157
   94      C       1.9132550948     7.2330735559     1.7071374471
   95      H       1.7080527954     6.3179629997     3.5519630991
   96      H       2.3894303336     8.1895909316     1.9533175678
   97      H       1.2309703293     7.3991330610     0.8639430808
   98      C       2.9781482994     6.2138934403     1.2700295029
   99      H       3.8618922459     6.4297480703     1.8834962222
  100      C       3.4407462134     6.1230937994    -0.2065975980
  101      H       2.6607288334     5.1753062061     1.4274062468
  102      H       2.6008389887     5.6738939605    -0.7511197360
  103      H       4.3390988942     5.5059432899    -0.3252429074
  104      C       3.7795706074     7.5041328755    -0.9441334279
  105      H       2.8381766450     8.0276449663    -1.1533498190
  106      C       4.3503752851     7.1551301219    -2.3384899454
  107      H       4.3701971071     8.2046249424    -0.3410934607
  108      H       3.6480743927     6.5806457644    -2.9549793447
  109      H       5.2374210892     6.5265029937    -2.1897227611
  110      H       4.6719123416     8.0279186171    -2.9195090191
 ----------------------------------------------------------------

    9   -5663.5151842563      8.76E-06 Convergence criterion met
 Total energy in the final basis set = -5663.5151842563

                    Orbital Energies (a.u.)
 --------------------------------------------------------------

 Alpha MOs
 -- Occupied --
-88.989 -88.984 -88.927 -88.925 -88.924 -88.922 -88.911 -88.911
-14.384 -14.380 -14.380 -14.372 -14.352 -14.348 -14.347 -14.345
-14.326 -14.322 -10.274 -10.268 -10.268 -10.257 -10.257 -10.255
-10.248 -10.247 -10.245 -10.244 -10.243 -10.240 -10.234 -10.233
-10.232 -10.232 -10.231 -10.230 -10.230 -10.230 -10.229 -10.227
-10.223 -10.223 -10.222 -10.221 -10.221 -10.217 -10.214 -10.211
-10.208 -10.208 -10.200 -10.198 -10.197 -10.194 -10.194 -10.192
-10.186 -10.182 -10.181 -10.181 -10.180 -10.179 -10.177 -10.175
-10.174 -10.174 -10.173 -10.173  -8.044  -8.040  -7.988  -7.983
 -7.983  -7.983  -7.971  -7.971  -6.009  -6.005  -6.004  -6.001
 -5.999  -5.998  -5.952  -5.949  -5.948  -5.947  -5.947  -5.945
 -5.944  -5.944  -5.943  -5.940  -5.940  -5.939  -5.935  -5.935
 -5.932  -5.931  -5.928  -5.927  -1.045  -1.033  -0.975  -0.963
 -0.960  -0.949  -0.934  -0.928  -0.920  -0.910  -0.903  -0.900
 -0.848  -0.841  -0.833  -0.824  -0.809  -0.806  -0.805  -0.804
 -0.802  -0.802  -0.794  -0.791  -0.781  -0.777  -0.767  -0.763
 -0.750  -0.749  -0.742  -0.738  -0.725  -0.717  -0.708  -0.706
 -0.693  -0.692  -0.677  -0.673  -0.653  -0.649  -0.647  -0.638
 -0.636  -0.631  -0.621  -0.620  -0.610  -0.607  -0.595  -0.591
 -0.590  -0.588  -0.584  -0.583  -0.580  -0.579  -0.568  -0.553
 -0.552  -0.547  -0.539  -0.537  -0.526  -0.516  -0.510  -0.508
 -0.507  -0.501  -0.500  -0.497  -0.484  -0.482  -0.475  -0.473
 -0.472  -0.470  -0.469  -0.465  -0.462  -0.460  -0.451  -0.446
 -0.444  -0.442  -0.440  -0.438  -0.436  -0.433  -0.432  -0.430
 -0.428  -0.425  -0.423  -0.421  -0.418  -0.413  -0.412  -0.410
 -0.409  -0.406  -0.403  -0.401  -0.401  -0.399  -0.399  -0.396
 -0.391  -0.391  -0.389  -0.386  -0.384  -0.383  -0.381  -0.377
 -0.375  -0.373  -0.372  -0.372  -0.367  -0.363  -0.356  -0.355
 -0.355  -0.352  -0.348  -0.347  -0.347  -0.345  -0.342  -0.337
 -0.336  -0.336  -0.336  -0.332  -0.331  -0.330  -0.327  -0.318
 -0.314  -0.311  -0.307  -0.305  -0.303  -0.302  -0.297  -0.293
 -0.293  -0.292  -0.290  -0.287  -0.286  -0.281  -0.279  -0.278
 -0.271  -0.270  -0.267  -0.263  -0.257  -0.253  -0.247  -0.244
 -0.243  -0.240  -0.230  -0.226  -0.194  -0.191

          Ground-State Mulliken Net Atomic Charges

     Atom                 Charge (a.u.)
  ----------------------------------------
      1 C                     0.282460
      2 C                    -0.122111
      3 N                    -0.499901
      4 C                    -0.093947
      5 C                     0.063874
      6 C                     0.057479
      7 C                     0.030320
      8 C                     0.074620
      9 C                     0.299545
     10 N                    -0.545699
     11 N                    -0.593014
     12 C                     0.169213
     13 C                     0.342151
     14 S                     0.602210
     15 N                    -0.559761
     16 C                    -0.247141
     17 S                     0.349375
     18 C                    -0.087973
     19 C                    -0.211946
     20 S                     0.295005
     21 C                     0.153175
     22 C                     0.047389
     23 C                    -0.318578
     24 C                    -0.077217
     25 N                    -0.439637
     26 S                     0.273802
     27 C                     0.089757
     28 C                    -0.285104
     29 C                    -0.228004
     30 H                     0.091573
     31 H                     0.091143
     32 H                     0.128046
     33 H                     0.118897
     34 H                     0.124727
     35 H                     0.121171
     36 H                     0.111266
     37 H                     0.139317
     38 H                     0.096774
     39 C                    -0.164656
     40 H                     0.119721
     41 H                     0.097264
     42 H                     0.107041
     43 C                    -0.197499
     44 H                     0.087082
     45 C                    -0.173251
     46 H                     0.093397
     47 H                     0.091205
     48 H                     0.093229
     49 C                    -0.174966
     50 H                     0.097744
     51 C                    -0.319976
     52 H                     0.098833
     53 H                     0.108280
     54 H                     0.094328
     55 H                     0.100043
     56 C                     0.273006
     57 C                    -0.119002
     58 N                    -0.475355
     59 C                    -0.061328
     60 C                     0.075487
     61 C                     0.035807
     62 C                     0.030009
     63 C                     0.055883
     64 C                     0.216221
     65 N                    -0.514960
     66 N                    -0.550105
     67 C                     0.223833
     68 C                     0.299866
     69 S                     0.600395
     70 N                    -0.554695
     71 C                    -0.216873
     72 S                     0.320643
     73 C                    -0.133936
     74 C                    -0.252715
     75 S                     0.309904
     76 C                     0.160940
     77 C                     0.085279
     78 C                    -0.315322
     79 C                    -0.058911
     80 N                    -0.437286
     81 S                     0.242486
     82 C                     0.125442
     83 C                    -0.295152
     84 C                    -0.234105
     85 H                     0.093621
     86 H                     0.115148
     87 H                     0.103040
     88 H                     0.115087
     89 H                     0.128805
     90 H                     0.120134
     91 H                     0.115080
     92 H                     0.131842
     93 H                     0.114202
     94 C                    -0.182481
     95 H                     0.113766
     96 H                     0.099256
     97 H                     0.089037
     98 C                    -0.186327
     99 H                     0.089783
    100 C                    -0.179689
    101 H                     0.109510
    102 H                     0.097320
    103 H                     0.093880
    104 C                    -0.183968
    105 H                     0.093645
    106 C                    -0.315625
    107 H                     0.092216
    108 H                     0.099865
    109 H                     0.099884
    110 H                     0.096441
  ----------------------------------------
  Sum of atomic charges =     0.000000

                    Cartesian Multipole Moments
 -----------------------------------------------------------------
    Charge (ESU x 10^10)
                 0.0000
    Dipole Moment (Debye)
         X      -1.7465      Y      -0.0526      Z      -3.1107
       Tot       3.5679
    Quadrupole Moments (Debye-Ang)
        XX    -391.8033     XY      24.2858     YY    -426.1411
        XZ      20.9538     YZ      -7.8821     ZZ    -451.6890

 Total job time:  97.00s(wall), 1050.55s(cpu)
        *  Thank you very much for using Q-Chem.  Have a nice day.  *
