 Q-Chem 4.4, Q-Chem, Inc., Pleasanton, CA (2016)
 Q-Chem 4.4.2 for Intel X86 Linux

User input:
--------------------------------------------------------------
$comment
SP
$end

$rem
MEM_STATIC 5000
MEM_TOTAL 20000
JOBTYPE SP
EXCHANGE B3LYP
BASIS 6-31g(d,p)
$end

$molecule
0 1
C          26.688000     30.173000      1.424000
C          25.289000     30.391000      1.655000
N          27.128000     29.284000      0.541000
C          24.362000     29.544000      0.980000
C          26.217000     28.483000     -0.089000
C          24.830000     28.518000      0.097000
C          23.915000     27.621000     -0.649000
C          24.490000     26.509000     -1.308000
C          22.536000     27.808000     -0.864000
N          23.631000     25.540000     -1.841000
N          21.848000     28.854000     -0.451000
C          21.731000     26.914000     -1.528000
C          22.316000     25.717000     -2.009000
S          20.258000     28.588000     -0.751000
N          20.432000     27.188000     -1.646000
C          21.558000     24.794000     -2.908000
S          19.865000     24.898000     -3.425000
C          22.125000     23.643000     -3.545000
C          20.000000     23.503000     -4.558000
S          23.727000     22.994000     -3.411000
C          21.241000     22.960000     -4.440000
C          19.020000     23.264000     -5.569000
C          23.296000     21.750000     -4.681000
C          21.903000     21.862000     -5.047000
N          18.184000     24.235000     -5.809000
S          19.145000     22.112000     -6.877000
C          17.489000     24.036000     -6.905000
C          17.785000     22.881000     -7.595000
C          27.671000     31.047000      2.144000
H          24.912000     31.224000      2.240000
H          23.307000     29.711000      1.179000
H          26.714000     27.728000     -0.697000
H          25.564000     26.337000     -1.268000
H          24.054000     21.024000     -4.942000
H          21.429000     21.154000     -5.718000
H          16.744000     24.775000     -7.169000
H          17.352000     22.367000     -8.443000
H          27.844000     31.863000      1.431000
C          28.999000     30.248000      2.576000
H          27.302000     31.574000      3.033000
H          29.504000     29.864000      1.680000
H          28.703000     29.370000      3.163000
C          29.880000     31.152000      3.378000
H          30.163000     31.938000      2.666000
C          31.093000     30.368000      3.908000
H          29.269000     31.636000      4.149000
H          31.707000     29.794000      3.202000
H          30.677000     29.541000      4.497000
C          32.076000     31.217000      4.709000
H          32.174000     32.055000      4.009000
C          33.413000     30.486000      4.908000
H          31.562000     31.434000      5.653000
H          33.915000     30.266000      3.957000
H          33.288000     29.551000      5.468000
H          34.108000     31.112000      5.481000
C          20.648000     18.436000     -1.206000
C          20.383000     19.408000     -2.205000
N          19.851000     18.346000     -0.123000
C          19.138000     20.027000     -2.163000
C          18.726000     19.047000     -0.033000
C          18.260000     19.880000     -1.108000
C          16.954000     20.599000     -0.932000
C          15.777000     19.945000     -0.463000
C          16.754000     21.942000     -1.262000
N          14.575000     20.489000     -0.337000
N          17.767000     22.710000     -1.690000
C          15.536000     22.599000     -1.059000
C          14.413000     21.827000     -0.682000
S          17.074000     24.171000     -1.879000
N          15.603000     23.910000     -1.370000
C          13.110000     22.446000     -0.590000
S          12.674000     24.131000     -1.121000
C          11.933000     21.782000     -0.113000
C          10.943000     23.863000     -0.756000
S          11.828000     20.321000      0.752000
C          10.828000     22.704000     -0.052000
C           9.879000     24.889000     -0.770000
C          10.201000     20.795000      1.212000
C           9.822000     22.043000      0.694000
N           8.891000     24.733000      0.063000
S          10.019000     26.393000     -1.668000
C           8.060000     25.840000     -0.069000
C           8.455000     26.806000     -0.900000
C          21.923000     17.602000     -1.268000
H          20.987000     19.580000     -3.091000
H          18.831000     20.529000     -3.076000
H          18.115000     18.873000      0.851000
H          15.721000     18.863000     -0.345000
H           9.623000     20.114000      1.821000
H           8.803000     22.386000      0.830000
H           7.029000     25.848000      0.262000
H           7.982000     27.764000     -1.073000
H          22.734000     18.168000     -0.792000
C          22.380000     17.011000     -2.608000
H          21.812000     16.709000     -0.641000
H          23.421000     16.667000     -2.624000
H          22.290000     17.857000     -3.301000
C          21.449000     15.889000     -3.096000
H          21.894000     14.956000     -2.728000
C          21.143000     15.702000     -4.604000
H          20.426000     15.990000     -2.712000
H          20.490000     16.540000     -4.878000
H          20.641000     14.750000     -4.813000
C          22.392000     15.747000     -5.606000
H          22.735000     16.786000     -5.689000
C          21.865000     15.396000     -7.017000
H          23.267000     15.182000     -5.262000
H          21.095000     16.093000     -7.370000
H          21.401000     14.403000     -6.964000
H          22.647000     15.342000     -7.784000
$end

--------------------------------------------------------------

             Standard Nuclear Orientation (Angstroms)
    I     Atom           X                Y                Z
 ----------------------------------------------------------------
    1      C       9.5230789388     2.9817708571     0.0296774035
    2      C       8.3959907647     3.8682612103     0.0731871909
    3      N       9.4065008847     1.7079926151    -0.3274059868
    4      C       7.1051367015     3.3181785100    -0.1787409940
    5      C       8.1563371821     1.2064710756    -0.5597610211
    6      C       6.9575860909     1.9240018029    -0.4718094615
    7      C       5.6451824243     1.2987294756    -0.7633246971
    8      C       5.5957645539    -0.1142456374    -0.8134166529
    9      C       4.4489465082     1.9605931631    -1.1006540500
   10      N       4.3396445684    -0.7295577634    -0.8803835827
   11      N       4.3289511258     3.2656503173    -1.2436782869
   12      C       3.2501166016     1.3244863046    -1.3159025565
   13      C       3.2045610525    -0.0835682791    -1.1685866328
   14      S       2.7438161095     3.6264751493    -1.4581740230
   15      N       2.1774369155     2.0614172614    -1.6034648207
   16      C       1.9968168082    -0.8640633427    -1.5770903612
   17      S       0.4345744001    -0.2591429545    -2.1583166360
   18      C       1.9279262505    -2.2948473873    -1.5901329390
   19      C      -0.2044398941    -1.9052236927    -2.5188966344
   20      S       3.1215334199    -3.4540401739    -1.1031678392
   21      C       0.7060863794    -2.8288610847    -2.1106199228
   22      C      -1.3499651817    -2.0965031970    -3.3500560456
   23      C       2.0137974838    -4.7908089953    -1.6795073346
   24      C       0.7491110156    -4.2467480623    -2.1171314180
   25      N      -1.7423429763    -1.0657068690    -4.0449197707
   26      S      -1.9276560682    -3.6215679731    -3.9777850223
   27      C      -2.6300325598    -1.3872667187    -4.9573059096
   28      C      -2.9524820710    -2.7247415529    -5.0275083363
   29      C      10.8827238032     3.5478302013     0.3116484331
   30      H       8.4964434536     4.9422799494     0.1941665498
   31      H       6.2603911354     3.9993857620    -0.1251069721
   32      H       8.1916183507     0.1313338831    -0.7316134476
   33      H       6.4953725002    -0.7052034264    -0.6517551716
   34      H       2.3529440687    -5.8089821810    -1.5451051109
   35      H      -0.0778388419    -4.8847186166    -2.4092418507
   36      H      -3.0397698307    -0.5898264655    -5.5631494632
   37      H      -3.6927569747    -3.3036450504    -5.5638410759
   38      H      11.2530383989     3.8095508762    -0.6876129884
   39      C      11.8188577881     2.5186934661     1.1198190478
   40      H      10.9157849698     4.5073629998     0.8430755380
   41      H      11.9651620545     1.6091493267     0.5226410842
   42      H      11.2918145988     2.2080996699     2.0302178453
   43      C      13.1129712466     3.1884728744     1.4563408166
   44      H      13.5698380262     3.3785686665     0.4765626092
   45      C      13.9684410322     2.2638061939     2.3395667083
   46      H      12.8916767026     4.1698999901     1.8920557938
   47      H      14.1664228875     1.2379473546     2.0029291780
   48      H      13.3549737305     2.0470906065     3.2230814077
   49      C      15.3313622329     2.8448985769     2.7049000398
   50      H      15.6455789070     3.1625443235     1.7037921228
   51      C      16.2645422596     1.7654722707     3.2754654501
   52      H      15.1166219928     3.6472482580     3.4208208584
   53      H      16.4661229337     0.9630307412     2.5541764487
   54      H      15.8630424010     1.3231058928     4.1955523216
   55      H      17.2398059626     2.1994882963     3.5278952404
   56      C      -1.1384960011    -4.7494186142     2.8073019572
   57      C      -1.1448972902    -4.2946795045     1.4633594861
   58      N      -1.7095804071    -4.0051390840     3.7748290019
   59      C      -2.0012079236    -3.2406708854     1.1621155149
   60      C      -2.4166762951    -2.9186280896     3.4839075965
   61      C      -2.6729538437    -2.5177441940     2.1273369495
   62      C      -3.5206878496    -1.3005135908     1.8965346232
   63      C      -4.7659446485    -1.0974906862     2.5607056892
   64      C      -3.2053042502    -0.2946184558     0.9793339022
   65      N      -5.6003785767    -0.0855224090     2.3702950137
   66      N      -2.0536408128    -0.3179723060     0.2920909141
   67      C      -3.9949833961     0.8465753823     0.8047902959
   68      C      -5.2554589823     0.8932765307     1.4437443626
   69      S      -2.1086375054     1.0583755302    -0.5757414416
   70      N      -3.4500386056     1.7179307754    -0.0691124185
   71      C      -6.1554539018     1.9942523080     1.1843306339
   72      S      -5.9452698576     3.2875221972    -0.0784273243
   73      C      -7.4034702529     2.1928187139     1.8601860694
   74      C      -7.5467707954     3.9941343710     0.2921181953
   75      S      -7.9514992619     1.4575547453     3.2929533575
   76      C      -8.0069864604     3.4324398095     1.4431276484
   77      C      -8.0834438139     5.2655866348    -0.2373713816
   78      C      -9.1400927012     2.7445610508     3.4123912317
   79      C      -9.0555206169     3.6735784325     2.3639432039
   80      N      -8.8945728548     5.9345422117     0.5300510023
   81      S      -7.4919210289     6.0052185983    -1.7175961461
   82      C      -9.2087721363     7.1167735254    -0.1310404682
   83      C      -8.5976018959     7.3485473134    -1.2940081585
   84      C      -0.3466333619    -5.9948228805     3.1906383292
   85      H      -0.6804975157    -4.8048414643     0.6246321024
   86      H      -2.2233551543    -3.1013475366     0.1080464411
   87      H      -2.8885073190    -2.4078230072     4.3214675363
   88      H      -5.2394636607    -1.8758359481     3.1588213957
   89      H      -9.8357615333     2.7228693594     4.2396157155
   90      H      -9.8064293443     4.4507674554     2.2825840876
   91      H     -10.0750664775     7.7186250329     0.1136938312
   92      H      -8.6585234296     8.2381613975    -1.9074389598
   93      H       0.6919352928    -5.7007890627     3.3895661137
   94      C      -0.4021921361    -7.2370737001     2.2920527052
   95      H      -0.7072046650    -6.3814641155     4.1515732337
   96      H       0.3880574901    -7.9732385233     2.4813669451
   97      H      -0.2521641610    -6.8274162476     1.2852074449
   98      C      -1.7780264158    -7.9221104683     2.3319733894
   99      H      -1.6994578701    -8.6960131398     3.1058206861
  100      C      -2.3806038093    -8.5820988705     1.0654881767
  101      H      -2.5902299202    -7.2276668946     2.5814921070
  102      H      -2.6689566571    -7.7513151046     0.4094546641
  103      H      -3.2554980151    -9.2020111384     1.2940880644
  104      C      -1.4089977742    -9.5259478368     0.2104087411
  105      H      -0.6898125423    -8.8927525677    -0.3242830892
  106      C      -2.2607683891   -10.1764849166    -0.9045528401
  107      H      -0.7980733127   -10.2089731398     0.8132633982
  108      H      -2.7249707056    -9.4393710732    -1.5712592156
  109      H      -3.0746595318   -10.7330374692    -0.4229051847
  110      H      -1.7093813679   -10.8921792843    -1.5262303488
 ----------------------------------------------------------------

   10   -5663.5068109753      3.51E-06 Convergence criterion met
 Total energy in the final basis set = -5663.5068109753

                    Orbital Energies (a.u.)
 --------------------------------------------------------------

 Alpha MOs
 -- Occupied --
-88.988 -88.980 -88.931 -88.924 -88.924 -88.923 -88.916 -88.908
-14.390 -14.382 -14.378 -14.370 -14.352 -14.345 -14.343 -14.342
-14.330 -14.323 -10.271 -10.269 -10.266 -10.255 -10.254 -10.251
-10.249 -10.247 -10.245 -10.243 -10.242 -10.242 -10.242 -10.238
-10.237 -10.233 -10.232 -10.232 -10.231 -10.230 -10.230 -10.229
-10.228 -10.227 -10.225 -10.223 -10.219 -10.219 -10.218 -10.216
-10.215 -10.210 -10.209 -10.205 -10.201 -10.200 -10.193 -10.192
-10.188 -10.183 -10.182 -10.182 -10.181 -10.176 -10.176 -10.175
-10.175 -10.174 -10.172 -10.170  -8.044  -8.036  -7.993  -7.985
 -7.981  -7.980  -7.975  -7.969  -6.009  -6.003  -6.001  -6.001
 -5.995  -5.994  -5.957  -5.954  -5.950  -5.949  -5.946  -5.946
 -5.945  -5.942  -5.942  -5.941  -5.939  -5.938  -5.937  -5.936
 -5.933  -5.931  -5.929  -5.925  -1.044  -1.044  -0.994  -0.972
 -0.950  -0.947  -0.938  -0.935  -0.913  -0.908  -0.904  -0.900
 -0.838  -0.837  -0.834  -0.823  -0.819  -0.809  -0.807  -0.806
 -0.804  -0.801  -0.796  -0.790  -0.782  -0.777  -0.770  -0.762
 -0.753  -0.749  -0.746  -0.738  -0.717  -0.715  -0.710  -0.708
 -0.692  -0.692  -0.676  -0.671  -0.656  -0.654  -0.649  -0.639
 -0.638  -0.629  -0.624  -0.620  -0.613  -0.608  -0.603  -0.597
 -0.595  -0.586  -0.585  -0.584  -0.577  -0.577  -0.572  -0.555
 -0.550  -0.545  -0.541  -0.536  -0.532  -0.526  -0.515  -0.506
 -0.505  -0.501  -0.498  -0.495  -0.486  -0.484  -0.477  -0.477
 -0.473  -0.472  -0.471  -0.467  -0.464  -0.461  -0.455  -0.449
 -0.448  -0.444  -0.443  -0.442  -0.441  -0.436  -0.435  -0.430
 -0.429  -0.426  -0.424  -0.418  -0.418  -0.413  -0.411  -0.409
 -0.407  -0.407  -0.404  -0.404  -0.401  -0.399  -0.399  -0.393
 -0.392  -0.391  -0.390  -0.386  -0.386  -0.381  -0.380  -0.379
 -0.376  -0.373  -0.373  -0.370  -0.367  -0.364  -0.359  -0.355
 -0.354  -0.353  -0.352  -0.349  -0.346  -0.345  -0.343  -0.339
 -0.337  -0.334  -0.332  -0.331  -0.330  -0.329  -0.321  -0.319
 -0.312  -0.311  -0.309  -0.308  -0.306  -0.301  -0.299  -0.298
 -0.296  -0.295  -0.291  -0.289  -0.287  -0.286  -0.284  -0.279
 -0.270  -0.268  -0.264  -0.261  -0.257  -0.254  -0.252  -0.245
 -0.242  -0.239  -0.232  -0.225  -0.195  -0.190

          Ground-State Mulliken Net Atomic Charges

     Atom                 Charge (a.u.)
  ----------------------------------------
      1 C                     0.286779
      2 C                    -0.128507
      3 N                    -0.498017
      4 C                    -0.083142
      5 C                     0.052708
      6 C                     0.065369
      7 C                     0.055186
      8 C                     0.061449
      9 C                     0.275163
     10 N                    -0.555652
     11 N                    -0.571014
     12 C                     0.201600
     13 C                     0.333350
     14 S                     0.585725
     15 N                    -0.581063
     16 C                    -0.211350
     17 S                     0.359623
     18 C                    -0.134969
     19 C                    -0.244182
     20 S                     0.293795
     21 C                     0.180977
     22 C                     0.053092
     23 C                    -0.313198
     24 C                    -0.105818
     25 N                    -0.410522
     26 S                     0.272529
     27 C                     0.133338
     28 C                    -0.326755
     29 C                    -0.244535
     30 H                     0.092822
     31 H                     0.123082
     32 H                     0.096256
     33 H                     0.126069
     34 H                     0.137951
     35 H                     0.113643
     36 H                     0.114417
     37 H                     0.144098
     38 H                     0.121681
     39 C                    -0.171208
     40 H                     0.098652
     41 H                     0.121437
     42 H                     0.094313
     43 C                    -0.172551
     44 H                     0.090947
     45 C                    -0.179688
     46 H                     0.088705
     47 H                     0.089961
     48 H                     0.084476
     49 C                    -0.166567
     50 H                     0.096387
     51 C                    -0.324379
     52 H                     0.094911
     53 H                     0.103659
     54 H                     0.103973
     55 H                     0.099131
     56 C                     0.269738
     57 C                    -0.117750
     58 N                    -0.475284
     59 C                    -0.060254
     60 C                     0.076645
     61 C                     0.036414
     62 C                     0.024144
     63 C                     0.052642
     64 C                     0.200300
     65 N                    -0.517668
     66 N                    -0.555261
     67 C                     0.208746
     68 C                     0.303350
     69 S                     0.630859
     70 N                    -0.552785
     71 C                    -0.219182
     72 S                     0.323490
     73 C                    -0.132735
     74 C                    -0.250338
     75 S                     0.308858
     76 C                     0.159195
     77 C                     0.084452
     78 C                    -0.314966
     79 C                    -0.058333
     80 N                    -0.437402
     81 S                     0.249079
     82 C                     0.125410
     83 C                    -0.296355
     84 C                    -0.232915
     85 H                     0.094700
     86 H                     0.098746
     87 H                     0.104321
     88 H                     0.112911
     89 H                     0.128963
     90 H                     0.119717
     91 H                     0.114000
     92 H                     0.130998
     93 H                     0.116693
     94 C                    -0.182725
     95 H                     0.113675
     96 H                     0.099179
     97 H                     0.088525
     98 C                    -0.183215
     99 H                     0.091910
    100 C                    -0.177744
    101 H                     0.102939
    102 H                     0.090704
    103 H                     0.094872
    104 C                    -0.181502
    105 H                     0.090637
    106 C                    -0.316913
    107 H                     0.092908
    108 H                     0.102681
    109 H                     0.100852
    110 H                     0.095934
  ----------------------------------------
  Sum of atomic charges =     0.000000

                    Cartesian Multipole Moments
 -----------------------------------------------------------------
    Charge (ESU x 10^10)
                 0.0000
    Dipole Moment (Debye)
         X      -0.5223      Y       1.0331      Z      -3.4289
       Tot       3.6190
    Quadrupole Moments (Debye-Ang)
        XX    -433.1248     XY      -4.3613     YY    -397.5430
        XZ      19.3905     YZ       6.3665     ZZ    -444.5036

 Total job time:  93.61s(wall), 1015.68s(cpu)
        *  Thank you very much for using Q-Chem.  Have a nice day.  *
