 Q-Chem 4.4, Q-Chem, Inc., Pleasanton, CA (2016)
 Q-Chem 4.4.2 for Intel X86 Linux

User input:
--------------------------------------------------------------
$comment
SP
$end

$rem
MEM_STATIC 5000
MEM_TOTAL 20000
JOBTYPE SP
EXCHANGE B3LYP
BASIS 6-31g(d,p)
$end

$molecule
0 1
C          24.378000     22.375000      0.201000
C          24.391000     23.409000      1.163000
N          23.167000     22.018000     -0.319000
C          23.235000     24.129000      1.378000
C          22.007000     22.643000      0.019000
C          21.995000     23.653000      0.985000
C          20.653000     24.218000      1.429000
C          20.449000     25.589000      1.517000
C          19.482000     23.455000      1.668000
N          19.254000     26.244000      1.721000
N          19.493000     22.082000      1.805000
C          18.264000     24.041000      1.857000
C          18.188000     25.442000      1.838000
S          17.946000     21.619000      2.191000
N          17.258000     23.152000      2.070000
C          16.904000     26.100000      2.003000
S          15.311000     25.361000      1.590000
C          16.747000     27.389000      2.476000
C          14.546000     26.952000      1.940000
S          17.948000     28.560000      2.938000
C          15.446000     27.874000      2.400000
C          13.150000     27.147000      1.850000
C          16.567000     29.625000      3.447000
C          15.401000     29.174000      2.931000
N          12.661000     28.328000      1.761000
S          11.945000     25.878000      1.947000
C          11.340000     28.336000      1.827000
C          10.772000     27.108000      1.674000
C          25.606000     21.630000     -0.204000
H          25.338000     23.785000      1.537000
H          23.321000     25.044000      1.956000
H          21.094000     22.202000     -0.380000
H          21.309000     26.202000      1.255000
H          16.756000     30.583000      3.913000
H          14.488000     29.759000      2.913000
H          10.862000     29.300000      1.710000
H           9.715000     26.924000      1.528000
H          26.280000     22.248000     -0.811000
C          25.305000     20.401000     -1.099000
H          26.008000     21.346000      0.777000
H          24.803000     20.729000     -2.018000
H          24.504000     19.830000     -0.613000
C          26.492000     19.379000     -1.485000
H          27.386000     19.963000     -1.735000
C          26.184000     18.381000     -2.621000
H          26.641000     18.730000     -0.614000
H          25.661000     17.554000     -2.125000
H          27.042000     17.820000     -3.013000
C          25.520000     18.881000     -3.885000
H          24.574000     19.381000     -3.645000
C          25.352000     17.850000     -4.953000
H          26.017000     19.777000     -4.276000
H          26.333000     17.504000     -5.301000
H          24.875000     18.269000     -5.848000
H          24.725000     17.043000     -4.554000
C          20.648000     18.436000     -1.206000
C          20.383000     19.408000     -2.205000
N          19.851000     18.346000     -0.123000
C          19.138000     20.027000     -2.163000
C          18.726000     19.047000     -0.033000
C          18.260000     19.880000     -1.108000
C          16.954000     20.599000     -0.932000
C          15.777000     19.945000     -0.463000
C          16.754000     21.942000     -1.262000
N          14.575000     20.489000     -0.337000
N          17.767000     22.710000     -1.690000
C          15.536000     22.599000     -1.059000
C          14.413000     21.827000     -0.682000
S          17.074000     24.171000     -1.879000
N          15.603000     23.910000     -1.370000
C          13.110000     22.446000     -0.590000
S          12.674000     24.131000     -1.121000
C          11.933000     21.782000     -0.113000
C          10.943000     23.863000     -0.756000
S          11.828000     20.321000      0.752000
C          10.828000     22.704000     -0.052000
C           9.879000     24.889000     -0.770000
C          10.201000     20.795000      1.212000
C           9.822000     22.043000      0.694000
N           8.891000     24.733000      0.063000
S          10.019000     26.393000     -1.668000
C           8.060000     25.840000     -0.069000
C           8.455000     26.806000     -0.900000
C          21.923000     17.602000     -1.268000
H          20.987000     19.580000     -3.091000
H          18.831000     20.529000     -3.076000
H          18.115000     18.873000      0.851000
H          15.721000     18.863000     -0.345000
H           9.623000     20.114000      1.821000
H           8.803000     22.386000      0.830000
H           7.029000     25.848000      0.262000
H           7.982000     27.764000     -1.073000
H          22.734000     18.168000     -0.792000
C          22.380000     17.011000     -2.608000
H          21.812000     16.709000     -0.641000
H          23.421000     16.667000     -2.624000
H          22.290000     17.857000     -3.301000
C          21.449000     15.889000     -3.096000
H          21.894000     14.956000     -2.728000
C          21.143000     15.702000     -4.604000
H          20.426000     15.990000     -2.712000
H          20.490000     16.540000     -4.878000
H          20.641000     14.750000     -4.813000
C          22.392000     15.747000     -5.606000
H          22.735000     16.786000     -5.689000
C          21.865000     15.396000     -7.017000
H          23.267000     15.182000     -5.262000
H          21.095000     16.093000     -7.370000
H          21.401000     14.403000     -6.964000
H          22.647000     15.342000     -7.784000
$end

--------------------------------------------------------------

             Standard Nuclear Orientation (Angstroms)
    I     Atom           X                Y                Z
 ----------------------------------------------------------------
    1      C       6.1475142578     3.7722623835     0.0553215692
    2      C       5.4235333544     4.9449406270     0.3642655592
    3      N       5.4314464555     2.6250542055    -0.1331732552
    4      C       4.0485973227     4.9207530874     0.2646318723
    5      C       4.0727367769     2.5873973987    -0.0787768013
    6      C       3.3389407120     3.7313358905     0.2473337048
    7      C       1.8340175702     3.6002452035     0.4353405371
    8      C       0.9584722726     4.4964195770    -0.1640699435
    9      C       1.1821032899     2.5323221341     1.1024830173
   10      N      -0.4140943552     4.4001377877    -0.2379392153
   11      N       1.8462678037     1.6315795083     1.9096801561
   12      C      -0.1718120796     2.3680260248     1.0518770825
   13      C      -0.9310709014     3.3065983917     0.3366526747
   14      S       0.6967776033     0.6371565753     2.5777889119
   15      N      -0.6169319078     1.2892868517     1.7489539326
   16      C      -2.3706944871     3.1462800551     0.2335655145
   17      S      -3.2395092254     1.5699394552     0.3546037868
   18      C      -3.2532982267     4.1846771877     0.0041291751
   19      C      -4.7533998822     2.4345123008    -0.0922237795
   20      S      -2.9391636574     5.8745313302    -0.2656827031
   21      C      -4.5660295999     3.7838039660    -0.2186689439
   22      C      -5.9974722673     1.7709162602    -0.1750802542
   23      C      -4.7412666512     6.1044679062    -0.2702620878
   24      C      -5.3736532416     4.9172554019    -0.4110692966
   25      N      -6.9761940010     2.2975648201    -0.8126914699
   26      S      -6.3927718345     0.2630722976     0.6261312264
   27      C      -8.0995118548     1.6135691956    -0.6720928034
   28      C      -7.9260650276     0.3683307027    -0.1492981078
   29      C       7.6382280880     3.7319193891    -0.0010585623
   30      H       5.9425191771     5.8955866457     0.4348832829
   31      H       3.5322005205     5.8751954514     0.2974817807
   32      H       3.6203234536     1.5980755764    -0.1405466697
   33      H       1.4305584031     5.2786727638    -0.7550247956
   34      H      -5.1676384797     7.0945978132    -0.3624077928
   35      H      -6.4251398913     4.8245749956    -0.6598747786
   36      H      -8.9542592764     1.9803991890    -1.2255470483
   37      H      -8.6846596659    -0.4034224063    -0.1125242940
   38      H       8.0305709988     4.2600311492    -0.8795880207
   39      C       8.2036805925     2.2951345276    -0.1351470660
   40      H       7.8937004869     4.1950840200     0.9606240142
   41      H       7.8285608723     1.8366457063    -1.0588473400
   42      H       7.7091261954     1.6761724138     0.6238917010
   43      C       9.7942167190     2.0456114587    -0.0332546301
   44      H      10.3064952891     2.8313598366    -0.6015522222
   45      C      10.2930561913     0.6587912313    -0.4906962524
   46      H      10.0455097164     2.0635609558     1.0337845655
   47      H      10.1565551759     0.0151484401     0.3871223109
   48      H      11.3795642807     0.5526349451    -0.6037449792
   49      C       9.7748128779     0.0770732158    -1.7874691771
   50      H       8.6796923117     0.0233657673    -1.7689636233
   51      C      10.3917575319    -1.2259565120    -2.1790069433
   52      H       9.8312856792     0.8028281364    -2.6077109817
   53      H      11.4636851192    -1.0934641063    -2.3703130071
   54      H       9.9866245714    -1.5957390355    -3.1293980047
   55      H      10.1803204271    -1.9560965125    -1.3879513635
   56      C       5.3165599746    -1.6765907586     1.0691185978
   57      C       4.8359312245    -1.5878188038    -0.2628444440
   58      N       4.4496028476    -1.6834065079     2.1008825656
   59      C       3.4762964412    -1.8101570341    -0.4549615109
   60      C       3.1384279476    -1.7607654666     1.9009776552
   61      C       2.5764553664    -1.9140039817     0.5866813509
   62      C       1.0854652785    -2.0382774207     0.4638901858
   63      C       0.3219044614    -2.9283189898     1.2749431335
   64      C       0.3220623442    -1.3491204125    -0.4820630783
   65      N      -0.9833597814    -3.1420878707     1.1900660339
   66      N       0.8822585106    -0.4493874985    -1.3041567096
   67      C      -1.0705047144    -1.4569723117    -0.5562719384
   68      C      -1.7090943401    -2.4425583313     0.2311704329
   69      S      -0.3842317382     0.1183964915    -2.1551060561
   70      N      -1.5990168016    -0.6363488884    -1.4874986405
   71      C      -3.1285575352    -2.6738291776     0.0860083392
   72      S      -4.2145520888    -1.9629919299    -1.1893771856
   73      C      -3.8889361906    -3.5673013759     0.9089820516
   74      C      -5.6105374475    -2.9295605036    -0.6251254061
   75      S      -3.4428962557    -4.2633930163     2.3956816866
   76      C      -5.2872398625    -3.4909660375     0.5717139724
   77      C      -7.0095196241    -2.7914975573    -1.0820230890
   78      C      -5.1442376592    -4.6066845466     2.6621274670
   79      C      -5.9671748035    -4.1672657422     1.6137217388
   80      N      -7.9464708497    -3.0622233754    -0.2199332258
   81      S      -7.4403005276    -2.0609551402    -2.6210993021
   82      C      -9.1643750012    -2.7935670279    -0.8347236329
   83      C      -9.1283528484    -2.2733871449    -2.0626720414
   84      C       6.8132391618    -1.5986848769     1.3500226458
   85      H       5.4558863507    -1.5389884800    -1.1531630617
   86      H       3.1758931441    -2.0369309062    -1.4738596756
   87      H       2.5140738067    -1.8157263630     2.7910418139
   88      H       0.7889637684    -3.6688306606     1.9240055875
   89      H      -5.4252995872    -5.1260528363     3.5676586770
   90      H      -7.0212869459    -4.4186526632     1.6262997854
   91      H     -10.1053593517    -3.1995002473    -0.4849341626
   92      H      -9.9632207785    -1.9334467330    -2.6617196654
   93      H       7.1004580062    -0.5418229875     1.4221425610
   94      C       7.7945212626    -2.3740716522     0.4614334340
   95      H       7.0244340621    -2.0051119527     2.3465730691
   96      H       8.8403074586    -2.0570225926     0.5513452024
   97      H       7.4537450996    -2.1402055218    -0.5550522962
   98      C       7.6875191272    -3.8940637639     0.6662834360
   99      H       8.4422590246    -4.1432407192     1.4227333895
  100      C       7.8671755163    -4.8761240800    -0.5194442383
  101      H       6.6947327004    -4.2059965033     1.0145061763
  102      H       6.9646963313    -4.7646785753    -1.1333173687
  103      H       7.9705916877    -5.9160390563    -0.1879763854
  104      C       9.1161160471    -4.6181465194    -1.4887868653
  105      H       8.9025348360    -3.7357850172    -2.1051311244
  106      C       9.1709617391    -5.7923479346    -2.4938211864
  107      H      10.0519005671    -4.3843082692    -0.9664718217
  108      H       8.2590421686    -5.8799287480    -3.0971869941
  109      H       9.2672071487    -6.7217557664    -1.9184153267
  110      H      10.0256580564    -5.7521007075    -3.1798265552
 ----------------------------------------------------------------

   10   -5663.4954779309      4.40E-06 Convergence criterion met
 Total energy in the final basis set = -5663.4954779309

                    Orbital Energies (a.u.)
 --------------------------------------------------------------

 Alpha MOs
 -- Occupied --
-88.989 -88.986 -88.932 -88.929 -88.919 -88.915 -88.914 -88.902
-14.386 -14.382 -14.379 -14.376 -14.352 -14.351 -14.351 -14.326
-14.326 -14.321 -10.279 -10.263 -10.255 -10.253 -10.251 -10.250
-10.249 -10.249 -10.247 -10.244 -10.239 -10.235 -10.235 -10.233
-10.233 -10.233 -10.233 -10.231 -10.230 -10.228 -10.225 -10.223
-10.221 -10.220 -10.219 -10.218 -10.215 -10.214 -10.214 -10.212
-10.211 -10.205 -10.204 -10.198 -10.198 -10.197 -10.195 -10.191
-10.189 -10.182 -10.181 -10.181 -10.179 -10.178 -10.176 -10.175
-10.174 -10.171 -10.170 -10.169  -8.045  -8.040  -7.992  -7.986
 -7.977  -7.976  -7.975  -7.961  -6.010  -6.005  -6.004  -6.003
 -6.000  -5.998  -5.956  -5.953  -5.951  -5.949  -5.947  -5.942
 -5.941  -5.940  -5.939  -5.938  -5.937  -5.935  -5.934  -5.933
 -5.931  -5.926  -5.922  -5.917  -1.052  -1.017  -0.984  -0.981
 -0.955  -0.954  -0.938  -0.927  -0.916  -0.907  -0.906  -0.884
 -0.844  -0.836  -0.830  -0.829  -0.814  -0.810  -0.805  -0.803
 -0.802  -0.800  -0.796  -0.794  -0.787  -0.779  -0.767  -0.765
 -0.754  -0.745  -0.741  -0.737  -0.721  -0.720  -0.713  -0.711
 -0.696  -0.693  -0.678  -0.669  -0.654  -0.653  -0.644  -0.638
 -0.635  -0.634  -0.624  -0.621  -0.611  -0.609  -0.599  -0.598
 -0.593  -0.590  -0.587  -0.584  -0.583  -0.574  -0.555  -0.553
 -0.552  -0.546  -0.543  -0.532  -0.522  -0.516  -0.513  -0.507
 -0.507  -0.505  -0.501  -0.491  -0.489  -0.481  -0.478  -0.476
 -0.470  -0.469  -0.467  -0.464  -0.458  -0.457  -0.455  -0.448
 -0.444  -0.442  -0.441  -0.440  -0.438  -0.436  -0.433  -0.431
 -0.430  -0.427  -0.423  -0.421  -0.417  -0.417  -0.413  -0.410
 -0.409  -0.406  -0.405  -0.403  -0.402  -0.396  -0.395  -0.392
 -0.392  -0.389  -0.388  -0.385  -0.385  -0.381  -0.380  -0.379
 -0.378  -0.376  -0.372  -0.368  -0.364  -0.360  -0.358  -0.356
 -0.352  -0.351  -0.348  -0.347  -0.345  -0.343  -0.342  -0.337
 -0.337  -0.336  -0.333  -0.331  -0.326  -0.324  -0.321  -0.317
 -0.315  -0.311  -0.307  -0.307  -0.303  -0.301  -0.297  -0.294
 -0.293  -0.293  -0.289  -0.288  -0.284  -0.282  -0.282  -0.277
 -0.275  -0.270  -0.267  -0.264  -0.260  -0.249  -0.246  -0.242
 -0.240  -0.235  -0.231  -0.230  -0.196  -0.189

          Ground-State Mulliken Net Atomic Charges

     Atom                 Charge (a.u.)
  ----------------------------------------
      1 C                     0.274737
      2 C                    -0.114936
      3 N                    -0.493476
      4 C                    -0.085337
      5 C                     0.080545
      6 C                     0.043337
      7 C                     0.054603
      8 C                     0.044320
      9 C                     0.203754
     10 N                    -0.532293
     11 N                    -0.553268
     12 C                     0.259711
     13 C                     0.293762
     14 S                     0.612764
     15 N                    -0.607378
     16 C                    -0.221783
     17 S                     0.336166
     18 C                    -0.127510
     19 C                    -0.241856
     20 S                     0.265819
     21 C                     0.200410
     22 C                     0.050206
     23 C                    -0.310919
     24 C                    -0.049194
     25 N                    -0.407041
     26 S                     0.265800
     27 C                     0.100308
     28 C                    -0.293141
     29 C                    -0.240076
     30 H                     0.085654
     31 H                     0.094976
     32 H                     0.128758
     33 H                     0.104298
     34 H                     0.124588
     35 H                     0.117766
     36 H                     0.099093
     37 H                     0.129302
     38 H                     0.119480
     39 C                    -0.185251
     40 H                     0.117110
     41 H                     0.111340
     42 H                     0.113079
     43 C                    -0.194492
     44 H                     0.088199
     45 C                    -0.173649
     46 H                     0.093590
     47 H                     0.089024
     48 H                     0.086961
     49 C                    -0.174365
     50 H                     0.095924
     51 C                    -0.321023
     52 H                     0.086527
     53 H                     0.099086
     54 H                     0.098943
     55 H                     0.111880
     56 C                     0.276367
     57 C                    -0.107223
     58 N                    -0.474385
     59 C                    -0.065483
     60 C                     0.077472
     61 C                     0.044165
     62 C                     0.006768
     63 C                     0.053115
     64 C                     0.203327
     65 N                    -0.517114
     66 N                    -0.556674
     67 C                     0.233716
     68 C                     0.303446
     69 S                     0.611158
     70 N                    -0.545818
     71 C                    -0.216505
     72 S                     0.337253
     73 C                    -0.133456
     74 C                    -0.249856
     75 S                     0.313961
     76 C                     0.161071
     77 C                     0.085318
     78 C                    -0.313106
     79 C                    -0.060512
     80 N                    -0.436586
     81 S                     0.264824
     82 C                     0.098754
     83 C                    -0.285721
     84 C                    -0.244087
     85 H                     0.099305
     86 H                     0.100075
     87 H                     0.100532
     88 H                     0.116484
     89 H                     0.131511
     90 H                     0.120675
     91 H                     0.118065
     92 H                     0.134605
     93 H                     0.132838
     94 C                    -0.188491
     95 H                     0.111581
     96 H                     0.106729
     97 H                     0.095271
     98 C                    -0.185737
     99 H                     0.091272
    100 C                    -0.177892
    101 H                     0.100246
    102 H                     0.090579
    103 H                     0.093405
    104 C                    -0.186441
    105 H                     0.102703
    106 C                    -0.318089
    107 H                     0.093239
    108 H                     0.103577
    109 H                     0.098677
    110 H                     0.096257
  ----------------------------------------
  Sum of atomic charges =     0.000000

                    Cartesian Multipole Moments
 -----------------------------------------------------------------
    Charge (ESU x 10^10)
                 0.0000
    Dipole Moment (Debye)
         X      -2.3432      Y      -0.4826      Z      -1.9191
       Tot       3.0670
    Quadrupole Moments (Debye-Ang)
        XX    -386.9973     XY      18.2153     YY    -434.3366
        XZ       1.9089     YZ      -2.0568     ZZ    -442.7669

 Total job time:  112.12s(wall), 1227.39s(cpu)
        *  Thank you very much for using Q-Chem.  Have a nice day.  *
