 Q-Chem 4.4, Q-Chem, Inc., Pleasanton, CA (2016)
 Q-Chem 4.4.2 for Intel X86 Linux

User input:
--------------------------------------------------------------
$comment
SP
$end

$rem
MEM_STATIC 5000
MEM_TOTAL 20000
JOBTYPE SP
EXCHANGE B3LYP
BASIS 6-31g(d,p)
$end

$molecule
0 1
C           0.249000     14.535000     -4.178000
C           0.763000     14.896000     -5.439000
N           0.802000     14.992000     -3.035000
C           1.815000     15.752000     -5.544000
C           1.723000     15.898000     -3.104000
C           2.265000     16.360000     -4.382000
C           3.267000     17.475000     -4.489000
C           2.966000     18.596000     -5.342000
C           4.332000     17.647000     -3.537000
N           3.708000     19.764000     -5.299000
N           4.746000     16.708000     -2.666000
C           5.053000     18.871000     -3.537000
C           4.586000     19.991000     -4.356000
S           6.001000     17.349000     -1.863000
N           6.040000     18.806000     -2.631000
C           5.121000     21.360000     -4.407000
S           5.079000     22.438000     -5.852000
C           5.715000     22.054000     -3.376000
C           5.629000     23.810000     -4.913000
S           5.689000     21.689000     -1.665000
C           5.965000     23.440000     -3.635000
C           5.853000     25.085000     -5.546000
C           6.242000     23.337000     -1.353000
C           6.306000     24.160000     -2.467000
N           6.804000     25.863000     -5.135000
S           5.366000     25.210000     -7.225000
C           7.088000     26.835000     -6.036000
C           6.471000     26.584000     -7.243000
C          -0.740000     13.470000     -4.235000
H           0.396000     14.321000     -6.284000
H           2.151000     16.026000     -6.540000
H           1.994000     16.366000     -2.159000
H           2.246000     18.509000     -6.155000
H           6.511000     23.556000     -0.329000
H           6.641000     25.191000     -2.492000
H           7.696000     27.686000     -5.760000
H           6.450000     27.121000     -8.182000
H          -0.824000     12.922000     -5.181000
C          -2.136000     13.974000     -3.971000
H          -0.404000     12.689000     -3.542000
H          -2.455000     14.735000     -4.694000
H          -2.208000     14.401000     -2.963000
C          -3.106000     12.747000     -4.169000
H          -3.087000     12.308000     -5.174000
C          -4.536000     13.188000     -3.854000
H          -2.811000     11.957000     -3.468000
H          -4.800000     14.055000     -4.473000
H          -4.605000     13.538000     -2.816000
C          -5.629000     12.083000     -4.026000
H          -5.597000     11.696000     -5.052000
C          -6.971000     12.712000     -3.724000
H          -5.522000     11.227000     -3.348000
H          -7.814000     12.049000     -3.955000
H          -7.124000     13.686000     -4.204000
H          -7.093000     13.008000     -2.675000
C          20.648000     18.436000     -1.206000
C          20.383000     19.408000     -2.205000
N          19.851000     18.346000     -0.123000
C          19.138000     20.027000     -2.163000
C          18.726000     19.047000     -0.033000
C          18.260000     19.880000     -1.108000
C          16.954000     20.599000     -0.932000
C          15.777000     19.945000     -0.463000
C          16.754000     21.942000     -1.262000
N          14.575000     20.489000     -0.337000
N          17.767000     22.710000     -1.690000
C          15.536000     22.599000     -1.059000
C          14.413000     21.827000     -0.682000
S          17.074000     24.171000     -1.879000
N          15.603000     23.910000     -1.370000
C          13.110000     22.446000     -0.590000
S          12.674000     24.131000     -1.121000
C          11.933000     21.782000     -0.113000
C          10.943000     23.863000     -0.756000
S          11.828000     20.321000      0.752000
C          10.828000     22.704000     -0.052000
C           9.879000     24.889000     -0.770000
C          10.201000     20.795000      1.212000
C           9.822000     22.043000      0.694000
N           8.891000     24.733000      0.063000
S          10.019000     26.393000     -1.668000
C           8.060000     25.840000     -0.069000
C           8.455000     26.806000     -0.900000
C          21.923000     17.602000     -1.268000
H          20.987000     19.580000     -3.091000
H          18.831000     20.529000     -3.076000
H          18.115000     18.873000      0.851000
H          15.721000     18.863000     -0.345000
H           9.623000     20.114000      1.821000
H           8.803000     22.386000      0.830000
H           7.029000     25.848000      0.262000
H           7.982000     27.764000     -1.073000
H          22.734000     18.168000     -0.792000
C          22.380000     17.011000     -2.608000
H          21.812000     16.709000     -0.641000
H          23.421000     16.667000     -2.624000
H          22.290000     17.857000     -3.301000
C          21.449000     15.889000     -3.096000
H          21.894000     14.956000     -2.728000
C          21.143000     15.702000     -4.604000
H          20.426000     15.990000     -2.712000
H          20.490000     16.540000     -4.878000
H          20.641000     14.750000     -4.813000
C          22.392000     15.747000     -5.606000
H          22.735000     16.786000     -5.689000
C          21.865000     15.396000     -7.017000
H          23.267000     15.182000     -5.262000
H          21.095000     16.093000     -7.370000
H          21.401000     14.403000     -6.964000
H          22.647000     15.342000     -7.784000
$end

--------------------------------------------------------------

             Standard Nuclear Orientation (Angstroms)
    I     Atom           X                Y                Z
 ----------------------------------------------------------------
    1      C      -9.9935343612    -3.9879406892    -0.0269919060
    2      C      -9.5733875644    -3.7999613230    -1.3584491629
    3      N      -9.2376284179    -3.5808151030     1.0141430333
    4      C      -8.4036035067    -3.1640572728    -1.6371897180
    5      C      -8.1825501493    -2.8692745489     0.7809952540
    6      C      -7.7187953282    -2.5884501112    -0.5778870445
    7      C      -6.5512876487    -1.6892742565    -0.8729914340
    8      C      -6.7422109806    -0.5803648371    -1.7722795864
    9      C      -5.3691134641    -1.6683801400    -0.0531495998
   10      N      -5.8015564918     0.4279121503    -1.8955015373
   11      N      -5.0328564853    -2.6190634413     0.8384167212
   12      C      -4.4438658232    -0.6036076002    -0.2210580318
   13      C      -4.7931225115     0.5373946872    -1.0692228424
   14      S      -3.5977779026    -2.1821679683     1.4551717837
   15      N      -3.3860445120    -0.8029944321     0.5792475128
   16      C      -4.0292778961     1.7765125582    -1.2792592804
   17      S      -4.0440595904     2.7619837874    -2.7893920421
   18      C      -3.2035779911     2.4021760946    -0.3714058748
   19      C      -3.1495804519     4.0557219141    -2.0194870283
   20      S      -3.0953869019     2.1433199830     1.3556465858
   21      C      -2.7392513152     3.7000841259    -0.7592363536
   22      C      -2.7743093611     5.2290787452    -2.7670800695
   23      C      -2.2212337152     3.6726334438     1.4825857237
   24      C      -2.1399616974     4.4063403557     0.3089205131
   25      N      -1.6570829217     5.8358826600    -2.5176806063
   26      S      -3.4231255253     5.3507696843    -4.3906760477
   27      C      -1.3092023482     6.6860772004    -3.5143698006
   28      C      -2.0978612685     6.4894683982    -4.6278782586
   29      C     -11.1584377420    -4.8495563698     0.1003404628
   30      H     -10.1342104823    -4.3413582429    -2.1145616082
   31      H      -8.1421081834    -3.0133477011    -2.6806909499
   32      H      -7.7231500950    -2.4092560020     1.6543935175
   33      H      -7.5558906963    -0.5751007372    -2.4967349747
   34      H      -1.7995556613     3.8931993030     2.4533773186
   35      H      -1.6294658947     5.3530283848     0.1711278749
   36      H      -0.5295086014     7.4215070603    -3.3685562808
   37      H      -2.1308593679     6.9683247941    -5.5974857449
   38      H     -11.4497798447    -5.4232296261    -0.7875191963
   39      C     -12.3999561121    -4.0783886192     0.4697459814
   40      H     -10.8905708021    -5.6404372577     0.8115793282
   41      H     -12.6583318758    -3.3119671959    -0.2715037515
   42      H     -12.2755937456    -3.5906366421     1.4445326302
   43      C     -13.5920105259    -5.1101998288     0.4675318205
   44      H     -13.7699512050    -5.5995922088    -0.4978381672
   45      C     -14.8721673035    -4.3916137047     0.8958291553
   46      H     -13.3648775794    -5.9017595374     1.1916656841
   47      H     -15.0455535620    -3.5258582070     0.2439467859
   48      H     -14.7552865839    -3.9782828507     1.9058794028
   49      C     -16.1592741793    -5.2792370758     0.9230071140
   50      H     -16.3175741067    -5.7212361123    -0.0684801450
   51      C     -17.3210436033    -4.3935484621     1.3149975285
   52      H     -16.1303487842    -6.1014475784     1.6489562933
   53      H     -18.2910320123    -4.8979709816     1.2241162420
   54      H     -17.3504881587    -3.4360774959     0.7812678525
   55      H     -17.2643954649    -4.0226041789     2.3455761656
   56      C      10.9796190623    -3.8331481042     0.4951773475
   57      C      10.7799124396    -2.8851566071    -0.5413743330
   58      N      10.3112899949    -3.7119811977     1.6591588071
   59      C       9.6807493504    -2.0418192817    -0.4165838721
   60      C       9.3497304848    -2.8081452711     1.8128140262
   61      C       8.9197528826    -1.9628647618     0.7324020111
   62      C       7.7947068250    -1.0026219986     0.9888746292
   63      C       6.5817828031    -1.3969053840     1.6263398667
   64      C       7.8035114639     0.3337937694     0.5808741715
   65      N       5.5208607151    -0.6305738299     1.8356154566
   66      N       8.8816459432     0.8729521427    -0.0074380696
   67      C       6.7563555642     1.2181828931     0.8596256733
   68      C       5.5641241995     0.6929704585     1.4091511700
   69      S       8.4467395422     2.4255100844    -0.2330733064
   70      N       7.0223502513     2.4740782248     0.4450117057
   71      C       4.4141481454     1.5499620523     1.5895797792
   72      S       4.2308151017     3.2550486104     0.9810152185
   73      C       3.2003505366     1.1463127308     2.2357350159
   74      C       2.5344506449     3.3376957527     1.5439779879
   75      S       2.9347493546    -0.2190380923     3.2150430073
   76      C       2.2948644049     2.2615127227     2.3418191498
   77      C       1.6790470683     4.5430463931     1.5635369910
   78      C       1.4850699085     0.5769196090     3.8052004791
   79      C       1.2799771828     1.8434716135     3.2366479365
   80      N       0.7831102567     4.6216304335     2.5045421867
   81      S       1.9827493141     5.9421691041     0.5445960773
   82      C       0.1561294818     5.8561212080     2.3766295781
   83      C       0.6194926695     6.6834214418     1.4382208827
   84      C      12.0669093370    -4.8940612176     0.3636926546
   85      H      11.2975406464    -2.8787902975    -1.4960556984
   86      H       9.3651497187    -1.5420963399    -1.3278993245
   87      H       8.8246714890    -2.8152672007     2.7663942950
   88      H       6.3453932052    -2.4409278446     1.8310861970
   89      H       0.8685837844     0.0512760743     4.5210005442
   90      H       0.3626311041     2.3788493401     3.4519450838
   91      H      -0.8107135866     6.0759771053     2.8119040497
   92      H       0.3104413593     7.7022502772     1.2435491289
   93      H      13.0166928318    -4.4652583792     0.7082103448
   94      C      12.2502018704    -5.6332786700    -0.9681074074
   95      H      11.8703025257    -5.7143866411     1.0646284301
   96      H      13.2028458875    -6.1671664205    -1.0666276925
   97      H      12.2343232574    -4.8248955852    -1.7099494781
   98      C      11.0813863905    -6.5854180544    -1.2699185514
   99      H      11.3903476042    -7.5637337037    -0.8808434189
  100      C      10.5729154052    -6.7942924215    -2.7192279579
  101      H      10.1453366211    -6.2729495034    -0.7899599762
  102      H      10.0546189894    -5.8648659916    -2.9861817680
  103      H       9.8863099899    -7.6450019810    -2.8020243895
  104      C      11.6839889520    -7.0400881452    -3.8466719857
  105      H      12.1969794617    -6.0902515629    -4.0434210744
  106      C      10.9413720545    -7.3629066926    -5.1643059747
  107      H      12.4765721271    -7.7396763794    -3.5541412812
  108      H      10.2741288658    -6.5541065522    -5.4867138842
  109      H      10.3150230529    -8.2465421169    -4.9881544347
  110      H      11.6058874946    -7.6050699383    -6.0024618029
 ----------------------------------------------------------------

    9   -5663.5039212438      8.03E-06 Convergence criterion met
 Total energy in the final basis set = -5663.5039212438

                    Orbital Energies (a.u.)
 --------------------------------------------------------------

 Alpha MOs
 -- Occupied --
-88.988 -88.986 -88.927 -88.926 -88.922 -88.919 -88.911 -88.904
-14.385 -14.379 -14.377 -14.377 -14.349 -14.346 -14.346 -14.342
-14.327 -14.326 -10.275 -10.264 -10.263 -10.260 -10.258 -10.254
-10.252 -10.248 -10.245 -10.243 -10.241 -10.237 -10.237 -10.234
-10.234 -10.232 -10.232 -10.231 -10.230 -10.228 -10.228 -10.227
-10.226 -10.226 -10.222 -10.222 -10.222 -10.220 -10.214 -10.213
-10.208 -10.204 -10.203 -10.202 -10.198 -10.195 -10.194 -10.188
-10.184 -10.184 -10.182 -10.181 -10.180 -10.179 -10.179 -10.178
-10.176 -10.176 -10.172 -10.168  -8.044  -8.041  -7.988  -7.984
 -7.983  -7.978  -7.972  -7.964  -6.009  -6.007  -6.003  -6.002
 -6.001  -5.999  -5.951  -5.948  -5.948  -5.948  -5.945  -5.944
 -5.944  -5.943  -5.941  -5.940  -5.939  -5.936  -5.935  -5.932
 -5.929  -5.928  -5.925  -5.920  -1.051  -1.032  -0.980  -0.976
 -0.955  -0.952  -0.949  -0.939  -0.914  -0.906  -0.904  -0.896
 -0.841  -0.841  -0.830  -0.828  -0.816  -0.811  -0.806  -0.805
 -0.805  -0.803  -0.797  -0.794  -0.787  -0.779  -0.766  -0.765
 -0.752  -0.748  -0.741  -0.740  -0.718  -0.718  -0.710  -0.710
 -0.695  -0.689  -0.676  -0.669  -0.653  -0.649  -0.642  -0.639
 -0.633  -0.630  -0.624  -0.624  -0.610  -0.606  -0.598  -0.598
 -0.590  -0.587  -0.586  -0.583  -0.581  -0.578  -0.576  -0.555
 -0.549  -0.548  -0.540  -0.537  -0.522  -0.519  -0.513  -0.510
 -0.506  -0.505  -0.503  -0.498  -0.488  -0.488  -0.478  -0.476
 -0.476  -0.472  -0.469  -0.468  -0.464  -0.463  -0.447  -0.446
 -0.444  -0.441  -0.439  -0.438  -0.437  -0.434  -0.433  -0.431
 -0.429  -0.428  -0.422  -0.421  -0.414  -0.413  -0.412  -0.411
 -0.410  -0.409  -0.405  -0.403  -0.402  -0.398  -0.395  -0.395
 -0.391  -0.390  -0.388  -0.388  -0.385  -0.385  -0.382  -0.380
 -0.379  -0.377  -0.376  -0.373  -0.369  -0.365  -0.357  -0.354
 -0.353  -0.353  -0.350  -0.349  -0.344  -0.340  -0.339  -0.338
 -0.338  -0.334  -0.332  -0.332  -0.330  -0.328  -0.326  -0.320
 -0.319  -0.315  -0.309  -0.306  -0.303  -0.299  -0.298  -0.297
 -0.295  -0.295  -0.293  -0.291  -0.291  -0.287  -0.283  -0.281
 -0.272  -0.272  -0.265  -0.259  -0.257  -0.251  -0.249  -0.248
 -0.243  -0.240  -0.229  -0.225  -0.193  -0.189

          Ground-State Mulliken Net Atomic Charges

     Atom                 Charge (a.u.)
  ----------------------------------------
      1 C                     0.279493
      2 C                    -0.115096
      3 N                    -0.470862
      4 C                    -0.070591
      5 C                     0.109745
      6 C                     0.017479
      7 C                     0.001721
      8 C                     0.058452
      9 C                     0.201435
     10 N                    -0.497412
     11 N                    -0.545730
     12 C                     0.238077
     13 C                     0.300000
     14 S                     0.604524
     15 N                    -0.562546
     16 C                    -0.219534
     17 S                     0.311535
     18 C                    -0.122025
     19 C                    -0.239981
     20 S                     0.270355
     21 C                     0.147385
     22 C                     0.069127
     23 C                    -0.317805
     24 C                    -0.047303
     25 N                    -0.412830
     26 S                     0.254881
     27 C                     0.132003
     28 C                    -0.314867
     29 C                    -0.233707
     30 H                     0.086021
     31 H                     0.096367
     32 H                     0.106309
     33 H                     0.114788
     34 H                     0.135915
     35 H                     0.122676
     36 H                     0.117538
     37 H                     0.130692
     38 H                     0.100934
     39 C                    -0.175624
     40 H                     0.115319
     41 H                     0.096612
     42 H                     0.115185
     43 C                    -0.184320
     44 H                     0.089742
     45 C                    -0.172438
     46 H                     0.096406
     47 H                     0.089096
     48 H                     0.092684
     49 C                    -0.173395
     50 H                     0.091220
     51 C                    -0.318797
     52 H                     0.095795
     53 H                     0.094521
     54 H                     0.098598
     55 H                     0.100651
     56 C                     0.271422
     57 C                    -0.118203
     58 N                    -0.473113
     59 C                    -0.059468
     60 C                     0.076265
     61 C                     0.036593
     62 C                     0.023123
     63 C                     0.054622
     64 C                     0.199275
     65 N                    -0.517419
     66 N                    -0.549575
     67 C                     0.217081
     68 C                     0.305008
     69 S                     0.603157
     70 N                    -0.546039
     71 C                    -0.220768
     72 S                     0.325162
     73 C                    -0.130492
     74 C                    -0.246438
     75 S                     0.311553
     76 C                     0.160920
     77 C                     0.092774
     78 C                    -0.315290
     79 C                    -0.052453
     80 N                    -0.443146
     81 S                     0.257907
     82 C                     0.124314
     83 C                    -0.294355
     84 C                    -0.234476
     85 H                     0.095394
     86 H                     0.099556
     87 H                     0.105542
     88 H                     0.115218
     89 H                     0.129276
     90 H                     0.116815
     91 H                     0.113898
     92 H                     0.133040
     93 H                     0.115670
     94 C                    -0.182468
     95 H                     0.114958
     96 H                     0.101093
     97 H                     0.089265
     98 C                    -0.183513
     99 H                     0.092278
    100 C                    -0.178530
    101 H                     0.101990
    102 H                     0.091484
    103 H                     0.094969
    104 C                    -0.182154
    105 H                     0.094094
    106 C                    -0.317169
    107 H                     0.092287
    108 H                     0.104353
    109 H                     0.099938
    110 H                     0.096359
  ----------------------------------------
  Sum of atomic charges =     0.000000

                    Cartesian Multipole Moments
 -----------------------------------------------------------------
    Charge (ESU x 10^10)
                 0.0000
    Dipole Moment (Debye)
         X      -0.7363      Y       2.5534      Z      -3.2951
       Tot       4.2331
    Quadrupole Moments (Debye-Ang)
        XX    -430.7827     XY      10.4432     YY    -409.3790
        XZ     -10.1354     YZ       0.1512     ZZ    -433.6551

 Total job time:  83.17s(wall), 902.89s(cpu)
        *  Thank you very much for using Q-Chem.  Have a nice day.  *
