 Q-Chem 4.4, Q-Chem, Inc., Pleasanton, CA (2016)
 Q-Chem 4.4.2 for Intel X86 Linux

User input:
--------------------------------------------------------------
$comment
SP
$end

$rem
MEM_STATIC 5000
MEM_TOTAL 20000
JOBTYPE SP
EXCHANGE B3LYP
BASIS 6-31g(d,p)
$end

$molecule
0 1
C           2.323000     19.230000     10.867000
C           3.662000     19.577000     10.754000
N           1.738000     18.394000     10.026000
C           4.456000     19.046000      9.744000
C           2.446000     17.848000      9.017000
C           3.830000     18.183000      8.770000
C           4.577000     17.637000      7.588000
C           5.826000     17.042000      7.759000
C           4.143000     17.737000      6.240000
N           6.632000     16.673000      6.748000
N           2.903000     18.234000      5.878000
C           4.944000     17.368000      5.163000
C           6.258000     16.895000      5.461000
S           2.830000     18.082000      4.253000
N           4.348000     17.546000      3.953000
C           7.256000     16.456000      4.502000
S           8.670000     15.639000      5.086000
C           7.531000     17.024000      3.248000
C           9.481000     15.646000      3.471000
S           6.598000     17.994000      2.190000
C           8.722000     16.515000      2.675000
C          10.874000     15.324000      3.262000
C           7.866000     17.891000      0.963000
C           8.874000     17.022000      1.347000
N          11.404000     15.434000      2.047000
S          12.014000     14.874000      4.539000
C          12.706000     15.188000      2.053000
C          13.215000     14.790000      3.249000
C           1.327000     19.895000     11.871000
H           4.110000     20.295000     11.435000
H           5.474000     19.414000      9.651000
H           1.881000     17.200000      8.349000
H           6.124000     17.032000      8.806000
H           7.668000     18.528000      0.111000
H           9.771000     16.774000      0.792000
H          13.203000     15.107000      1.095000
H          14.233000     14.466000      3.418000
H           1.580000     20.963000     11.872000
C           1.476000     19.369000     13.242000
H           0.283000     19.803000     11.547000
H           1.043000     20.061000     13.975000
H           2.557000     19.384000     13.428000
C           0.898000     17.897000     13.448000
H          -0.188000     17.963000     13.311000
C           0.874000     17.395000     14.870000
H           1.220000     17.143000     12.720000
H           0.533000     18.145000     15.593000
H           1.909000     17.220000     15.190000
C          -0.037000     16.127000     15.076000
H          -1.112000     16.245000     14.889000
C           0.004000     15.592000     16.567000
H           0.199000     15.379000     14.310000
H          -0.338000     14.551000     16.635000
H          -0.538000     16.215000     17.288000
H           1.045000     15.511000     16.903000
C          20.648000     18.436000     -1.206000
C          20.383000     19.408000     -2.205000
N          19.851000     18.346000     -0.123000
C          19.138000     20.027000     -2.163000
C          18.726000     19.047000     -0.033000
C          18.260000     19.880000     -1.108000
C          16.954000     20.599000     -0.932000
C          15.777000     19.945000     -0.463000
C          16.754000     21.942000     -1.262000
N          14.575000     20.489000     -0.337000
N          17.767000     22.710000     -1.690000
C          15.536000     22.599000     -1.059000
C          14.413000     21.827000     -0.682000
S          17.074000     24.171000     -1.879000
N          15.603000     23.910000     -1.370000
C          13.110000     22.446000     -0.590000
S          12.674000     24.131000     -1.121000
C          11.933000     21.782000     -0.113000
C          10.943000     23.863000     -0.756000
S          11.828000     20.321000      0.752000
C          10.828000     22.704000     -0.052000
C           9.879000     24.889000     -0.770000
C          10.201000     20.795000      1.212000
C           9.822000     22.043000      0.694000
N           8.891000     24.733000      0.063000
S          10.019000     26.393000     -1.668000
C           8.060000     25.840000     -0.069000
C           8.455000     26.806000     -0.900000
C          21.923000     17.602000     -1.268000
H          20.987000     19.580000     -3.091000
H          18.831000     20.529000     -3.076000
H          18.115000     18.873000      0.851000
H          15.721000     18.863000     -0.345000
H           9.623000     20.114000      1.821000
H           8.803000     22.386000      0.830000
H           7.029000     25.848000      0.262000
H           7.982000     27.764000     -1.073000
H          22.734000     18.168000     -0.792000
C          22.380000     17.011000     -2.608000
H          21.812000     16.709000     -0.641000
H          23.421000     16.667000     -2.624000
H          22.290000     17.857000     -3.301000
C          21.449000     15.889000     -3.096000
H          21.894000     14.956000     -2.728000
C          21.143000     15.702000     -4.604000
H          20.426000     15.990000     -2.712000
H          20.490000     16.540000     -4.878000
H          20.641000     14.750000     -4.813000
C          22.392000     15.747000     -5.606000
H          22.735000     16.786000     -5.689000
C          21.865000     15.396000     -7.017000
H          23.267000     15.182000     -5.262000
H          21.095000     16.093000     -7.370000
H          21.401000     14.403000     -6.964000
H          22.647000     15.342000     -7.784000
$end

--------------------------------------------------------------

             Standard Nuclear Orientation (Angstroms)
    I     Atom           X                Y                Z
 ----------------------------------------------------------------
    1      C     -11.4650000628    -0.4838976706    -1.5874030061
    2      C     -10.3202733918    -0.3670975627    -2.3633267030
    3      N     -11.4784966444    -0.1798574119    -0.3006321005
    4      C      -9.1272508632     0.0888691577    -1.8144290841
    5      C     -10.3543930648     0.2602896220     0.2994701665
    6      C      -9.0925581233     0.3646253541    -0.3973631244
    7      C      -7.8305871053     0.7682770276     0.3081462491
    8      C      -7.0245227490     1.7781330350    -0.2150345016
    9      C      -7.3199579101     0.1412638121     1.4750105311
   10      N      -5.8057059040     2.0931171355     0.2573938156
   11      N      -8.0098630095    -0.8329711007     2.1754034841
   12      C      -6.0639917356     0.4355021600     1.9981393519
   13      C      -5.2744427986     1.3952283160     1.2948135515
   14      S      -7.0711337461    -1.1906856286     3.4637689938
   15      N      -5.7574210664    -0.2770475364     3.1158545907
   16      C      -3.9456025419     1.8536765214     1.6587020167
   17      S      -3.2898133251     3.2376901409     0.8448299112
   18      C      -2.8966774956     1.0787582947     2.1783393800
   19      C      -1.6547987488     3.0441310800     1.5899857508
   20      S      -2.8690143670    -0.4136035670     3.0166971944
   21      C      -1.6646976224     1.7773154861     2.1899343015
   22      C      -0.4738664173     3.7498089543     1.1481355881
   23      C      -1.1308645121    -0.2401115702     3.2863221355
   24      C      -0.6713133662     0.9933736478     2.8550357326
   25      N       0.7041657039     3.4830650100     1.7051930265
   26      S      -0.4259640708     4.9115290334    -0.1863833600
   27      C       1.6881434256     4.1515638677     1.1215380598
   28      C       1.3011488918     5.0268766143     0.1561553240
   29      C     -12.7981561848    -1.1307075873    -2.0839799750
   30      H     -10.3253032747    -0.6588100173    -3.4096858881
   31      H      -8.2423509747     0.0824913067    -2.4447532152
   32      H     -10.4415177942     0.4530205482     1.3674669229
   33      H      -7.4448887087     2.1912303771    -1.1303246446
   34      H      -0.6926929405    -1.1231427558     3.7325716162
   35      H       0.3465424183     1.3629054546     2.8944545812
   36      H       2.6620601883     4.1183303470     1.5924049970
   37      H       1.9554589334     5.7146242402    -0.3622485460
   38      H     -12.4976978383    -1.9982778745    -2.6853788266
   39      C     -13.5862294046    -0.2140752476    -2.9308824215
   40      H     -13.4169957948    -1.5002045366    -1.2570062501
   41      H     -14.3107505688    -0.7699267570    -3.5389450680
   42      H     -12.8603698552     0.1971622180    -3.6431981250
   43      C     -14.3074633093     0.9627719714    -2.1320355790
   44      H     -15.0597497942     0.4915400675    -1.4881982258
   45      C     -15.2593342443     1.8132788470    -2.9353062542
   46      H     -13.6783730591     1.5373903121    -1.4419318044
   47      H     -15.9004718289     1.2342733788    -3.6099952681
   48      H     -14.6711204969     2.4172066300    -3.6378201831
   49      C     -16.2193834584     2.6934780126    -2.0500176370
   50      H     -16.9269481340     2.1651219232    -1.3983197986
   51      C     -17.1668716542     3.6156875354    -2.9233919639
   52      H     -15.6329100259     3.2222598203    -1.2894949794
   53      H     -17.5767498815     4.4484707312    -2.3370976798
   54      H     -17.9753847515     3.0806450554    -3.4350267126
   55      H     -16.5747477336     4.1422606385    -3.6818430366
   56      C      10.2037826193     3.0343179223    -2.1159918045
   57      C      10.7140557616     1.7864482159    -1.6738916848
   58      N       8.9022931765     3.1534855963    -2.4448113534
   59      C       9.7810171000     0.8179252488    -1.3184312535
   60      C       8.0406835530     2.1666880136    -2.2234849258
   61      C       8.4284159945     0.9521718791    -1.5591927363
   62      C       7.3744441104    -0.0880419673    -1.3128770417
   63      C       6.1042351227     0.2278332439    -0.7473702085
   64      C       7.5555773638    -1.4523503404    -1.5545429422
   65      N       5.1450484979    -0.6346688307    -0.4429573470
   66      N       8.6840040062    -1.9145969560    -2.1132542980
   67      C       6.5471374692    -2.3991540562    -1.3471937131
   68      C       5.3645481880    -1.9857903697    -0.6915603897
   69      S       8.4059092596    -3.5129377428    -2.2491257119
   70      N       6.9208106841    -3.6377403803    -1.7295590436
   71      C       4.3553512728    -2.9598034747    -0.3419119123
   72      S       4.5115163535    -4.7687810281    -0.4623057613
   73      C       3.0791901320    -2.6326825696     0.2221436312
   74      C       2.9132197186    -5.0180818793     0.3023555706
   75      S       2.3168703478    -1.1133185636     0.2867390174
   76      C       2.2727718660    -3.8185307307     0.3573609344
   77      C       2.1954663258    -6.3044490899     0.4250644394
   78      C       0.8129113636    -1.9628124994     0.6027650086
   79      C       0.9625389669    -3.3578412080     0.6339977248
   80      N       0.8945308616    -6.2639200008     0.4079381147
   81      S       3.0097081283    -7.8597533439     0.3472250889
   82      C       0.4391287022    -7.5767469642     0.4582196969
   83      C       1.3572429656    -8.5442912046     0.4324060927
   84      C      11.1515366513     4.1995607620    -2.3786634994
   85      H      11.7511055328     1.5845400958    -1.4225813525
   86      H      10.1592055769     0.0005728479    -0.7111993961
   87      H       6.9992419733     2.3674047752    -2.4687709172
   88      H       5.8815072610     1.2098429404    -0.3304370537
   89      H      -0.0815046775    -1.3768491786     0.7621166076
   90      H       0.1196800390    -3.9749761352     0.9225099588
   91      H      -0.5670654886    -7.8423177109     0.7576047817
   92      H       1.1909550219    -9.6128760345     0.3888540428
   93      H      11.5411781944     4.1092023960    -3.4007534336
   94      C      12.2819839094     4.4983495868    -1.3854141677
   95      H      10.5880922546     5.1405043061    -2.3860566505
   96      H      13.0672323198     5.1585285834    -1.7724821543
   97      H      12.7256700178     3.5114034795    -1.2033564335
   98      C      11.7521621597     5.0410741754    -0.0480556015
   99      H      11.7778980062     6.1339253021    -0.1426710398
  100      C      12.4336618312     4.6684113626     1.2933427829
  101      H      10.7283301511     4.7103972370     0.1678304342
  102      H      12.1785542383     3.6161952142     1.4707978283
  103      H      12.0803770842     5.2868552767     2.1268330424
  104      C      14.0316335823     4.7679579275     1.3443992627
  105      H      14.4514193407     3.9329808365     0.7693756331
  106      C      14.4650442498     4.4940128279     2.8034949674
  107      H      14.4424396390     5.6725145786     0.8794243723
  108      H      14.1543411935     3.5049032627     3.1618856467
  109      H      13.9743825237     5.2376911675     3.4440787619
  110      H      15.5443210916     4.5895312297     2.9731025544
 ----------------------------------------------------------------

    9   -5663.5181647233      9.29E-06 Convergence criterion met
 Total energy in the final basis set = -5663.5181647233

                    Orbital Energies (a.u.)
 --------------------------------------------------------------

 Alpha MOs
 -- Occupied --
-88.992 -88.988 -88.928 -88.927 -88.926 -88.921 -88.910 -88.909
-14.388 -14.386 -14.384 -14.377 -14.352 -14.349 -14.346 -14.338
-14.328 -14.326 -10.274 -10.271 -10.267 -10.261 -10.260 -10.258
-10.252 -10.248 -10.245 -10.245 -10.241 -10.241 -10.237 -10.237
-10.235 -10.232 -10.231 -10.230 -10.229 -10.228 -10.228 -10.228
-10.227 -10.226 -10.224 -10.223 -10.223 -10.220 -10.220 -10.218
-10.214 -10.212 -10.208 -10.205 -10.201 -10.199 -10.199 -10.193
-10.186 -10.185 -10.182 -10.182 -10.182 -10.182 -10.181 -10.178
-10.175 -10.174 -10.173 -10.173  -8.048  -8.045  -7.988  -7.987
 -7.983  -7.980  -7.970  -7.970  -6.013  -6.010  -6.007  -6.005
 -6.004  -6.003  -5.952  -5.951  -5.949  -5.948  -5.948  -5.945
 -5.945  -5.944  -5.944  -5.941  -5.940  -5.937  -5.935  -5.934
 -5.931  -5.930  -5.927  -5.926  -1.051  -1.033  -0.975  -0.975
 -0.959  -0.952  -0.941  -0.940  -0.914  -0.912  -0.904  -0.897
 -0.848  -0.841  -0.830  -0.829  -0.812  -0.810  -0.807  -0.805
 -0.804  -0.802  -0.799  -0.794  -0.781  -0.780  -0.768  -0.765
 -0.751  -0.748  -0.740  -0.739  -0.723  -0.718  -0.711  -0.710
 -0.698  -0.695  -0.676  -0.674  -0.654  -0.650  -0.646  -0.643
 -0.633  -0.631  -0.629  -0.625  -0.612  -0.610  -0.598  -0.597
 -0.592  -0.587  -0.587  -0.581  -0.580  -0.579  -0.571  -0.556
 -0.552  -0.549  -0.544  -0.540  -0.520  -0.519  -0.512  -0.509
 -0.507  -0.506  -0.503  -0.498  -0.489  -0.486  -0.477  -0.476
 -0.476  -0.475  -0.468  -0.468  -0.465  -0.458  -0.448  -0.447
 -0.445  -0.442  -0.439  -0.438  -0.436  -0.433  -0.433  -0.432
 -0.429  -0.428  -0.421  -0.421  -0.417  -0.414  -0.414  -0.413
 -0.411  -0.406  -0.404  -0.403  -0.402  -0.401  -0.400  -0.395
 -0.394  -0.391  -0.390  -0.389  -0.386  -0.385  -0.383  -0.380
 -0.377  -0.376  -0.373  -0.372  -0.366  -0.366  -0.359  -0.356
 -0.355  -0.351  -0.350  -0.349  -0.346  -0.344  -0.340  -0.339
 -0.339  -0.336  -0.334  -0.333  -0.331  -0.330  -0.322  -0.320
 -0.316  -0.310  -0.308  -0.305  -0.303  -0.303  -0.300  -0.298
 -0.297  -0.296  -0.292  -0.291  -0.287  -0.287  -0.284  -0.281
 -0.277  -0.273  -0.266  -0.266  -0.257  -0.252  -0.250  -0.250
 -0.245  -0.243  -0.237  -0.229  -0.194  -0.193

          Ground-State Mulliken Net Atomic Charges

     Atom                 Charge (a.u.)
  ----------------------------------------
      1 C                     0.278400
      2 C                    -0.113715
      3 N                    -0.471876
      4 C                    -0.073225
      5 C                     0.091198
      6 C                    -0.002761
      7 C                     0.021612
      8 C                     0.079455
      9 C                     0.210785
     10 N                    -0.532853
     11 N                    -0.545324
     12 C                     0.253750
     13 C                     0.292787
     14 S                     0.616570
     15 N                    -0.572096
     16 C                    -0.216253
     17 S                     0.321969
     18 C                    -0.138255
     19 C                    -0.210269
     20 S                     0.288754
     21 C                     0.128192
     22 C                     0.045600
     23 C                    -0.326951
     24 C                    -0.056746
     25 N                    -0.420098
     26 S                     0.271239
     27 C                     0.137912
     28 C                    -0.311983
     29 C                    -0.210630
     30 H                     0.090470
     31 H                     0.107747
     32 H                     0.114510
     33 H                     0.110597
     34 H                     0.146527
     35 H                     0.130907
     36 H                     0.114025
     37 H                     0.130593
     38 H                     0.094398
     39 C                    -0.181606
     40 H                     0.116853
     41 H                     0.091629
     42 H                     0.087676
     43 C                    -0.176649
     44 H                     0.095254
     45 C                    -0.169644
     46 H                     0.108060
     47 H                     0.089355
     48 H                     0.087452
     49 C                    -0.186615
     50 H                     0.095880
     51 C                    -0.328409
     52 H                     0.095015
     53 H                     0.100141
     54 H                     0.106547
     55 H                     0.102234
     56 C                     0.271044
     57 C                    -0.118255
     58 N                    -0.474023
     59 C                    -0.059621
     60 C                     0.076100
     61 C                     0.037026
     62 C                     0.024253
     63 C                     0.054647
     64 C                     0.198833
     65 N                    -0.516049
     66 N                    -0.548466
     67 C                     0.217825
     68 C                     0.303625
     69 S                     0.602640
     70 N                    -0.547522
     71 C                    -0.221123
     72 S                     0.323631
     73 C                    -0.133280
     74 C                    -0.249792
     75 S                     0.313349
     76 C                     0.160897
     77 C                     0.083585
     78 C                    -0.320571
     79 C                    -0.062824
     80 N                    -0.436271
     81 S                     0.251086
     82 C                     0.125043
     83 C                    -0.295049
     84 C                    -0.234080
     85 H                     0.095548
     86 H                     0.099567
     87 H                     0.104552
     88 H                     0.112456
     89 H                     0.142673
     90 H                     0.119069
     91 H                     0.114817
     92 H                     0.132159
     93 H                     0.115851
     94 C                    -0.182423
     95 H                     0.114267
     96 H                     0.101267
     97 H                     0.089501
     98 C                    -0.183431
     99 H                     0.092161
    100 C                    -0.178636
    101 H                     0.101273
    102 H                     0.091459
    103 H                     0.094808
    104 C                    -0.182254
    105 H                     0.094336
    106 C                    -0.317187
    107 H                     0.092415
    108 H                     0.104364
    109 H                     0.099933
    110 H                     0.096660
  ----------------------------------------
  Sum of atomic charges =     0.000000

                    Cartesian Multipole Moments
 -----------------------------------------------------------------
    Charge (ESU x 10^10)
                 0.0000
    Dipole Moment (Debye)
         X       1.9591      Y      -2.9828      Z      -0.3165
       Tot       3.5826
    Quadrupole Moments (Debye-Ang)
        XX    -422.4455     XY       9.0216     YY    -414.0898
        XZ      14.3551     YZ      -4.7181     ZZ    -445.1488

 Total job time:  82.51s(wall), 894.43s(cpu)
        *  Thank you very much for using Q-Chem.  Have a nice day.  *
