 Q-Chem 4.4, Q-Chem, Inc., Pleasanton, CA (2016)
 Q-Chem 4.4.2 for Intel X86 Linux

User input:
--------------------------------------------------------------
$comment
SP
$end

$rem
MEM_STATIC 5000
MEM_TOTAL 20000
JOBTYPE SP
EXCHANGE B3LYP
BASIS 6-31g(d,p)
$end

$molecule
0 1
C          26.688000     30.173000      1.424000
C          25.289000     30.391000      1.655000
N          27.128000     29.284000      0.541000
C          24.362000     29.544000      0.980000
C          26.217000     28.483000     -0.089000
C          24.830000     28.518000      0.097000
C          23.915000     27.621000     -0.649000
C          24.490000     26.509000     -1.308000
C          22.536000     27.808000     -0.864000
N          23.631000     25.540000     -1.841000
N          21.848000     28.854000     -0.451000
C          21.731000     26.914000     -1.528000
C          22.316000     25.717000     -2.009000
S          20.258000     28.588000     -0.751000
N          20.432000     27.188000     -1.646000
C          21.558000     24.794000     -2.908000
S          19.865000     24.898000     -3.425000
C          22.125000     23.643000     -3.545000
C          20.000000     23.503000     -4.558000
S          23.727000     22.994000     -3.411000
C          21.241000     22.960000     -4.440000
C          19.020000     23.264000     -5.569000
C          23.296000     21.750000     -4.681000
C          21.903000     21.862000     -5.047000
N          18.184000     24.235000     -5.809000
S          19.145000     22.112000     -6.877000
C          17.489000     24.036000     -6.905000
C          17.785000     22.881000     -7.595000
C          27.671000     31.047000      2.144000
H          24.912000     31.224000      2.240000
H          23.307000     29.711000      1.179000
H          26.714000     27.728000     -0.697000
H          25.564000     26.337000     -1.268000
H          24.054000     21.024000     -4.942000
H          21.429000     21.154000     -5.718000
H          16.744000     24.775000     -7.169000
H          17.352000     22.367000     -8.443000
H          27.844000     31.863000      1.431000
C          28.999000     30.248000      2.576000
H          27.302000     31.574000      3.033000
H          29.504000     29.864000      1.680000
H          28.703000     29.370000      3.163000
C          29.880000     31.152000      3.378000
H          30.163000     31.938000      2.666000
C          31.093000     30.368000      3.908000
H          29.269000     31.636000      4.149000
H          31.707000     29.794000      3.202000
H          30.677000     29.541000      4.497000
C          32.076000     31.217000      4.709000
H          32.174000     32.055000      4.009000
C          33.413000     30.486000      4.908000
H          31.562000     31.434000      5.653000
H          33.915000     30.266000      3.957000
H          33.288000     29.551000      5.468000
H          34.108000     31.112000      5.481000
C          13.549000      8.901000     -3.064000
C          14.836000      9.407000     -3.316000
N          12.506000      9.739000     -2.844000
C          15.003000     10.798000     -3.318000
C          12.691000     11.095000     -2.928000
C          13.924000     11.698000     -3.135000
C          14.135000     13.192000     -3.074000
C          15.317000     13.738000     -3.678000
C          13.183000     14.076000     -2.563000
N          15.487000     15.083000     -3.825000
N          12.018000     13.848000     -1.941000
C          13.431000     15.457000     -2.757000
C          14.605000     15.965000     -3.387000
S          11.287000     15.299000     -1.635000
N          12.399000     16.235000     -2.433000
C          14.882000     17.410000     -3.753000
S          13.851000     18.781000     -3.332000
C          15.913000     17.837000     -4.545000
C          14.785000     19.894000     -4.291000
S          17.257000     17.014000     -5.283000
C          15.839000     19.176000     -4.796000
C          14.580000     21.264000     -4.513000
C          17.752000     18.539000     -5.953000
C          16.833000     19.585000     -5.715000
N          15.564000     22.122000     -4.661000
S          12.968000     21.962000     -4.321000
C          14.991000     23.406000     -4.961000
C          13.614000     23.504000     -4.833000
C          13.253000      7.413000     -3.110000
H          15.667000      8.718000     -3.432000
H          15.987000     11.125000     -3.638000
H          11.810000     11.723000     -2.802000
H          15.972000     13.032000     -4.186000
H          18.606000     18.593000     -6.615000
H          17.000000     20.600000     -6.057000
H          15.679000     24.231000     -5.092000
H          13.051000     24.423000     -4.926000
H          14.097000      6.733000     -3.283000
C          12.230000      7.078000     -4.250000
H          12.838000      7.068000     -2.155000
H          12.351000      7.730000     -5.124000
H          11.208000      7.143000     -3.857000
C          12.392000      5.638000     -4.763000
H          12.583000      4.855000     -4.018000
C          13.464000      5.573000     -5.895000
H          11.410000      5.417000     -5.200000
H          14.384000      6.134000     -5.693000
H          12.991000      6.128000     -6.715000
C          13.662000      4.100000     -6.288000
H          14.337000      3.690000     -5.526000
C          14.271000      4.161000     -7.727000
H          12.715000      3.546000     -6.301000
H          13.645000      4.660000     -8.477000
H          14.632000      3.174000     -8.042000
H          15.148000      4.810000     -7.605000
$end

--------------------------------------------------------------

             Standard Nuclear Orientation (Angstroms)
    I     Atom           X                Y                Z
 ----------------------------------------------------------------
    1      C      12.9964822881    -1.3860764516     0.9296978962
    2      C      12.4289419297    -0.3916002930     1.7939901566
    3      N      12.3453499418    -1.8582264728    -0.1270475912
    4      C      11.0834113834     0.0125156370     1.5519140027
    5      C      11.0552909665    -1.4559588985    -0.3328402998
    6      C      10.3391985958    -0.5611384434     0.4709619581
    7      C       8.9451656016    -0.1660595712     0.1564230956
    8      C       8.2421340656    -0.9569177104    -0.7825870550
    9      C       8.2666818702     0.9796906587     0.6144091619
   10      N       6.8691546658    -0.7311576285    -0.9403557243
   11      N       8.7994774416     1.9095890529     1.3821635860
   12      C       6.9552074941     1.2674441267     0.3221936549
   13      C       6.2292117787     0.3453831924    -0.4709827786
   14      S       7.6228761735     2.9627141729     1.8241963197
   15      N       6.4123773554     2.3707224283     0.8365023461
   16      C       4.8698373224     0.6802499496    -0.9950622980
   17      S       3.8816400946     2.1156027267    -0.6670643650
   18      C       4.1360886487    -0.1376171831    -1.9141734104
   19      C       2.6009656361     1.6513152143    -1.8470003960
   20      S       4.5556889326    -1.6804201472    -2.5844387428
   21      C       2.8971202284     0.4261449668    -2.3570046333
   22      C       1.6352986755     2.5953941362    -2.3115908721
   23      C       3.0448948828    -1.6097596271    -3.6133728661
   24      C       2.2658158281    -0.4373195440    -3.2887668308
   25      N       1.8818277093     3.8504563292    -2.0598383602
   26      S       0.5038608020     2.3560112981    -3.6216050687
   27      C       1.0905838061     4.6582822438    -2.7270657407
   28      C       0.1887506283     4.0455170677    -3.5690614404
   29      C      14.4050067215    -1.8308648619     1.1881300744
   30      H      13.0059712723     0.1264117612     2.5535582243
   31      H      10.6629215926     0.7538151409     2.2258415815
   32      H      10.6031247883    -1.9998579577    -1.1613435048
   33      H       8.7217043475    -1.8126292846    -1.2542119552
   34      H       2.8393767543    -2.4579180085    -4.2522395650
   35      H       1.2879331377    -0.2617216534    -3.7236137288
   36      H       1.1988903985     5.7214710779    -2.5575334872
   37      H      -0.6504392815     4.3824557487    -4.1632176662
   38      H      14.9955763269    -1.1655754196     0.5456571184
   39      C      14.6155696216    -3.3987329103     0.8947667369
   40      H      14.8098136015    -1.6273470941     2.1875913834
   41      H      14.3998562587    -3.6066311512    -0.1614259853
   42      H      13.8785503083    -3.9651271004     1.4770631848
   43      C      16.0081901791    -3.7893627165     1.2750263026
   44      H      16.6373545839    -3.2178820100     0.5804826007
   45      C      16.1870712931    -5.3097643840     1.1223655135
   46      H      16.2160855758    -3.3972887957     2.2775608629
   47      H      15.9235455312    -5.7847303957     0.1684947358
   48      H      15.4231525285    -5.7641147381     1.7657160221
   49      C      17.5934474059    -5.8029197131     1.4503823586
   50      H      18.1619254616    -5.0783735499     0.8556441326
   51      C      17.8121699061    -7.2401764925     0.9524020196
   52      H      17.6818035507    -5.7089595880     2.5393202295
   53      H      17.7131082306    -7.3248352287    -0.1374716808
   54      H      17.1206590623    -7.9468727410     1.4276316117
   55      H      18.8284311564    -7.5761291198     1.1923580646
   56      C     -12.3305206170    -3.3173996259     1.2235748123
   57      C     -11.2553280466    -3.7914619966     0.4521250049
   58      N     -12.2061562085    -2.1897861433     1.9662149189
   59      C     -10.0553974886    -3.0692605086     0.4890799321
   60      C     -11.0418157946    -1.4671914982     1.9194668767
   61      C      -9.9102038019    -1.8644946280     1.2206453538
   62      C      -8.5897054916    -1.1364875337     1.3016878308
   63      C      -7.6191484563    -1.3696623393     0.2703272967
   64      C      -8.3136025980    -0.1633825629     2.2638286251
   65      N      -6.4858270890    -0.6174641491     0.1738153233
   66      N      -9.0177815299     0.2418094390     3.3296824957
   67      C      -7.1178216559     0.5763503575     2.0929364219
   68      C      -6.1876919668     0.3365275784     1.0390940257
   69      S      -8.2107390814     1.4885706333     4.0560894137
   70      N      -7.0121753909     1.6175610833     2.9175594213
   71      C      -4.9622671477     1.1656526086     0.7080416176
   72      S      -4.3633689600     2.5225599325     1.6671904461
   73      C      -4.2128858098     1.0418325673    -0.4302246991
   74      C      -3.1600147601     2.9461466833     0.4825728140
   75      S      -4.2684179436    -0.0697655950    -1.7679745665
   76      C      -3.2451269321     2.0004259718    -0.5072924566
   77      C      -2.2353695754     4.0011886172     0.4938333683
   78      C      -2.9226007020     0.7832046205    -2.4613487539
   79      C      -2.5587823022     1.9434244973    -1.7424280285
   80      N      -1.0289698852     3.9034305981    -0.0174074333
   81      S      -2.5503219315     5.4460815733     1.4611499446
   82      C      -0.3979466520     5.1910587753     0.0865558122
   83      C      -1.0709885329     6.1407587492     0.8396836806
   84      C     -13.6910503528    -3.9897352853     1.1952976298
   85      H     -11.3583990842    -4.7270994381    -0.0888897262
   86      H      -9.3088061798    -3.4152713615    -0.2183540983
   87      H     -11.0133384354    -0.5380640258     2.4872099347
   88      H      -7.9210912324    -2.0335462026    -0.5381365404
   89      H      -2.5414453908     0.5030232448    -3.4343312950
   90      H      -1.7321977671     2.5796679790    -2.0374369070
   91      H       0.6184901033     5.2692904865    -0.2765779396
   92      H      -0.6791928877     7.1170031172     1.0919179096
   93      H     -13.7920869317    -4.9054072375     0.5986390292
   94      C     -14.7855988194    -3.0207708854     0.6283535001
   95      H     -13.9910931429    -4.3058244044     2.2019440389
   96      H     -14.3900680288    -2.3521147195    -0.1462917899
   97      H     -15.2260555584    -2.4432350294     1.4503073894
   98      C     -15.9510832737    -3.7858328757    -0.0192105027
   99      H     -16.3024982109    -4.6938768996     0.4873056301
  100      C     -15.6440785201    -4.0934042790    -1.5178702083
  101      H     -16.7779457455    -3.0658664796     0.0264057340
  102      H     -14.6334088643    -4.4698518069    -1.7147435317
  103      H     -15.6498739578    -3.0982585244    -1.9802611036
  104      C     -16.7891708630    -4.9523621411    -2.0785277841
  105      H     -16.5665174296    -5.9749141174    -1.7481009322
  106      C     -16.7111005564    -4.7405980271    -3.6259075007
  107      H     -17.7681847685    -4.6310139806    -1.7014851704
  108      H     -16.8326500750    -3.7030833686    -3.9608195008
  109      H     -17.3605247809    -5.4513313036    -4.1520456826
  110      H     -15.6723015153    -5.0017724856    -3.8665284771
 ----------------------------------------------------------------

    9   -5663.5094919875      9.36E-06 Convergence criterion met
 Total energy in the final basis set = -5663.5094919875

                    Orbital Energies (a.u.)
 --------------------------------------------------------------

 Alpha MOs
 -- Occupied --
-88.989 -88.985 -88.927 -88.925 -88.921 -88.918 -88.911 -88.910
-14.386 -14.385 -14.380 -14.379 -14.352 -14.348 -14.345 -14.337
-14.328 -14.326 -10.268 -10.266 -10.265 -10.262 -10.257 -10.255
-10.251 -10.248 -10.247 -10.246 -10.244 -10.243 -10.237 -10.237
-10.232 -10.232 -10.231 -10.230 -10.230 -10.230 -10.228 -10.228
-10.228 -10.227 -10.226 -10.223 -10.221 -10.219 -10.217 -10.215
-10.212 -10.212 -10.209 -10.208 -10.199 -10.199 -10.199 -10.190
-10.187 -10.186 -10.181 -10.177 -10.176 -10.175 -10.175 -10.174
-10.174 -10.173 -10.172 -10.170  -8.044  -8.040  -7.989  -7.984
 -7.982  -7.976  -7.970  -7.970  -6.010  -6.006  -6.004  -6.002
 -6.000  -5.998  -5.952  -5.949  -5.948  -5.946  -5.946  -5.945
 -5.942  -5.941  -5.941  -5.939  -5.937  -5.934  -5.934  -5.932
 -5.931  -5.930  -5.926  -5.926  -1.040  -1.033  -0.990  -0.961
 -0.958  -0.946  -0.936  -0.928  -0.919  -0.910  -0.901  -0.899
 -0.847  -0.834  -0.831  -0.831  -0.815  -0.807  -0.807  -0.804
 -0.803  -0.801  -0.794  -0.793  -0.781  -0.781  -0.768  -0.766
 -0.750  -0.749  -0.743  -0.741  -0.724  -0.711  -0.707  -0.706
 -0.691  -0.689  -0.677  -0.672  -0.654  -0.653  -0.651  -0.647
 -0.636  -0.635  -0.621  -0.621  -0.610  -0.609  -0.601  -0.593
 -0.591  -0.587  -0.583  -0.582  -0.579  -0.576  -0.571  -0.568
 -0.552  -0.546  -0.539  -0.538  -0.530  -0.526  -0.522  -0.509
 -0.506  -0.502  -0.498  -0.494  -0.483  -0.482  -0.476  -0.475
 -0.474  -0.470  -0.470  -0.469  -0.465  -0.462  -0.452  -0.450
 -0.447  -0.446  -0.444  -0.439  -0.437  -0.436  -0.431  -0.430
 -0.427  -0.423  -0.423  -0.421  -0.420  -0.415  -0.412  -0.411
 -0.409  -0.408  -0.406  -0.405  -0.402  -0.401  -0.399  -0.395
 -0.394  -0.391  -0.390  -0.388  -0.388  -0.386  -0.383  -0.377
 -0.376  -0.373  -0.372  -0.370  -0.367  -0.366  -0.357  -0.355
 -0.354  -0.352  -0.349  -0.349  -0.347  -0.345  -0.342  -0.342
 -0.336  -0.336  -0.332  -0.332  -0.329  -0.328  -0.327  -0.320
 -0.314  -0.311  -0.307  -0.304  -0.303  -0.302  -0.297  -0.296
 -0.295  -0.294  -0.290  -0.286  -0.285  -0.283  -0.280  -0.277
 -0.271  -0.267  -0.267  -0.261  -0.254  -0.251  -0.250  -0.246
 -0.244  -0.237  -0.230  -0.228  -0.193  -0.191

          Ground-State Mulliken Net Atomic Charges

     Atom                 Charge (a.u.)
  ----------------------------------------
      1 C                     0.286992
      2 C                    -0.128875
      3 N                    -0.498477
      4 C                    -0.083076
      5 C                     0.051832
      6 C                     0.064969
      7 C                     0.053866
      8 C                     0.060839
      9 C                     0.275493
     10 N                    -0.556367
     11 N                    -0.573766
     12 C                     0.200135
     13 C                     0.332913
     14 S                     0.581839
     15 N                    -0.574864
     16 C                    -0.215793
     17 S                     0.358789
     18 C                    -0.135098
     19 C                    -0.250695
     20 S                     0.288147
     21 C                     0.179542
     22 C                     0.076792
     23 C                    -0.314327
     24 C                    -0.094460
     25 N                    -0.414583
     26 S                     0.271984
     27 C                     0.133779
     28 C                    -0.329318
     29 C                    -0.244164
     30 H                     0.091929
     31 H                     0.122530
     32 H                     0.096050
     33 H                     0.125129
     34 H                     0.135088
     35 H                     0.112236
     36 H                     0.110559
     37 H                     0.143509
     38 H                     0.121382
     39 C                    -0.171989
     40 H                     0.098093
     41 H                     0.121514
     42 H                     0.094137
     43 C                    -0.172103
     44 H                     0.090919
     45 C                    -0.179721
     46 H                     0.088468
     47 H                     0.089950
     48 H                     0.084353
     49 C                    -0.166585
     50 H                     0.096461
     51 C                    -0.324774
     52 H                     0.094822
     53 H                     0.103787
     54 H                     0.103917
     55 H                     0.099086
     56 C                     0.282039
     57 C                    -0.122235
     58 N                    -0.499897
     59 C                    -0.094453
     60 C                     0.063527
     61 C                     0.057707
     62 C                     0.029952
     63 C                     0.074283
     64 C                     0.298430
     65 N                    -0.545986
     66 N                    -0.592421
     67 C                     0.171280
     68 C                     0.341721
     69 S                     0.599661
     70 N                    -0.562973
     71 C                    -0.241114
     72 S                     0.326771
     73 C                    -0.085404
     74 C                    -0.206048
     75 S                     0.287824
     76 C                     0.154363
     77 C                     0.050600
     78 C                    -0.320365
     79 C                    -0.069932
     80 N                    -0.427796
     81 S                     0.254457
     82 C                     0.095459
     83 C                    -0.299459
     84 C                    -0.227691
     85 H                     0.091430
     86 H                     0.091053
     87 H                     0.127900
     88 H                     0.118782
     89 H                     0.120688
     90 H                     0.128033
     91 H                     0.126325
     92 H                     0.136366
     93 H                     0.096671
     94 C                    -0.164413
     95 H                     0.119570
     96 H                     0.097137
     97 H                     0.107005
     98 C                    -0.197704
     99 H                     0.087151
    100 C                    -0.173298
    101 H                     0.093487
    102 H                     0.091271
    103 H                     0.093235
    104 C                    -0.175375
    105 H                     0.097840
    106 C                    -0.320067
    107 H                     0.099030
    108 H                     0.108324
    109 H                     0.094439
    110 H                     0.100024
  ----------------------------------------
  Sum of atomic charges =     0.000000

                    Cartesian Multipole Moments
 -----------------------------------------------------------------
    Charge (ESU x 10^10)
                 0.0000
    Dipole Moment (Debye)
         X      -0.2837      Y       1.4526      Z      -1.0041
       Tot       1.7885
    Quadrupole Moments (Debye-Ang)
        XX    -444.4038     XY      18.4317     YY    -415.7847
        XZ      32.0002     YZ       9.3031     ZZ    -429.7287

 Total job time:  83.36s(wall), 908.52s(cpu)
        *  Thank you very much for using Q-Chem.  Have a nice day.  *
