 Q-Chem 4.4, Q-Chem, Inc., Pleasanton, CA (2016)
 Q-Chem 4.4.2 for Intel X86 Linux

User input:
--------------------------------------------------------------
$comment
SP
$end

$rem
MEM_STATIC 5000
MEM_TOTAL 20000
JOBTYPE SP
EXCHANGE B3LYP
BASIS 6-31g(d,p)
$end

$molecule
0 1
C          11.657000     11.567000      1.569000
C          10.556000     11.708000      0.751000
N          11.552000     11.690000      2.871000
C           9.301000     12.059000      1.255000
C          10.317000     11.924000      3.433000
C           9.149000     12.129000      2.685000
C           7.832000     12.454000      3.346000
C           6.951000     13.288000      2.622000
C           7.248000     11.793000      4.484000
N           5.686000     13.575000      3.067000
N           7.843000     10.876000      5.183000
C           5.961000     11.991000      4.881000
C           5.216000     12.986000      4.160000
S           6.767000     10.331000      6.257000
N           5.534000     11.254000      5.878000
C           3.938000     13.530000      4.674000
S           2.667000     13.860000      3.632000
C           3.664000     13.797000      5.962000
C           1.691000     14.400000      4.977000
S           4.743000     13.844000      7.363000
C           2.407000     14.326000      6.139000
C           0.339000     14.941000      4.981000
C           3.356000     14.419000      8.264000
C           2.262000     14.618000      7.497000
N          -0.301000     14.761000      3.822000
S          -0.426000     16.072000      6.150000
C          -1.523000     15.402000      3.875000
C          -1.765000     16.160000      4.948000
C          13.046000     11.201000      0.998000
H          10.673000     11.575000     -0.321000
H           8.405000     12.091000      0.643000
H          10.384000     12.087000      4.508000
H           7.263000     13.830000      1.730000
H           3.419000     14.578000      9.332000
H           1.328000     15.003000      7.892000
H          -2.185000     15.142000      3.060000
H          -2.632000     16.770000      5.164000
H          13.174000     11.832000      0.109000
C          13.292000      9.785000      0.489000
H          13.808000     11.456000      1.745000
H          14.251000      9.607000     -0.013000
H          12.563000      9.547000     -0.295000
C          13.124000      8.709000      1.639000
H          13.911000      8.877000      2.384000
C          13.057000      7.241000      1.146000
H          12.225000      8.952000      2.217000
H          12.334000      7.155000      0.325000
H          12.809000      6.599000      2.001000
C          14.439000      6.752000      0.524000
H          14.671000      7.386000     -0.341000
C          14.392000      5.326000      0.026000
H          15.269000      6.909000      1.224000
H          15.418000      4.938000      0.023000
H          13.953000      5.242000     -0.976000
H          13.816000      4.835000      0.820000
C          13.549000      8.901000     -3.064000
C          14.836000      9.407000     -3.316000
N          12.506000      9.739000     -2.844000
C          15.003000     10.798000     -3.318000
C          12.691000     11.095000     -2.928000
C          13.924000     11.698000     -3.135000
C          14.135000     13.192000     -3.074000
C          15.317000     13.738000     -3.678000
C          13.183000     14.076000     -2.563000
N          15.487000     15.083000     -3.825000
N          12.018000     13.848000     -1.941000
C          13.431000     15.457000     -2.757000
C          14.605000     15.965000     -3.387000
S          11.287000     15.299000     -1.635000
N          12.399000     16.235000     -2.433000
C          14.882000     17.410000     -3.753000
S          13.851000     18.781000     -3.332000
C          15.913000     17.837000     -4.545000
C          14.785000     19.894000     -4.291000
S          17.257000     17.014000     -5.283000
C          15.839000     19.176000     -4.796000
C          14.580000     21.264000     -4.513000
C          17.752000     18.539000     -5.953000
C          16.833000     19.585000     -5.715000
N          15.564000     22.122000     -4.661000
S          12.968000     21.962000     -4.321000
C          14.991000     23.406000     -4.961000
C          13.614000     23.504000     -4.833000
C          13.253000      7.413000     -3.110000
H          15.667000      8.718000     -3.432000
H          15.987000     11.125000     -3.638000
H          11.810000     11.723000     -2.802000
H          15.972000     13.032000     -4.186000
H          18.606000     18.593000     -6.615000
H          17.000000     20.600000     -6.057000
H          15.679000     24.231000     -5.092000
H          13.051000     24.423000     -4.926000
H          14.097000      6.733000     -3.283000
C          12.230000      7.078000     -4.250000
H          12.838000      7.068000     -2.155000
H          12.351000      7.730000     -5.124000
H          11.208000      7.143000     -3.857000
C          12.392000      5.638000     -4.763000
H          12.583000      4.855000     -4.018000
C          13.464000      5.573000     -5.895000
H          11.410000      5.417000     -5.200000
H          14.384000      6.134000     -5.693000
H          12.991000      6.128000     -6.715000
C          13.662000      4.100000     -6.288000
H          14.337000      3.690000     -5.526000
C          14.271000      4.161000     -7.727000
H          12.715000      3.546000     -6.301000
H          13.645000      4.660000     -8.477000
H          14.632000      3.174000     -8.042000
H          15.148000      4.810000     -7.605000
$end

--------------------------------------------------------------

             Standard Nuclear Orientation (Angstroms)
    I     Atom           X                Y                Z
 ----------------------------------------------------------------
    1      C       0.0628481525    -2.0964636612    -1.9389792276
    2      C       0.3850556236    -1.8096160739    -0.6293583637
    3      N       0.9594347163    -2.0014168820    -2.8921091471
    4      C       1.6484447329    -1.3364485475    -0.2657618146
    5      C       2.2519762214    -1.6484240536    -2.5750010889
    6      C       2.6658516998    -1.2926396773    -1.2835377460
    7      C       4.0781643670    -0.8430863074    -1.0001480889
    8      C       4.2434735551     0.1048953900     0.0342099602
    9      C       5.2932764656    -1.4686883132    -1.4530782359
   10      N       5.4815531035     0.5173586330     0.4556979258
   11      N       5.3383584760    -2.4665774859    -2.2811481673
   12      C       6.5239474463    -1.1407569938    -0.9723579563
   13      C       6.5754016376    -0.0480543859    -0.0405615853
   14      S       6.8846904243    -2.9203452565    -2.3871166351
   15      N       7.5338465270    -1.8551053670    -1.4074639761
   16      C       7.8498629550     0.6190893631     0.3116933916
   17      S       8.1487387185     1.1192571998     1.8835109424
   18      C       8.8582597141     0.8763847778    -0.5381560337
   19      C       9.7163421049     1.7240832379     1.4039214445
   20      S       8.9092698127     0.7613559335    -2.3026438730
   21      C       9.9042866377     1.5363386011     0.0630990088
   22      C      10.7253739649     2.4116754703     2.1974405857
   23      C      10.5106100738     1.4598762063    -2.1844330584
   24      C      10.8557831871     1.8020399331    -0.9240737818
   25      N      10.4978071198     2.3385695917     3.5120317242
   26      S      11.9790417442     3.5853620375     1.6666638517
   27      C      11.4308281451     3.1095840594     4.1768493360
   28      C      12.2454265589     3.8574672133     3.4274781247
   29      C      -1.3452944995    -2.5974317052    -2.3332929230
   30      H      -0.3745760660    -1.9227861380     0.1392209964
   31      H       1.9502072275    -1.1868074541     0.7661930973
   32      H       2.8695479638    -1.5259987797    -3.4639893876
   33      H       3.4018594939     0.6351949913     0.4783271800
   34      H      11.1271073821     1.5789814106    -3.0651254105
   35      H      11.8002901560     2.2765436785    -0.6804372055
   36      H      11.4432943897     2.9492020122     5.2465180659
   37      H      13.0098300599     4.5533624247     3.7466366156
   38      H      -2.0490661378    -1.9583570465    -1.7845169561
   39      C      -1.7617797939    -4.0161976716    -1.9614110438
   40      H      -1.4775928679    -2.4511069195    -3.4125353419
   41      H      -2.8072193413    -4.2846671394    -2.1572408104
   42      H      -1.6794952322    -4.1482013109    -0.8758027857
   43      C      -0.8320288669    -5.1006475329    -2.6455394762
   44      H      -0.9790187229    -5.0434642651    -3.7307777247
   45      C      -0.9934390738    -6.5367474073    -2.0850701229
   46      H       0.2108399899    -4.7765458421    -2.5521765203
   47      H      -0.9494321856    -6.5173254343    -0.9887799328
   48      H      -0.2178727866    -7.1723946535    -2.5313239885
   49      C      -2.4201698782    -7.1575995922    -2.4240550432
   50      H      -3.1891827212    -6.5278223235    -1.9592918357
   51      C      -2.6030005234    -8.5540530446    -1.8761684577
   52      H      -2.6280640681    -7.1147823668    -3.5003894202
   53      H      -3.3702266289    -9.0534492737    -2.4804833668
   54      H      -2.8927386397    -8.5588226250    -0.8179576682
   55      H      -1.6231830320    -9.0014206000    -2.0838050490
   56      C      -4.1487454547    -4.8169891178     0.7092521686
   57      C      -5.3350756538    -4.4499213601     0.0506241098
   58      N      -3.2613990623    -3.8751618590     1.1143087011
   59      C      -5.5588435526    -3.0866725434    -0.1823020398
   60      C      -3.5485826237    -2.5462373647     0.9368198551
   61      C      -4.6713148274    -2.0781522197     0.2681527511
   62      C      -4.8960962134    -0.6193574578    -0.0507032839
   63      C      -6.2268598602    -0.1903901521    -0.3749118080
   64      C      -3.8979077776     0.3493733599     0.0678777001
   65      N      -6.5415964122     1.1311529119    -0.4932284714
   66      N      -2.5902840367     0.2338660995     0.3378244075
   67      C      -4.3049785310     1.6994065437    -0.0663042822
   68      C      -5.6434639652     2.0922907806    -0.3618355304
   69      S      -1.9304793928     1.7473696244     0.4236318216
   70      N      -3.3562682038     2.5773097075     0.2569893151
   71      C      -6.1860527959     3.5078014126    -0.3870746172
   72      S      -5.2166708795     4.9717609467    -0.1948139021
   73      C      -7.5112823155     3.8409506133    -0.4600974248
   74      C      -6.6189472129     6.0021125687    -0.1418741267
   75      S      -8.9596081876     2.8960004790    -0.6543406018
   76      C      -7.7032013967     5.1867599193    -0.3445016722
   77      C      -6.6935499394     7.3924152070     0.0304685753
   78      C      -9.8681138219     4.3758049201    -0.5884139114
   79      C      -9.0790392454     5.5099276989    -0.2943937839
   80      N      -7.6040426568     8.1397292464    -0.5516385782
   81      S      -5.3755653023     8.2592654356     0.8267720210
   82      C      -7.4383342876     9.4878403845    -0.0803402696
   83      C      -6.3017190197     9.7344601036     0.6742466683
   84      C      -3.8493073858    -6.2608210893     1.0691994996
   85      H      -6.0031108711    -5.2232699913    -0.3159803681
   86      H      -6.5424128322    -2.8617025669    -0.5817578969
   87      H      -2.8315414719    -1.8282227003     1.3327086378
   88      H      -7.0060312876    -0.9493747752    -0.3263399160
   89      H     -10.9494244627     4.3542359571    -0.6163079599
   90      H      -9.4926285239     6.5098099152    -0.2291445530
   91      H      -8.1075125436    10.2347744772    -0.4870587509
   92      H      -5.9881589671    10.7127152469     1.0131802429
   93      H      -4.5640451086    -7.0249757839     0.7377140695
   94      C      -3.7589660697    -6.4458835780     2.6235303273
   95      H      -2.9016413025    -6.5858569286     0.6224829254
   96      H      -4.4492605389    -5.7856173795     3.1631256321
   97      H      -2.7262905915    -6.2794101592     2.9537211169
   98      C      -4.1115684265    -7.8790322067     3.0533786564
   99      H      -3.7347568922    -8.7002688657     2.4303389968
  100      C      -5.6504346551    -8.0290367822     3.2636697826
  101      H      -3.6156912456    -7.9763649561     4.0274249373
  102      H      -6.2700846850    -7.5800662434     2.4785683269
  103      H      -5.8418141738    -7.4006982439     4.1427139005
  104      C      -5.9526520598    -9.5025452127     3.5811907197
  105      H      -5.9635617772   -10.0075757350     2.6069247654
  106      C      -7.3371068521    -9.4667629013     4.3073639458
  107      H      -5.1930511479    -9.9471941454     4.2363149685
  108      H      -7.3623963072    -8.8791290890     5.2333358385
  109      H      -7.7484364265   -10.4779476488     4.4170379523
  110      H      -7.9801350557    -8.9232121699     3.6028915676
 ----------------------------------------------------------------

   10   -5663.5096589713      5.29E-06 Convergence criterion met
 Total energy in the final basis set = -5663.5096589713

                    Orbital Energies (a.u.)
 --------------------------------------------------------------

 Alpha MOs
 -- Occupied --
-88.994 -88.987 -88.928 -88.925 -88.925 -88.922 -88.912 -88.909
-14.389 -14.386 -14.382 -14.374 -14.355 -14.349 -14.348 -14.334
-14.334 -14.321 -10.272 -10.270 -10.266 -10.262 -10.259 -10.258
-10.252 -10.250 -10.248 -10.247 -10.239 -10.236 -10.236 -10.236
-10.235 -10.234 -10.229 -10.229 -10.228 -10.226 -10.226 -10.224
-10.224 -10.222 -10.222 -10.221 -10.221 -10.219 -10.218 -10.217
-10.217 -10.213 -10.205 -10.203 -10.197 -10.196 -10.194 -10.193
-10.190 -10.182 -10.181 -10.178 -10.177 -10.176 -10.174 -10.174
-10.171 -10.170 -10.168 -10.166  -8.049  -8.044  -7.987  -7.986
 -7.985  -7.982  -7.972  -7.970  -6.014  -6.009  -6.008  -6.006
 -6.003  -6.002  -5.951  -5.950  -5.949  -5.947  -5.947  -5.946
 -5.946  -5.944  -5.943  -5.943  -5.941  -5.939  -5.936  -5.934
 -5.933  -5.931  -5.928  -5.926  -1.065  -1.038  -0.965  -0.962
 -0.959  -0.955  -0.936  -0.935  -0.926  -0.922  -0.919  -0.906
 -0.856  -0.850  -0.838  -0.828  -0.812  -0.810  -0.808  -0.805
 -0.798  -0.795  -0.792  -0.791  -0.786  -0.777  -0.770  -0.764
 -0.752  -0.746  -0.744  -0.739  -0.732  -0.728  -0.709  -0.707
 -0.695  -0.695  -0.681  -0.676  -0.657  -0.652  -0.650  -0.647
 -0.639  -0.629  -0.627  -0.625  -0.614  -0.608  -0.598  -0.595
 -0.595  -0.592  -0.586  -0.583  -0.581  -0.573  -0.572  -0.556
 -0.554  -0.549  -0.543  -0.536  -0.529  -0.526  -0.520  -0.514
 -0.511  -0.505  -0.502  -0.499  -0.488  -0.486  -0.480  -0.477
 -0.474  -0.474  -0.468  -0.467  -0.460  -0.455  -0.453  -0.449
 -0.446  -0.442  -0.441  -0.437  -0.435  -0.434  -0.434  -0.431
 -0.429  -0.427  -0.425  -0.425  -0.417  -0.416  -0.413  -0.411
 -0.409  -0.408  -0.407  -0.405  -0.403  -0.402  -0.401  -0.399
 -0.397  -0.394  -0.393  -0.391  -0.389  -0.388  -0.382  -0.379
 -0.376  -0.375  -0.372  -0.370  -0.369  -0.360  -0.359  -0.356
 -0.356  -0.354  -0.352  -0.350  -0.350  -0.349  -0.345  -0.342
 -0.339  -0.338  -0.337  -0.336  -0.331  -0.329  -0.323  -0.318
 -0.315  -0.314  -0.309  -0.307  -0.302  -0.301  -0.297  -0.296
 -0.295  -0.293  -0.289  -0.286  -0.284  -0.283  -0.281  -0.278
 -0.275  -0.274  -0.272  -0.264  -0.256  -0.253  -0.252  -0.249
 -0.247  -0.244  -0.234  -0.230  -0.196  -0.195

          Ground-State Mulliken Net Atomic Charges

     Atom                 Charge (a.u.)
  ----------------------------------------
      1 C                     0.291814
      2 C                    -0.121450
      3 N                    -0.485538
      4 C                    -0.083481
      5 C                     0.067074
      6 C                     0.034605
      7 C                     0.042359
      8 C                     0.037626
      9 C                     0.249653
     10 N                    -0.498791
     11 N                    -0.543622
     12 C                     0.204946
     13 C                     0.246313
     14 S                     0.595883
     15 N                    -0.530200
     16 C                    -0.202249
     17 S                     0.355419
     18 C                    -0.112070
     19 C                    -0.222830
     20 S                     0.251453
     21 C                     0.174114
     22 C                     0.049251
     23 C                    -0.292845
     24 C                    -0.083823
     25 N                    -0.437799
     26 S                     0.250931
     27 C                     0.140983
     28 C                    -0.314822
     29 C                    -0.233818
     30 H                     0.109244
     31 H                     0.105934
     32 H                     0.110954
     33 H                     0.115502
     34 H                     0.129466
     35 H                     0.101897
     36 H                     0.112477
     37 H                     0.131026
     38 H                     0.104251
     39 C                    -0.192426
     40 H                     0.109714
     41 H                     0.097110
     42 H                     0.113688
     43 C                    -0.179256
     44 H                     0.088061
     45 C                    -0.182067
     46 H                     0.098849
     47 H                     0.096526
     48 H                     0.088418
     49 C                    -0.182801
     50 H                     0.089945
     51 C                    -0.316308
     52 H                     0.090620
     53 H                     0.098064
     54 H                     0.100676
     55 H                     0.103552
     56 C                     0.284538
     57 C                    -0.119674
     58 N                    -0.502634
     59 C                    -0.095778
     60 C                     0.056899
     61 C                     0.062659
     62 C                     0.029048
     63 C                     0.077118
     64 C                     0.309283
     65 N                    -0.545345
     66 N                    -0.606768
     67 C                     0.170746
     68 C                     0.344527
     69 S                     0.604138
     70 N                    -0.562028
     71 C                    -0.238965
     72 S                     0.328974
     73 C                    -0.085513
     74 C                    -0.205910
     75 S                     0.292107
     76 C                     0.153621
     77 C                     0.049565
     78 C                    -0.311212
     79 C                    -0.073069
     80 N                    -0.424674
     81 S                     0.260868
     82 C                     0.094476
     83 C                    -0.293377
     84 C                    -0.238812
     85 H                     0.095827
     86 H                     0.094372
     87 H                     0.127822
     88 H                     0.120076
     89 H                     0.126073
     90 H                     0.123432
     91 H                     0.115368
     92 H                     0.139007
     93 H                     0.101231
     94 C                    -0.167929
     95 H                     0.130929
     96 H                     0.097612
     97 H                     0.107025
     98 C                    -0.199299
     99 H                     0.089489
    100 C                    -0.173262
    101 H                     0.094751
    102 H                     0.090730
    103 H                     0.093524
    104 C                    -0.175396
    105 H                     0.098600
    106 C                    -0.319990
    107 H                     0.099485
    108 H                     0.108393
    109 H                     0.095169
    110 H                     0.099951
  ----------------------------------------
  Sum of atomic charges =     0.000000

                    Cartesian Multipole Moments
 -----------------------------------------------------------------
    Charge (ESU x 10^10)
                 0.0000
    Dipole Moment (Debye)
         X      -1.0085      Y       1.3000      Z       0.8987
       Tot       1.8748
    Quadrupole Moments (Debye-Ang)
        XX    -392.6834     XY      14.1430     YY    -404.6309
        XZ     -14.1090     YZ       7.8077     ZZ    -450.4811

 Total job time:  97.02s(wall), 1074.71s(cpu)
        *  Thank you very much for using Q-Chem.  Have a nice day.  *
