 Q-Chem 4.4, Q-Chem, Inc., Pleasanton, CA (2016)
 Q-Chem 4.4.2 for Intel X86 Linux

User input:
--------------------------------------------------------------
$comment
SP
$end

$rem
MEM_STATIC 5000
MEM_TOTAL 20000
JOBTYPE SP
EXCHANGE B3LYP
BASIS 6-31g(d,p)
$end

$molecule
0 1
C           2.323000     19.230000     10.867000
C           3.662000     19.577000     10.754000
N           1.738000     18.394000     10.026000
C           4.456000     19.046000      9.744000
C           2.446000     17.848000      9.017000
C           3.830000     18.183000      8.770000
C           4.577000     17.637000      7.588000
C           5.826000     17.042000      7.759000
C           4.143000     17.737000      6.240000
N           6.632000     16.673000      6.748000
N           2.903000     18.234000      5.878000
C           4.944000     17.368000      5.163000
C           6.258000     16.895000      5.461000
S           2.830000     18.082000      4.253000
N           4.348000     17.546000      3.953000
C           7.256000     16.456000      4.502000
S           8.670000     15.639000      5.086000
C           7.531000     17.024000      3.248000
C           9.481000     15.646000      3.471000
S           6.598000     17.994000      2.190000
C           8.722000     16.515000      2.675000
C          10.874000     15.324000      3.262000
C           7.866000     17.891000      0.963000
C           8.874000     17.022000      1.347000
N          11.404000     15.434000      2.047000
S          12.014000     14.874000      4.539000
C          12.706000     15.188000      2.053000
C          13.215000     14.790000      3.249000
C           1.327000     19.895000     11.871000
H           4.110000     20.295000     11.435000
H           5.474000     19.414000      9.651000
H           1.881000     17.200000      8.349000
H           6.124000     17.032000      8.806000
H           7.668000     18.528000      0.111000
H           9.771000     16.774000      0.792000
H          13.203000     15.107000      1.095000
H          14.233000     14.466000      3.418000
H           1.580000     20.963000     11.872000
C           1.476000     19.369000     13.242000
H           0.283000     19.803000     11.547000
H           1.043000     20.061000     13.975000
H           2.557000     19.384000     13.428000
C           0.898000     17.897000     13.448000
H          -0.188000     17.963000     13.311000
C           0.874000     17.395000     14.870000
H           1.220000     17.143000     12.720000
H           0.533000     18.145000     15.593000
H           1.909000     17.220000     15.190000
C          -0.037000     16.127000     15.076000
H          -1.112000     16.245000     14.889000
C           0.004000     15.592000     16.567000
H           0.199000     15.379000     14.310000
H          -0.338000     14.551000     16.635000
H          -0.538000     16.215000     17.288000
H           1.045000     15.511000     16.903000
C          13.549000      8.901000     -3.064000
C          14.836000      9.407000     -3.316000
N          12.506000      9.739000     -2.844000
C          15.003000     10.798000     -3.318000
C          12.691000     11.095000     -2.928000
C          13.924000     11.698000     -3.135000
C          14.135000     13.192000     -3.074000
C          15.317000     13.738000     -3.678000
C          13.183000     14.076000     -2.563000
N          15.487000     15.083000     -3.825000
N          12.018000     13.848000     -1.941000
C          13.431000     15.457000     -2.757000
C          14.605000     15.965000     -3.387000
S          11.287000     15.299000     -1.635000
N          12.399000     16.235000     -2.433000
C          14.882000     17.410000     -3.753000
S          13.851000     18.781000     -3.332000
C          15.913000     17.837000     -4.545000
C          14.785000     19.894000     -4.291000
S          17.257000     17.014000     -5.283000
C          15.839000     19.176000     -4.796000
C          14.580000     21.264000     -4.513000
C          17.752000     18.539000     -5.953000
C          16.833000     19.585000     -5.715000
N          15.564000     22.122000     -4.661000
S          12.968000     21.962000     -4.321000
C          14.991000     23.406000     -4.961000
C          13.614000     23.504000     -4.833000
C          13.253000      7.413000     -3.110000
H          15.667000      8.718000     -3.432000
H          15.987000     11.125000     -3.638000
H          11.810000     11.723000     -2.802000
H          15.972000     13.032000     -4.186000
H          18.606000     18.593000     -6.615000
H          17.000000     20.600000     -6.057000
H          15.679000     24.231000     -5.092000
H          13.051000     24.423000     -4.926000
H          14.097000      6.733000     -3.283000
C          12.230000      7.078000     -4.250000
H          12.838000      7.068000     -2.155000
H          12.351000      7.730000     -5.124000
H          11.208000      7.143000     -3.857000
C          12.392000      5.638000     -4.763000
H          12.583000      4.855000     -4.018000
C          13.464000      5.573000     -5.895000
H          11.410000      5.417000     -5.200000
H          14.384000      6.134000     -5.693000
H          12.991000      6.128000     -6.715000
C          13.662000      4.100000     -6.288000
H          14.337000      3.690000     -5.526000
C          14.271000      4.161000     -7.727000
H          12.715000      3.546000     -6.301000
H          13.645000      4.660000     -8.477000
H          14.632000      3.174000     -8.042000
H          15.148000      4.810000     -7.605000
$end

--------------------------------------------------------------

             Standard Nuclear Orientation (Angstroms)
    I     Atom           X                Y                Z
 ----------------------------------------------------------------
    1      C     -12.5829669717    -0.7393786772     0.0618919549
    2      C     -11.7525511121    -1.3176731901    -0.8878890495
    3      N     -12.1222436024     0.0640295061     1.0056457724
    4      C     -10.3854506000    -1.0656426051    -0.8916003866
    5      C     -10.8052087075     0.3452551686     1.0672267123
    6      C      -9.8423666066    -0.2465932193     0.1664822566
    7      C      -8.3692298323     0.0051980964     0.3069036841
    8      C      -7.6148011688     0.3998511878    -0.7968867531
    9      C      -7.6235124287    -0.1982185292     1.4976963741
   10      N      -6.2733463281     0.4914749699    -0.8015764192
   11      N      -8.2059563507    -0.5239224725     2.7102676170
   12      C      -6.2346217734    -0.1144935266     1.5384869539
   13      C      -5.5631117945     0.1668940289     0.3100634146
   14      S      -6.9758420431    -0.5783003370     3.7840086649
   15      N      -5.7094505008    -0.3487022368     2.7715082086
   16      C      -4.1298208639     0.3016186281     0.1205050055
   17      S      -3.5445014595     0.9401766838    -1.3820214683
   18      C      -3.1212450133    -0.4653495114     0.7249052261
   19      C      -1.8162729080     0.5836820103    -0.9919796481
   20      S      -3.0826460483    -1.3967107961     2.1608123530
   21      C      -1.8509864813    -0.2434796977     0.1391509707
   22      C      -0.7402354634     0.6372039786    -1.9548362400
   23      C      -1.3497246515    -1.6709491730     1.9469461679
   24      C      -0.8480863214    -0.9400423858     0.8826082262
   25      N       0.4892980469     0.2801125335    -1.5943392954
   26      S      -0.9284210926     1.0548656121    -3.6645069477
   27      C       1.3295879054     0.3030933612    -2.6186150567
   28      C       0.8078923047     0.7649513745    -3.7858433444
   29      C     -14.0965085688    -1.0892696059     0.2322597103
   30      H     -12.1498360732    -2.0040287874    -1.6302297084
   31      H      -9.7703781935    -1.6080243063    -1.6042749441
   32      H     -10.5037605033     0.9845483949     1.8953487752
   33      H      -8.2319209153     0.4982854724    -1.6882827986
   34      H      -0.9513338468    -2.3728653315     2.6676926373
   35      H       0.1748534225    -0.9215132177     0.5256923394
   36      H       2.3821877686     0.1721452996    -2.4036263753
   37      H       1.3666216673     0.9332918547    -4.6965265945
   38      H     -14.1653893366    -2.1748950142     0.0862908347
   39      C     -14.9448621137    -0.4188833810    -0.7724275904
   40      H     -14.4659230117    -0.8673653769     1.2410547750
   41      H     -15.9135448638    -0.9253505172    -0.8661653599
   42      H     -14.4313065849    -0.5900296735    -1.7265510968
   43      C     -15.1483228924     1.1432769658    -0.5243091457
   44      H     -15.7192693477     1.2426151907     0.4066436255
   45      C     -16.1461393861     1.8259524293    -1.4259634345
   46      H     -14.2382201983     1.7295732984    -0.3506609487
   47      H     -17.0631667538     1.2460852965    -1.5819279021
   48      H     -15.7235669211     1.8658689902    -2.4379363492
   49      C     -16.5950577247     3.2446090563    -0.9101468972
   50      H     -17.1318790979     3.2846849961     0.0462707585
   51      C     -17.5991602477     3.9577668210    -1.9072282008
   52      H     -15.7095611975     3.8344223006    -0.6456242381
   53      H     -17.6429309613     5.0410597792    -1.7345160379
   54      H     -18.6107432560     3.5353820528    -1.9122206986
   55      H     -17.2047379060     3.9069639117    -2.9294747859
   56      C       7.0663151449     5.6265203508    -0.3444574837
   57      C       7.9382538897     4.8832053482    -1.1587759916
   58      N       6.0877930867     5.0117147470     0.3647686093
   59      C       7.7520016257     3.4960405558    -1.2208882528
   60      C       5.9825216983     3.6448725877     0.3387408097
   61      C       6.7669290526     2.8217986019    -0.4575011864
   62      C       6.5378663683     1.3349767317    -0.5885317671
   63      C       7.6067188128     0.5235815413    -1.0976960796
   64      C       5.3826520820     0.6985056214    -0.1310763284
   65      N       7.5427827782    -0.8383405452    -1.0729087102
   66      N       4.2441922745     1.1987690506     0.3686623713
   67      C       5.3947188462    -0.7178759674    -0.1353877081
   68      C       6.4864931191    -1.4942488308    -0.6237667762
   69      S       3.2624602792    -0.0557887167     0.8110254552
   70      N       4.3558429727    -1.2621416766     0.4969063353
   71      C       6.6344774648    -3.0007809914    -0.5390821706
   72      S       5.3985635494    -4.1116983652     0.0594346480
   73      C       7.7798597735    -3.6955074557    -0.8183822009
   74      C       6.4697433114    -5.4824585269    -0.0068714339
   75      S       9.3349616189    -3.2143543744    -1.4335723850
   76      C       7.6479866094    -5.0244541818    -0.5392620336
   77      C       6.2293799674    -6.8159035200     0.3569402114
   78      C       9.8317096708    -4.8758065919    -1.3223613154
   79      C       8.8717047779    -5.7122078267    -0.7106877257
   80      N       6.7637874164    -7.8385687148    -0.2714613942
   81      S       4.9545725826    -7.2023126427     1.5180457714
   82      C       6.3766666960    -9.0366664278     0.4225734881
   83      C       5.4189724598    -8.8847570627     1.4134631362
   84      C       7.2308413048     7.1237072573    -0.1567382529
   85      H       8.6769769028     5.4017327828    -1.7622290630
   86      H       8.5285172398     2.9693615089    -1.7660649973
   87      H       5.2183699946     3.1956391857     0.9717356945
   88      H       8.5415382532     1.0363149045    -1.3184722378
   89      H      10.8474115160    -5.1592720257    -1.5641734521
   90      H       9.0237964142    -6.7770501714    -0.5763117050
   91      H       6.7245066025    -9.9752498406     0.0112359422
   92      H       4.9555986904    -9.7005470882     1.9519335478
   93      H       8.0192147040     7.6237190503    -0.7339042519
   94      C       7.5489781225     7.4714741850     1.3386550496
   95      H       6.3192068044     7.6566952395    -0.4535906552
   96      H       8.1555284893     6.6985457962     1.8268142023
   97      H       6.6118533207     7.6312233100     1.8858618870
   98      C       8.3399072022     8.7832164025     1.4681793550
   99      H       8.0494887056     9.6147745712     0.8133793024
  100      C       9.8727750874     8.5172679358     1.3480941376
  101      H       8.1215760691     9.1058000526     2.4940474288
  102      H      10.1622832457     7.8418058536     0.5345457359
  103      H      10.0961267722     7.9457706890     2.2578517546
  104      C      10.6007303420     9.8711021066     1.3725110463
  105      H      10.5146908607    10.2594223014     0.3496847493
  106      C      12.0599597665     9.5189936495     1.8106801018
  107      H      10.1487394596    10.5692674003     2.0881670146
  108      H      12.1481613728     9.0371048696     2.7921996790
  109      H      12.7264367649    10.3810515944     1.6826976413
  110      H      12.3661285434     8.7541756742     1.0850575107
 ----------------------------------------------------------------

   10   -5663.5237347761      8.32E-06 Convergence criterion met
 Total energy in the final basis set = -5663.5237347761

                    Orbital Energies (a.u.)
 --------------------------------------------------------------

 Alpha MOs
 -- Occupied --
-88.993 -88.989 -88.929 -88.925 -88.923 -88.921 -88.910 -88.909
-14.389 -14.384 -14.383 -14.380 -14.352 -14.352 -14.347 -14.341
-14.327 -14.326 -10.273 -10.268 -10.268 -10.267 -10.261 -10.258
-10.257 -10.255 -10.248 -10.245 -10.245 -10.241 -10.238 -10.234
-10.233 -10.233 -10.233 -10.230 -10.230 -10.230 -10.229 -10.228
-10.227 -10.225 -10.224 -10.224 -10.223 -10.221 -10.220 -10.219
-10.215 -10.212 -10.212 -10.201 -10.200 -10.200 -10.199 -10.192
-10.186 -10.182 -10.182 -10.182 -10.181 -10.177 -10.175 -10.175
-10.174 -10.174 -10.173 -10.173  -8.048  -8.044  -7.990  -7.985
 -7.984  -7.981  -7.970  -7.970  -6.013  -6.009  -6.007  -6.006
 -6.004  -6.001  -5.953  -5.950  -5.949  -5.948  -5.947  -5.945
 -5.945  -5.945  -5.942  -5.941  -5.941  -5.937  -5.934  -5.934
 -5.930  -5.930  -5.926  -5.926  -1.034  -1.033  -0.977  -0.962
 -0.960  -0.959  -0.942  -0.928  -0.920  -0.913  -0.901  -0.897
 -0.848  -0.848  -0.834  -0.830  -0.810  -0.807  -0.805  -0.804
 -0.803  -0.802  -0.799  -0.794  -0.781  -0.781  -0.768  -0.767
 -0.749  -0.748  -0.742  -0.739  -0.725  -0.723  -0.711  -0.706
 -0.698  -0.692  -0.677  -0.675  -0.653  -0.650  -0.648  -0.646
 -0.636  -0.631  -0.629  -0.622  -0.613  -0.610  -0.598  -0.593
 -0.591  -0.590  -0.583  -0.582  -0.580  -0.579  -0.571  -0.568
 -0.553  -0.552  -0.545  -0.539  -0.526  -0.521  -0.513  -0.510
 -0.508  -0.507  -0.503  -0.500  -0.486  -0.482  -0.477  -0.475
 -0.474  -0.470  -0.469  -0.468  -0.462  -0.458  -0.451  -0.448
 -0.446  -0.442  -0.440  -0.439  -0.434  -0.433  -0.432  -0.430
 -0.429  -0.424  -0.423  -0.421  -0.421  -0.417  -0.415  -0.414
 -0.413  -0.409  -0.406  -0.403  -0.402  -0.401  -0.401  -0.399
 -0.396  -0.394  -0.392  -0.391  -0.389  -0.386  -0.383  -0.383
 -0.379  -0.374  -0.373  -0.372  -0.367  -0.366  -0.360  -0.355
 -0.354  -0.351  -0.349  -0.346  -0.346  -0.344  -0.342  -0.339
 -0.336  -0.336  -0.336  -0.332  -0.331  -0.330  -0.327  -0.322
 -0.314  -0.309  -0.305  -0.305  -0.304  -0.303  -0.300  -0.298
 -0.297  -0.293  -0.291  -0.287  -0.286  -0.283  -0.281  -0.279
 -0.278  -0.271  -0.268  -0.267  -0.255  -0.253  -0.250  -0.248
 -0.244  -0.244  -0.237  -0.230  -0.195  -0.194

          Ground-State Mulliken Net Atomic Charges

     Atom                 Charge (a.u.)
  ----------------------------------------
      1 C                     0.277140
      2 C                    -0.113808
      3 N                    -0.471758
      4 C                    -0.073239
      5 C                     0.091228
      6 C                    -0.001295
      7 C                     0.021866
      8 C                     0.079656
      9 C                     0.211444
     10 N                    -0.533593
     11 N                    -0.542133
     12 C                     0.253446
     13 C                     0.293252
     14 S                     0.617102
     15 N                    -0.574660
     16 C                    -0.215671
     17 S                     0.322330
     18 C                    -0.138418
     19 C                    -0.214050
     20 S                     0.294158
     21 C                     0.131936
     22 C                     0.050817
     23 C                    -0.323994
     24 C                    -0.053719
     25 N                    -0.432747
     26 S                     0.273894
     27 C                     0.142652
     28 C                    -0.312015
     29 C                    -0.210515
     30 H                     0.090446
     31 H                     0.107393
     32 H                     0.114698
     33 H                     0.110528
     34 H                     0.140020
     35 H                     0.123350
     36 H                     0.111206
     37 H                     0.130948
     38 H                     0.094468
     39 C                    -0.182021
     40 H                     0.117156
     41 H                     0.091781
     42 H                     0.087775
     43 C                    -0.176717
     44 H                     0.095362
     45 C                    -0.169084
     46 H                     0.108068
     47 H                     0.089304
     48 H                     0.087258
     49 C                    -0.186913
     50 H                     0.096010
     51 C                    -0.328763
     52 H                     0.095110
     53 H                     0.100268
     54 H                     0.106654
     55 H                     0.102295
     56 C                     0.281659
     57 C                    -0.121977
     58 N                    -0.498936
     59 C                    -0.094904
     60 C                     0.063667
     61 C                     0.057287
     62 C                     0.029230
     63 C                     0.071936
     64 C                     0.292875
     65 N                    -0.544594
     66 N                    -0.596125
     67 C                     0.165966
     68 C                     0.339429
     69 S                     0.623056
     70 N                    -0.568802
     71 C                    -0.240113
     72 S                     0.326342
     73 C                    -0.085956
     74 C                    -0.205987
     75 S                     0.289476
     76 C                     0.153766
     77 C                     0.050665
     78 C                    -0.311450
     79 C                    -0.072942
     80 N                    -0.425672
     81 S                     0.257413
     82 C                     0.094272
     83 C                    -0.293404
     84 C                    -0.228111
     85 H                     0.091366
     86 H                     0.090873
     87 H                     0.129616
     88 H                     0.119193
     89 H                     0.125111
     90 H                     0.122547
     91 H                     0.114368
     92 H                     0.137654
     93 H                     0.096617
     94 C                    -0.164525
     95 H                     0.119967
     96 H                     0.097239
     97 H                     0.107515
     98 C                    -0.197695
     99 H                     0.087143
    100 C                    -0.173316
    101 H                     0.093651
    102 H                     0.091093
    103 H                     0.093330
    104 C                    -0.175016
    105 H                     0.097665
    106 C                    -0.320059
    107 H                     0.098970
    108 H                     0.108419
    109 H                     0.094347
    110 H                     0.099958
  ----------------------------------------
  Sum of atomic charges =     0.000000

                    Cartesian Multipole Moments
 -----------------------------------------------------------------
    Charge (ESU x 10^10)
                 0.0000
    Dipole Moment (Debye)
         X       1.0782      Y      -2.3553      Z      -0.7580
       Tot       2.6990
    Quadrupole Moments (Debye-Ang)
        XX    -423.9141     XY      20.4140     YY    -417.9526
        XZ       2.7781     YZ     -16.1395     ZZ    -433.8416

 Total job time:  92.88s(wall), 1016.12s(cpu)
        *  Thank you very much for using Q-Chem.  Have a nice day.  *
