 Q-Chem 4.4, Q-Chem, Inc., Pleasanton, CA (2016)
 Q-Chem 4.4.2 for Intel X86 Linux

User input:
--------------------------------------------------------------
$comment
SP
$end

$rem
MEM_STATIC 5000
MEM_TOTAL 20000
JOBTYPE SP
EXCHANGE B3LYP
BASIS 6-31g(d,p)
$end

$molecule
0 1
C          24.378000     22.375000      0.201000
C          24.391000     23.409000      1.163000
N          23.167000     22.018000     -0.319000
C          23.235000     24.129000      1.378000
C          22.007000     22.643000      0.019000
C          21.995000     23.653000      0.985000
C          20.653000     24.218000      1.429000
C          20.449000     25.589000      1.517000
C          19.482000     23.455000      1.668000
N          19.254000     26.244000      1.721000
N          19.493000     22.082000      1.805000
C          18.264000     24.041000      1.857000
C          18.188000     25.442000      1.838000
S          17.946000     21.619000      2.191000
N          17.258000     23.152000      2.070000
C          16.904000     26.100000      2.003000
S          15.311000     25.361000      1.590000
C          16.747000     27.389000      2.476000
C          14.546000     26.952000      1.940000
S          17.948000     28.560000      2.938000
C          15.446000     27.874000      2.400000
C          13.150000     27.147000      1.850000
C          16.567000     29.625000      3.447000
C          15.401000     29.174000      2.931000
N          12.661000     28.328000      1.761000
S          11.945000     25.878000      1.947000
C          11.340000     28.336000      1.827000
C          10.772000     27.108000      1.674000
C          25.606000     21.630000     -0.204000
H          25.338000     23.785000      1.537000
H          23.321000     25.044000      1.956000
H          21.094000     22.202000     -0.380000
H          21.309000     26.202000      1.255000
H          16.756000     30.583000      3.913000
H          14.488000     29.759000      2.913000
H          10.862000     29.300000      1.710000
H           9.715000     26.924000      1.528000
H          26.280000     22.248000     -0.811000
C          25.305000     20.401000     -1.099000
H          26.008000     21.346000      0.777000
H          24.803000     20.729000     -2.018000
H          24.504000     19.830000     -0.613000
C          26.492000     19.379000     -1.485000
H          27.386000     19.963000     -1.735000
C          26.184000     18.381000     -2.621000
H          26.641000     18.730000     -0.614000
H          25.661000     17.554000     -2.125000
H          27.042000     17.820000     -3.013000
C          25.520000     18.881000     -3.885000
H          24.574000     19.381000     -3.645000
C          25.352000     17.850000     -4.953000
H          26.017000     19.777000     -4.276000
H          26.333000     17.504000     -5.301000
H          24.875000     18.269000     -5.848000
H          24.725000     17.043000     -4.554000
C          26.688000     30.173000      1.424000
C          25.289000     30.391000      1.655000
N          27.128000     29.284000      0.541000
C          24.362000     29.544000      0.980000
C          26.217000     28.483000     -0.089000
C          24.830000     28.518000      0.097000
C          23.915000     27.621000     -0.649000
C          24.490000     26.509000     -1.308000
C          22.536000     27.808000     -0.864000
N          23.631000     25.540000     -1.841000
N          21.848000     28.854000     -0.451000
C          21.731000     26.914000     -1.528000
C          22.316000     25.717000     -2.009000
S          20.258000     28.588000     -0.751000
N          20.432000     27.188000     -1.646000
C          21.558000     24.794000     -2.908000
S          19.865000     24.898000     -3.425000
C          22.125000     23.643000     -3.545000
C          20.000000     23.503000     -4.558000
S          23.727000     22.994000     -3.411000
C          21.241000     22.960000     -4.440000
C          19.020000     23.264000     -5.569000
C          23.296000     21.750000     -4.681000
C          21.903000     21.862000     -5.047000
N          18.184000     24.235000     -5.809000
S          19.145000     22.112000     -6.877000
C          17.489000     24.036000     -6.905000
C          17.785000     22.881000     -7.595000
C          27.671000     31.047000      2.144000
H          24.912000     31.224000      2.240000
H          23.307000     29.711000      1.179000
H          26.714000     27.728000     -0.697000
H          25.564000     26.337000     -1.268000
H          24.054000     21.024000     -4.942000
H          21.429000     21.154000     -5.718000
H          16.744000     24.775000     -7.169000
H          17.352000     22.367000     -8.443000
H          27.844000     31.863000      1.431000
C          28.999000     30.248000      2.576000
H          27.302000     31.574000      3.033000
H          29.504000     29.864000      1.680000
H          28.703000     29.370000      3.163000
C          29.880000     31.152000      3.378000
H          30.163000     31.938000      2.666000
C          31.093000     30.368000      3.908000
H          29.269000     31.636000      4.149000
H          31.707000     29.794000      3.202000
H          30.677000     29.541000      4.497000
C          32.076000     31.217000      4.709000
H          32.174000     32.055000      4.009000
C          33.413000     30.486000      4.908000
H          31.562000     31.434000      5.653000
H          33.915000     30.266000      3.957000
H          33.288000     29.551000      5.468000
H          34.108000     31.112000      5.481000
$end

--------------------------------------------------------------

             Standard Nuclear Orientation (Angstroms)
    I     Atom           X                Y                Z
 ----------------------------------------------------------------
    1      C       2.7088924923     2.4735886014    -2.4794204683
    2      C       2.9342258304     1.0805812871    -2.5387880439
    3      N       1.4259751490     2.8926403647    -2.2723245730
    4      C       1.9078683801     0.2276593123    -2.1922689404
    5      C       0.3912602966     2.0305821708    -2.0807786393
    6      C       0.5888515457     0.6491280000    -2.1578634769
    7      C      -0.6263848288    -0.2642896752    -2.0791633837
    8      C      -0.6310518209    -1.3770006534    -1.2479874107
    9      C      -1.8719396666    -0.0264947210    -2.7136534985
   10      N      -1.7057499077    -2.1801506987    -0.9339173119
   11      N      -2.0420886430     0.9128784185    -3.7099699295
   12      C      -2.9800169608    -0.7718643971    -2.4321756909
   13      C      -2.8617395303    -1.8183523274    -1.5049155002
   14      S      -3.6068183584     0.7742206859    -4.2475282528
   15      N      -4.0819695292    -0.3979948143    -3.1347766246
   16      C      -4.0267159037    -2.6120523982    -1.1560383771
   17      S      -5.7323749267    -2.0347157976    -1.2644300133
   18      C      -3.9688243216    -3.9052900117    -0.6722160548
   19      C      -6.2418373192    -3.5665652025    -0.4688852494
   20      S      -2.5868071672    -4.8968062576    -0.3061421291
   21      C      -5.1918685552    -4.4164145733    -0.2520774047
   22      C      -7.6000176066    -3.8663058349    -0.2230339524
   23      C      -3.7664291416    -6.2319257550     0.0494066368
   24      C      -5.0176769861    -5.7383576273     0.1907655237
   25      N      -7.9252447225    -4.7658541591     0.6295170054
   26      S      -8.9596299694    -3.1636268151    -1.0771366499
   27      C      -9.2241789624    -5.0152950019     0.6326960192
   28      C      -9.9667996350    -4.0847790204    -0.0281152585
   29      C       3.7893035398     3.4790063331    -2.7005112943
   30      H       3.9485873428     0.7016137177    -2.6130531329
   31      H       2.1613062216    -0.8169849886    -2.0399779519
   32      H      -0.6003401371     2.4794703179    -2.0309889688
   33      H       0.2848341704    -1.5350695807    -0.6821428516
   34      H      -3.4132905448    -7.2206307854     0.3109338713
   35      H      -5.8394444259    -6.3027637773     0.6176870302
   36      H      -9.5707008840    -5.7328612384     1.3651509694
   37      H     -11.0468216952    -4.0134855454     0.0017274928
   38      H       4.4974986666     3.5120269342    -1.8626459697
   39      C       3.2572009397     4.9306728690    -2.8082057301
   40      H       4.2170477069     3.1180194015    -3.6446216495
   41      H       2.7412342754     5.2034784887    -1.8789563044
   42      H       2.4214454018     4.9214633754    -3.5190262883
   43      C       4.2599788552     6.1246250692    -3.2221665927
   44      H       5.2062749129     5.9856409534    -2.6855110356
   45      C       3.7358308798     7.5584040814    -2.9965327212
   46      H       4.3792405274     6.0691478110    -4.3106251024
   47      H       3.1397967580     7.7763373132    -3.8913636729
   48      H       4.4772897917     8.3616414014    -3.0944995004
   49      C       3.0590870164     7.9011174512    -1.6876563750
   50      H       2.2113623857     7.2283934824    -1.5106778107
   51      C       2.6734952010     9.3368694393    -1.5401972940
   52      H       3.6465385782     7.5597569038    -0.8267965495
   53      H       3.5694683895     9.9696400197    -1.5363975316
   54      H       2.1965841926     9.5299341239    -0.5709723884
   55      H       1.9705820051     9.5867718011    -2.3445857876
   56      C       6.1616799771    -3.7950431205     1.5731278560
   57      C       4.8266882186    -4.3200094630     1.5902551455
   58      N       6.4095801899    -2.4926544731     1.6501946821
   59      C       3.7450992722    -3.3912933193     1.5864242860
   60      C       5.3534054328    -1.6249903231     1.6414880611
   61      C       4.0016159860    -1.9822437848     1.5734788291
   62      C       2.9198535495    -0.9684167986     1.5906506931
   63      C       3.2861221945     0.3763276997     1.3478348904
   64      C       1.5684135875    -1.1787612936     1.9256137100
   65      N       2.2648974476     1.3147465527     1.1544413214
   66      N       1.0637694854    -2.3322688545     2.3164891854
   67      C       0.6015802085    -0.2034836946     1.8784562923
   68      C       0.9786422833     1.0912113859     1.4448852599
   69      S      -0.5651110161    -2.1811080284     2.4294259656
   70      N      -0.6518155488    -0.5294257620     2.1933560292
   71      C       0.0373958117     2.2472745398     1.5556420382
   72      S      -1.6573166633     2.2465367089     2.0774687171
   73      C       0.3919160548     3.6057284170     1.2710766489
   74      C      -1.7988668358     4.0424587868     2.0268086849
   75      S       1.8936171944     4.2476834790     0.6893994309
   76      C      -0.6401422252     4.5606581245     1.5392835849
   77      C      -2.8723363752     4.7259274829     2.6750182879
   78      C       1.2042107016     5.9333005271     0.8614774798
   79      C      -0.1822785093     5.8745348898     1.2629040210
   80      N      -3.5802818460     4.0282548164     3.5184654178
   81      S      -3.0025075964     6.4518567565     2.9154691054
   82      C      -4.3727733914     4.7801079786     4.2468306922
   83      C      -4.2902687582     6.1346348894     4.0097846345
   84      C       7.3055510393    -4.7645294082     1.5582843107
   85      H       4.6119207549    -5.3782591181     1.7008245989
   86      H       2.7405039520    -3.8051596963     1.5821976243
   87      H       5.6958933571    -0.5919321002     1.5946828271
   88      H       4.3258804528     0.6422677653     1.1666205259
   89      H       1.8333359207     6.7599608980     0.5604872976
   90      H      -0.7968311268     6.7656167094     1.3298313778
   91      H      -5.0247953724     4.2852023632     4.9544872248
   92      H      -4.8500219151     7.0013954620     4.3356550276
   93      H       7.5388396678    -4.8871124735     2.6235090794
   94      C       8.5370838931    -4.2448022495     0.6628405600
   95      H       7.0778988726    -5.7894178916     1.2389270068
   96      H       8.9184373700    -3.3016062409     1.0754515331
   97      H       8.1646800034    -4.0130912133    -0.3424923891
   98      C       9.5902416396    -5.3052422633     0.6089263859
   99      H       9.9280807430    -5.3893283881     1.6498986544
  100      C      10.7172805208    -4.8775790376    -0.3470090332
  101      H       9.1091492354    -6.2584652701     0.3600609645
  102      H      11.1934766858    -3.8986594790    -0.2060774530
  103      H      10.2335820325    -4.7035219737    -1.3163623800
  104      C      11.8634696906    -5.8807576646    -0.4396050876
  105      H      12.0266670925    -6.0395913192     0.6327691373
  106      C      13.0966799193    -5.2598197748    -1.1142603097
  107      H      11.4534507716    -6.7315316608    -0.9968205697
  108      H      13.4939288070    -4.4041006202    -0.5532406579
  109      H      12.8833222372    -4.9420517950    -2.1423420236
  110      H      13.9111126027    -5.9926451752    -1.1680779352
 ----------------------------------------------------------------

    9   -5663.4967178169      8.82E-06 Convergence criterion met
 Total energy in the final basis set = -5663.4967178169

                    Orbital Energies (a.u.)
 --------------------------------------------------------------

 Alpha MOs
 -- Occupied --
-88.990 -88.980 -88.925 -88.923 -88.923 -88.915 -88.908 -88.906
-14.386 -14.381 -14.381 -14.374 -14.356 -14.345 -14.333 -14.333
-14.328 -14.319 -10.261 -10.259 -10.259 -10.259 -10.253 -10.251
-10.247 -10.244 -10.243 -10.239 -10.238 -10.238 -10.237 -10.234
-10.231 -10.229 -10.228 -10.228 -10.227 -10.226 -10.225 -10.225
-10.224 -10.224 -10.223 -10.223 -10.222 -10.220 -10.216 -10.210
-10.207 -10.207 -10.205 -10.204 -10.204 -10.198 -10.194 -10.193
-10.188 -10.186 -10.180 -10.175 -10.175 -10.174 -10.174 -10.173
-10.173 -10.173 -10.172 -10.170  -8.044  -8.035  -7.985  -7.985
 -7.983  -7.973  -7.967  -7.964  -6.010  -6.004  -6.002  -6.000
 -5.995  -5.992  -5.949  -5.948  -5.948  -5.946  -5.945  -5.944
 -5.942  -5.942  -5.940  -5.937  -5.933  -5.932  -5.929  -5.928
 -5.928  -5.925  -5.923  -5.920  -1.036  -1.022  -0.991  -0.986
 -0.959  -0.943  -0.935  -0.926  -0.912  -0.905  -0.895  -0.888
 -0.841  -0.832  -0.828  -0.827  -0.810  -0.810  -0.808  -0.806
 -0.801  -0.800  -0.797  -0.790  -0.786  -0.780  -0.769  -0.766
 -0.749  -0.748  -0.740  -0.739  -0.726  -0.714  -0.707  -0.705
 -0.697  -0.686  -0.674  -0.668  -0.654  -0.654  -0.649  -0.642
 -0.637  -0.633  -0.622  -0.618  -0.613  -0.606  -0.602  -0.598
 -0.597  -0.590  -0.585  -0.579  -0.577  -0.576  -0.571  -0.555
 -0.551  -0.542  -0.536  -0.534  -0.526  -0.521  -0.518  -0.512
 -0.507  -0.499  -0.495  -0.491  -0.482  -0.479  -0.475  -0.472
 -0.471  -0.470  -0.468  -0.463  -0.463  -0.457  -0.454  -0.449
 -0.447  -0.447  -0.442  -0.441  -0.438  -0.436  -0.435  -0.433
 -0.429  -0.426  -0.423  -0.418  -0.418  -0.416  -0.414  -0.413
 -0.409  -0.406  -0.405  -0.405  -0.400  -0.397  -0.395  -0.391
 -0.391  -0.390  -0.389  -0.386  -0.385  -0.383  -0.378  -0.376
 -0.375  -0.372  -0.372  -0.370  -0.365  -0.358  -0.356  -0.354
 -0.351  -0.349  -0.348  -0.347  -0.345  -0.343  -0.342  -0.339
 -0.338  -0.329  -0.329  -0.328  -0.326  -0.322  -0.321  -0.320
 -0.311  -0.310  -0.307  -0.303  -0.300  -0.299  -0.296  -0.295
 -0.293  -0.293  -0.290  -0.289  -0.285  -0.281  -0.278  -0.278
 -0.277  -0.266  -0.264  -0.257  -0.252  -0.250  -0.248  -0.246
 -0.236  -0.234  -0.229  -0.224  -0.195  -0.186

          Ground-State Mulliken Net Atomic Charges

     Atom                 Charge (a.u.)
  ----------------------------------------
      1 C                     0.288718
      2 C                    -0.118020
      3 N                    -0.483384
      4 C                    -0.078853
      5 C                     0.097126
      6 C                     0.035990
      7 C                     0.060049
      8 C                     0.053643
      9 C                     0.200325
     10 N                    -0.542652
     11 N                    -0.552583
     12 C                     0.267876
     13 C                     0.304939
     14 S                     0.606690
     15 N                    -0.595783
     16 C                    -0.213471
     17 S                     0.321945
     18 C                    -0.127007
     19 C                    -0.235631
     20 S                     0.262743
     21 C                     0.203003
     22 C                     0.052435
     23 C                    -0.310567
     24 C                    -0.048964
     25 N                    -0.403588
     26 S                     0.254195
     27 C                     0.107414
     28 C                    -0.297173
     29 C                    -0.240821
     30 H                     0.085935
     31 H                     0.095559
     32 H                     0.116201
     33 H                     0.098171
     34 H                     0.126974
     35 H                     0.119736
     36 H                     0.106853
     37 H                     0.131019
     38 H                     0.121351
     39 C                    -0.183218
     40 H                     0.114715
     41 H                     0.118112
     42 H                     0.106213
     43 C                    -0.195099
     44 H                     0.087213
     45 C                    -0.170538
     46 H                     0.093576
     47 H                     0.089687
     48 H                     0.086483
     49 C                    -0.182938
     50 H                     0.102727
     51 C                    -0.318499
     52 H                     0.084436
     53 H                     0.103832
     54 H                     0.096582
     55 H                     0.109034
     56 C                     0.286405
     57 C                    -0.129590
     58 N                    -0.499512
     59 C                    -0.084997
     60 C                     0.051100
     61 C                     0.063023
     62 C                     0.046201
     63 C                     0.059369
     64 C                     0.270603
     65 N                    -0.558393
     66 N                    -0.578995
     67 C                     0.195656
     68 C                     0.339152
     69 S                     0.613214
     70 N                    -0.581277
     71 C                    -0.222868
     72 S                     0.353100
     73 C                    -0.131567
     74 C                    -0.251902
     75 S                     0.311254
     76 C                     0.176719
     77 C                     0.052562
     78 C                    -0.318480
     79 C                    -0.099358
     80 N                    -0.403998
     81 S                     0.271719
     82 C                     0.133284
     83 C                    -0.327801
     84 C                    -0.244210
     85 H                     0.092008
     86 H                     0.124675
     87 H                     0.094584
     88 H                     0.120151
     89 H                     0.132684
     90 H                     0.111205
     91 H                     0.111067
     92 H                     0.140033
     93 H                     0.121483
     94 C                    -0.171029
     95 H                     0.097921
     96 H                     0.121226
     97 H                     0.092584
     98 C                    -0.171976
     99 H                     0.091124
    100 C                    -0.179531
    101 H                     0.088424
    102 H                     0.089722
    103 H                     0.083715
    104 C                    -0.166707
    105 H                     0.096647
    106 C                    -0.324367
    107 H                     0.094865
    108 H                     0.103693
    109 H                     0.103583
    110 H                     0.099093
  ----------------------------------------
  Sum of atomic charges =     0.000000

                    Cartesian Multipole Moments
 -----------------------------------------------------------------
    Charge (ESU x 10^10)
                 0.0000
    Dipole Moment (Debye)
         X      -2.3689      Y      -0.4918      Z      -0.5490
       Tot       2.4809
    Quadrupole Moments (Debye-Ang)
        XX    -407.7427     XY      -1.6020     YY    -404.5364
        XZ      -9.2762     YZ       2.2075     ZZ    -444.5287

 Total job time:  95.42s(wall), 1040.40s(cpu)
        *  Thank you very much for using Q-Chem.  Have a nice day.  *
