 Q-Chem 4.4, Q-Chem, Inc., Pleasanton, CA (2016)
 Q-Chem 4.4.2 for Intel X86 Linux

User input:
--------------------------------------------------------------
$comment
SP
$end

$rem
MEM_STATIC 5000
MEM_TOTAL 20000
JOBTYPE SP
EXCHANGE B3LYP
BASIS 6-31g(d,p)
$end

$molecule
0 1
C          -9.056000    -14.605000     -5.948000
C          -8.477000    -13.823000     -4.944000
N         -10.335000    -14.866000     -5.999000
C          -9.178000    -13.535000     -3.737000
C         -11.004000    -14.704000     -4.826000
C         -10.498000    -14.000000     -3.671000
C         -11.219000    -13.931000     -2.410000
C         -10.531000    -13.887000     -1.140000
C         -12.569000    -13.637000     -2.360000
N         -11.110000    -13.906000      0.062000
N         -13.347000    -13.442000     -3.444000
C         -13.220000    -13.577000     -1.138000
C         -12.469000    -13.771000      0.072000
S         -14.814000    -13.069000     -2.789000
N         -14.529000    -13.214000     -1.183000
C         -13.083000    -13.708000      1.399000
S         -14.672000    -14.354000      1.851000
C         -12.506000    -12.997000      2.490000
C         -14.375000    -13.807000      3.512000
S         -10.909000    -12.255000      2.649000
C         -13.268000    -13.036000      3.625000
C         -15.340000    -14.099000      4.543000
C         -11.331000    -12.018000      4.357000
C         -12.637000    -12.393000      4.737000
N         -15.038000    -13.933000      5.775000
S         -16.977000    -14.788000      4.319000
C         -15.825000    -14.613000      6.593000
C         -16.840000    -15.260000      6.004000
C          -8.250000    -14.972000     -7.144000
H          -7.444000    -13.504000     -5.053000
H          -8.685000    -12.980000     -2.944000
H         -11.962000    -15.220000     -4.794000
H          -9.447000    -13.985000     -1.090000
H         -10.565000    -11.567000      4.974000
H         -13.015000    -12.322000      5.751000
H         -15.751000    -14.475000      7.664000
H         -17.713000    -15.833000      6.287000
H          -7.229000    -15.086000     -6.761000
C          -8.274000    -14.038000     -8.341000
H          -8.398000    -16.023000     -7.423000
H          -9.306000    -13.981000     -8.709000
H          -7.690000    -14.575000     -9.098000
C          -7.763000    -12.580000     -8.190000
H          -6.907000    -12.596000     -7.505000
C          -8.792000    -11.625000     -7.514000
H          -7.526000    -12.207000     -9.194000
H          -8.908000    -11.855000     -6.448000
H          -9.774000    -11.903000     -7.916000
C          -8.604000    -10.026000     -7.706000
H          -8.703000     -9.885000     -8.790000
C          -7.187000     -9.708000     -7.175000
H          -9.473000     -9.526000     -7.261000
H          -7.103000     -8.635000     -7.388000
H          -6.338000    -10.152000     -7.711000
H          -7.171000     -9.849000     -6.087000
C         -16.559000    -10.256000      3.220000
C         -17.049000     -9.032000      3.703000
N         -16.614000    -11.327000      4.006000
C         -17.588000     -8.966000      4.987000
C         -17.150000    -11.295000      5.250000
C         -17.681000    -10.129000      5.771000
C         -18.360000    -10.104000      7.102000
C         -19.378000     -9.159000      7.355000
C         -18.221000    -11.139000      8.084000
N         -20.241000     -9.193000      8.408000
N         -17.364000    -12.150000      8.073000
C         -19.135000    -11.167000      9.159000
C         -20.096000    -10.176000      9.312000
S         -17.583000    -12.898000      9.539000
N         -18.825000    -12.054000     10.171000
C         -21.045000    -10.139000     10.393000
S         -21.292000    -11.410000     11.590000
C         -21.800000     -8.938000     10.696000
C         -22.429000    -10.317000     12.542000
S         -21.756000     -7.322000      9.971000
C         -22.429000     -9.037000     11.954000
C         -22.966000    -10.699000     13.850000
C         -22.842000     -6.873000     11.331000
C         -23.124000     -7.821000     12.266000
N         -23.179000     -9.691000     14.689000
S         -23.161000    -12.347000     14.578000
C         -23.456000    -10.166000     15.934000
C         -23.529000    -11.488000     16.061000
C         -15.747000    -10.426000      1.888000
H         -17.001000     -8.171000      3.044000
H         -17.971000     -8.064000      5.455000
H         -17.288000    -12.244000      5.767000
H         -19.629000     -8.431000      6.584000
H         -23.209000     -5.855000     11.348000
H         -23.750000     -7.634000     13.131000
H         -23.479000     -9.554000     16.826000
H         -23.802000    -12.048000     16.946000
H         -15.193000     -9.490000      1.743000
C         -16.487000    -11.004000      0.679000
H         -14.953000    -11.155000      2.094000
H         -17.209000    -11.822000      0.796000
H         -15.710000    -11.440000      0.040000
C         -17.270000     -9.997000     -0.235000
H         -17.959000     -9.397000      0.372000
C         -17.941000    -10.782000     -1.412000
H         -16.629000     -9.207000     -0.645000
H         -18.579000    -11.584000     -1.021000
H         -17.141000    -11.199000     -2.036000
C         -18.748000     -9.900000     -2.384000
H         -19.366000    -10.436000     -3.115000
C         -17.757000     -8.984000     -3.186000
H         -19.467000     -9.296000     -1.818000
H         -17.182000     -9.571000     -3.912000
H         -17.206000     -8.260000     -2.572000
H         -18.498000     -8.367000     -3.709000
$end

--------------------------------------------------------------

             Standard Nuclear Orientation (Angstroms)
    I     Atom           X                Y                Z
 ----------------------------------------------------------------
    1      C     -11.9476385620    -1.1293595193     0.5376910712
    2      C     -11.3414058218    -1.3408129670    -0.7043034152
    3      N     -11.3141969702    -0.6249464059     1.5628165078
    4      C      -9.9230655790    -1.3322520585    -0.8437009274
    5      C      -9.9580748383    -0.7072470070     1.5004195979
    6      C      -9.1975174122    -1.0067684795     0.3098246672
    7      C      -7.7524486110    -1.1694297773     0.3161856546
    8      C      -7.0849739655    -2.0890689214    -0.5765189115
    9      C      -6.9238220233    -0.2785411978     0.9727917138
   10      N      -5.7787047601    -2.3611580319    -0.5823737359
   11      N      -7.3571953098     0.7720684517     1.6985822889
   12      C      -5.5508112473    -0.4659577218     0.9527553569
   13      C      -4.9988086358    -1.5605260079     0.2024551610
   14      S      -5.9562391466     1.4983052877     2.1783164725
   15      N      -4.8139283675     0.4971455487     1.5665229935
   16      C      -3.5596662216    -1.8140612130     0.1219380101
   17      S      -2.3914962567    -1.6575911250     1.4476216241
   18      C      -2.8901618480    -2.1157697540    -1.0984991452
   19      C      -1.1198668996    -2.1962318356     0.3344442065
   20      S      -3.5481919752    -2.4927418140    -2.6957287522
   21      C      -1.5400344559    -2.2754545646    -0.9500175422
   22      C       0.2242470099    -2.3823024750     0.8224867408
   23      C      -1.8797213602    -2.8997682415    -3.1452310261
   24      C      -0.8921574998    -2.6637067496    -2.1656119197
   25      N       1.0906594638    -2.9957207106     0.1086019266
   26      S       0.8580200645    -1.9162883560     2.4305379080
   27      C       2.1101187615    -3.4525297880     0.8177713050
   28      C       2.1044433224    -3.1107295445     2.1134932593
   29      C     -13.4255597959    -1.2542612961     0.6597130879
   30      H     -11.9622101506    -1.6008640866    -1.5573605062
   31      H      -9.4722550254    -1.5626445660    -1.8047483442
   32      H      -9.4679877571    -0.5911626959     2.4655015041
   33      H      -7.6581521021    -2.7478070022    -1.2282020896
   34      H      -1.7386123635    -3.2647893491    -4.1540391555
   35      H       0.1599491165    -2.8886636101    -2.3019463568
   36      H       2.9670774831    -3.8919542646     0.3237177870
   37      H       2.7461100351    -3.1967518300     2.9803329194
   38      H     -13.6923000046    -2.0468548608    -0.0493504511
   39      C     -14.2731320553    -0.0162293046     0.4259631080
   40      H     -13.7105594405    -1.7978901999     1.5694321750
   41      H     -13.9954437599     0.7343811679     1.1764097277
   42      H     -15.2895201995    -0.3515147219     0.6647367023
   43      C     -14.2412875055     0.6885480208    -0.9567736154
   44      H     -14.1555127605    -0.0887914996    -1.7252805857
   45      C     -12.9897215490     1.5923681450    -1.1678040385
   46      H     -15.1486998582     1.2996183318    -1.0374575494
   47      H     -12.0797404478     0.9914456367    -1.2841592470
   48      H     -12.8116582124     2.0934005545    -0.2083917326
   49      C     -13.0419793853     2.7263084317    -2.3255853412
   50      H     -13.8591442728     3.3841768609    -2.0028026332
   51      C     -13.3501479408     1.9668093751    -3.6367555531
   52      H     -12.1286603833     3.3293017530    -2.2518733678
   53      H     -13.4309705052     2.7889669909    -4.3587517913
   54      H     -14.3197873361     1.4566940570    -3.7061443514
   55      H     -12.4836486321     1.3503675559    -3.9070506353
   56      C       0.3177947982     1.6162293527    -0.5945280911
   57      C       1.1470535920     2.5211095780    -1.2765006938
   58      N       0.8535539019     0.5131746143    -0.0806269073
   59      C       2.5096520761     2.2506503266    -1.3935911058
   60      C       2.1771641899     0.2355107169    -0.1631772896
   61      C       3.0527800249     1.1026157237    -0.7911771436
   62      C       4.5262849747     0.8539679910    -0.8047590366
   63      C       5.4229093910     1.9421581295    -0.8773185211
   64      C       5.1201656550    -0.4159516987    -0.5056274279
   65      N       6.7623579705     1.8769642873    -0.6399132438
   66      N       4.5030258538    -1.5801710902    -0.3627195058
   67      C       6.5067707311    -0.4605165675    -0.2465032582
   68      C       7.2956492445     0.6774412079    -0.3548258905
   69      S       5.7308206584    -2.6840016910    -0.1875084261
   70      N       7.0498458812    -1.7278732964    -0.1697614634
   71      C       8.7151295686     0.6947757532    -0.1196533512
   72      S       9.6688377688    -0.6426880333     0.5213538941
   73      C       9.5405081461     1.8053810022    -0.5550166302
   74      C      11.2251822337     0.2873593385     0.1949710011
   75      S       9.1324712040     3.2751236997    -1.4563374704
   76      C      10.9100295666     1.4760985238    -0.4918491687
   77      C      12.5476119795    -0.3154252550     0.3765950674
   78      C      10.9112322854     3.5281822792    -1.5070067006
   79      C      11.7114825158     2.5619288957    -0.9793638596
   80      N      13.4873343987     0.1246363839    -0.4532371620
   81      S      13.0376895783    -1.7306705881     1.3967997498
   82      C      14.6015562542    -0.6508306834    -0.3555668785
   83      C      14.5729520370    -1.6165299240     0.5586260856
   84      C      -1.2493434712     1.6923713435    -0.5671777393
   85      H       0.6919665515     3.4185506553    -1.6831962782
   86      H       3.2249780386     2.8766502262    -1.9187100380
   87      H       2.5539736044    -0.6116451771     0.4089027366
   88      H       5.0242405618     2.9527549934    -0.9620719471
   89      H      11.2623696121     4.4390266073    -1.9743044512
   90      H      12.7939828474     2.6186880057    -0.9858008988
   91      H      15.4274562201    -0.6175229499    -1.0537909407
   92      H      15.3780353420    -2.2869404532     0.8301856452
   93      H      -1.5530274453     2.1397877343    -1.5219717574
   94      C      -1.9079125957     2.2291512419     0.7062110658
   95      H      -1.6162510143     0.6613066850    -0.6484028893
   96      H      -1.5185454982     1.9667282466     1.6979894860
   97      H      -2.9211794116     1.8103369478     0.7117740600
   98      C      -2.0923106502     3.7832589381     0.8214526658
   99      H      -1.1326398040     4.2882715736     0.6566372996
  100      C      -2.7900284079     4.1212280584     2.1818797326
  101      H      -2.6811346537     4.2045560520    -0.0024866734
  102      H      -2.2200531279     3.6986523595     3.0183526604
  103      H      -3.8012391264     3.6969977226     2.1545574876
  104      C      -3.0251625985     5.6255893364     2.4176042707
  105      H      -3.3531930733     5.9058440326     3.4262837604
  106      C      -4.1136923045     6.1371523149     1.4087695974
  107      H      -2.0820076905     6.1682266149     2.2829320634
  108      H      -5.1061783435     5.7563809597     1.6775718252
  109      H      -3.8199495522     6.0807269516     0.3526898780
  110      H      -4.0513229242     7.2083728238     1.6365758346
 ----------------------------------------------------------------

   10   -5663.4883880842      7.43E-06 Convergence criterion met
 Total energy in the final basis set = -5663.4883880842

                    Orbital Energies (a.u.)
 --------------------------------------------------------------

 Alpha MOs
 -- Occupied --
-88.989 -88.987 -88.930 -88.928 -88.923 -88.915 -88.909 -88.908
-14.398 -14.392 -14.386 -14.383 -14.350 -14.350 -14.346 -14.327
-14.325 -14.320 -10.278 -10.260 -10.259 -10.257 -10.257 -10.256
-10.254 -10.251 -10.249 -10.243 -10.241 -10.239 -10.238 -10.237
-10.232 -10.229 -10.228 -10.227 -10.226 -10.226 -10.225 -10.225
-10.221 -10.220 -10.219 -10.217 -10.216 -10.215 -10.215 -10.214
-10.212 -10.209 -10.208 -10.200 -10.198 -10.198 -10.197 -10.197
-10.184 -10.182 -10.180 -10.179 -10.178 -10.178 -10.176 -10.174
-10.173 -10.173 -10.172 -10.168  -8.045  -8.042  -7.990  -7.986
 -7.982  -7.974  -7.969  -7.969  -6.010  -6.007  -6.005  -6.003
 -6.002  -6.000  -5.954  -5.950  -5.950  -5.947  -5.946  -5.946
 -5.943  -5.943  -5.939  -5.938  -5.935  -5.933  -5.933  -5.930
 -5.930  -5.930  -5.926  -5.925  -1.040  -1.038  -0.981  -0.971
 -0.959  -0.956  -0.945  -0.934  -0.913  -0.912  -0.906  -0.899
 -0.839  -0.838  -0.837  -0.831  -0.809  -0.807  -0.805  -0.803
 -0.796  -0.796  -0.791  -0.789  -0.778  -0.773  -0.764  -0.760
 -0.748  -0.745  -0.740  -0.737  -0.722  -0.721  -0.708  -0.707
 -0.693  -0.690  -0.674  -0.670  -0.655  -0.654  -0.648  -0.645
 -0.638  -0.636  -0.625  -0.624  -0.612  -0.612  -0.594  -0.592
 -0.587  -0.586  -0.582  -0.576  -0.576  -0.573  -0.564  -0.554
 -0.553  -0.551  -0.540  -0.535  -0.523  -0.522  -0.514  -0.512
 -0.508  -0.508  -0.500  -0.496  -0.484  -0.482  -0.478  -0.477
 -0.471  -0.470  -0.468  -0.467  -0.459  -0.454  -0.447  -0.446
 -0.443  -0.439  -0.436  -0.433  -0.431  -0.429  -0.428  -0.427
 -0.425  -0.422  -0.420  -0.419  -0.415  -0.415  -0.411  -0.409
 -0.407  -0.403  -0.401  -0.400  -0.397  -0.396  -0.395  -0.394
 -0.393  -0.391  -0.390  -0.388  -0.387  -0.386  -0.382  -0.380
 -0.378  -0.377  -0.376  -0.368  -0.366  -0.363  -0.362  -0.360
 -0.357  -0.357  -0.355  -0.353  -0.352  -0.347  -0.342  -0.338
 -0.336  -0.334  -0.332  -0.330  -0.323  -0.322  -0.320  -0.318
 -0.315  -0.311  -0.307  -0.306  -0.304  -0.301  -0.297  -0.297
 -0.295  -0.293  -0.291  -0.287  -0.286  -0.282  -0.281  -0.280
 -0.278  -0.270  -0.267  -0.259  -0.256  -0.250  -0.248  -0.246
 -0.242  -0.234  -0.229  -0.225  -0.193  -0.187

          Ground-State Mulliken Net Atomic Charges

     Atom                 Charge (a.u.)
  ----------------------------------------
      1 C                     0.283744
      2 C                    -0.123922
      3 N                    -0.457826
      4 C                    -0.086016
      5 C                     0.073165
      6 C                     0.038959
      7 C                     0.014776
      8 C                     0.055389
      9 C                     0.239812
     10 N                    -0.486231
     11 N                    -0.551313
     12 C                     0.210947
     13 C                     0.235324
     14 S                     0.604226
     15 N                    -0.544932
     16 C                    -0.207901
     17 S                     0.313022
     18 C                    -0.119843
     19 C                    -0.197436
     20 S                     0.273236
     21 C                     0.174936
     22 C                     0.092845
     23 C                    -0.309430
     24 C                    -0.050132
     25 N                    -0.428469
     26 S                     0.221542
     27 C                     0.148769
     28 C                    -0.318070
     29 C                    -0.229381
     30 H                     0.090362
     31 H                     0.105225
     32 H                     0.112616
     33 H                     0.105544
     34 H                     0.126257
     35 H                     0.133061
     36 H                     0.097159
     37 H                     0.130766
     38 H                     0.086509
     39 C                    -0.173639
     40 H                     0.110867
     41 H                     0.110661
     42 H                     0.091146
     43 C                    -0.173726
     44 H                     0.088739
     45 C                    -0.191281
     46 H                     0.093630
     47 H                     0.097752
     48 H                     0.083619
     49 C                    -0.188077
     50 H                     0.093522
     51 C                    -0.312013
     52 H                     0.099623
     53 H                     0.096240
     54 H                     0.113575
     55 H                     0.104953
     56 C                     0.283969
     57 C                    -0.140689
     58 N                    -0.508309
     59 C                    -0.075905
     60 C                     0.097419
     61 C                     0.052762
     62 C                     0.050430
     63 C                     0.045870
     64 C                     0.249234
     65 N                    -0.535956
     66 N                    -0.578252
     67 C                     0.159248
     68 C                     0.319687
     69 S                     0.599894
     70 N                    -0.522964
     71 C                    -0.225452
     72 S                     0.321244
     73 C                    -0.114421
     74 C                    -0.228578
     75 S                     0.295396
     76 C                     0.137372
     77 C                     0.046530
     78 C                    -0.311796
     79 C                    -0.029871
     80 N                    -0.430050
     81 S                     0.256616
     82 C                     0.138874
     83 C                    -0.299063
     84 C                    -0.238908
     85 H                     0.088233
     86 H                     0.096620
     87 H                     0.129157
     88 H                     0.112358
     89 H                     0.120289
     90 H                     0.126181
     91 H                     0.115486
     92 H                     0.132947
     93 H                     0.096850
     94 C                    -0.177166
     95 H                     0.131964
     96 H                     0.105598
     97 H                     0.122922
     98 C                    -0.182866
     99 H                     0.084537
    100 C                    -0.174066
    101 H                     0.085053
    102 H                     0.087431
    103 H                     0.091574
    104 C                    -0.186673
    105 H                     0.090588
    106 C                    -0.321200
    107 H                     0.092031
    108 H                     0.107018
    109 H                     0.109594
    110 H                     0.098332
  ----------------------------------------
  Sum of atomic charges =     0.000000

                    Cartesian Multipole Moments
 -----------------------------------------------------------------
    Charge (ESU x 10^10)
                 0.0000
    Dipole Moment (Debye)
         X       3.2105      Y      -0.0174      Z      -1.6303
       Tot       3.6008
    Quadrupole Moments (Debye-Ang)
        XX    -389.0342     XY     -12.6320     YY    -436.1952
        XZ      18.4683     YZ      -3.7438     ZZ    -439.4917

 Total job time:  104.71s(wall), 1149.14s(cpu)
        *  Thank you very much for using Q-Chem.  Have a nice day.  *
