 Q-Chem 4.4, Q-Chem, Inc., Pleasanton, CA (2016)
 Q-Chem 4.4.2 for Intel X86 Linux

User input:
--------------------------------------------------------------
$comment
SP
$end

$rem
MEM_STATIC 5000
MEM_TOTAL 20000
JOBTYPE SP
EXCHANGE B3LYP
BASIS 6-31g(d,p)
$end

$molecule
0 1
C          27.968000     26.070000      3.404000
C          27.382000     24.860000      3.807000
N          27.170000     27.183000      3.227000
C          26.070000     24.830000      4.268000
C          25.839000     27.162000      3.600000
C          25.258000     26.034000      4.285000
C          23.879000     26.000000      4.854000
C          23.521000     25.086000      5.850000
C          22.863000     26.880000      4.396000
N          22.353000     24.982000      6.376000
N          22.961000     27.736000      3.350000
C          21.578000     26.754000      4.951000
C          21.316000     25.793000      5.931000
S          21.516000     28.428000      3.187000
N          20.703000     27.663000      4.371000
C          19.975000     25.470000      6.325000
S          18.526000     25.930000      5.492000
C          19.662000     24.664000      7.380000
C          17.510000     25.168000      6.783000
S          20.671000     24.092000      8.700000
C          18.282000     24.444000      7.655000
C          16.084000     25.308000      6.811000
C          19.249000     23.355000      9.485000
C          18.063000     23.707000      8.843000
N          15.442000     24.843000      7.879000
S          15.135000     26.134000      5.485000
C          14.090000     25.035000      7.688000
C          13.794000     25.644000      6.448000
C          29.411000     26.301000      3.006000
H          28.033000     23.992000      3.868000
H          25.720000     23.827000      4.493000
H          25.320000     28.117000      3.546000
H          24.299000     24.409000      6.201000
H          19.384000     22.761000     10.379000
H          17.082000     23.379000      9.167000
H          13.404000     24.706000      8.457000
H          12.788000     25.832000      6.096000
H          29.801000     25.689000      2.183000
C          30.470000     26.283000      4.175000
H          29.402000     27.318000      2.595000
H          30.303000     25.274000      4.572000
H          30.253000     27.019000      4.959000
C          31.923000     26.424000      3.733000
H          32.366000     25.633000      3.115000
C          32.829000     26.532000      4.950000
H          31.938000     27.329000      3.114000
H          33.017000     25.506000      5.291000
H          32.406000     27.085000      5.797000
C          34.214000     27.020000      4.565000
H          34.621000     26.330000      3.816000
C          35.100000     27.073000      5.839000
H          34.256000     27.995000      4.066000
H          35.299000     26.040000      6.149000
H          34.648000     27.726000      6.595000
H          36.043000     27.551000      5.545000
C          26.688000     30.173000      1.424000
C          25.289000     30.391000      1.655000
N          27.128000     29.284000      0.541000
C          24.362000     29.544000      0.980000
C          26.217000     28.483000     -0.089000
C          24.830000     28.518000      0.097000
C          23.915000     27.621000     -0.649000
C          24.490000     26.509000     -1.308000
C          22.536000     27.808000     -0.864000
N          23.631000     25.540000     -1.841000
N          21.848000     28.854000     -0.451000
C          21.731000     26.914000     -1.528000
C          22.316000     25.717000     -2.009000
S          20.258000     28.588000     -0.751000
N          20.432000     27.188000     -1.646000
C          21.558000     24.794000     -2.908000
S          19.865000     24.898000     -3.425000
C          22.125000     23.643000     -3.545000
C          20.000000     23.503000     -4.558000
S          23.727000     22.994000     -3.411000
C          21.241000     22.960000     -4.440000
C          19.020000     23.264000     -5.569000
C          23.296000     21.750000     -4.681000
C          21.903000     21.862000     -5.047000
N          18.184000     24.235000     -5.809000
S          19.145000     22.112000     -6.877000
C          17.489000     24.036000     -6.905000
C          17.785000     22.881000     -7.595000
C          27.671000     31.047000      2.144000
H          24.912000     31.224000      2.240000
H          23.307000     29.711000      1.179000
H          26.714000     27.728000     -0.697000
H          25.564000     26.337000     -1.268000
H          24.054000     21.024000     -4.942000
H          21.429000     21.154000     -5.718000
H          16.744000     24.775000     -7.169000
H          17.352000     22.367000     -8.443000
H          27.844000     31.863000      1.431000
C          28.999000     30.248000      2.576000
H          27.302000     31.574000      3.033000
H          29.504000     29.864000      1.680000
H          28.703000     29.370000      3.163000
C          29.880000     31.152000      3.378000
H          30.163000     31.938000      2.666000
C          31.093000     30.368000      3.908000
H          29.269000     31.636000      4.149000
H          31.707000     29.794000      3.202000
H          30.677000     29.541000      4.497000
C          32.076000     31.217000      4.709000
H          32.174000     32.055000      4.009000
C          33.413000     30.486000      4.908000
H          31.562000     31.434000      5.653000
H          33.915000     30.266000      3.957000
H          33.288000     29.551000      5.468000
H          34.108000     31.112000      5.481000
$end

--------------------------------------------------------------

             Standard Nuclear Orientation (Angstroms)
    I     Atom           X                Y                Z
 ----------------------------------------------------------------
    1      C      -4.7720382034    -0.4235022036    -1.6113949907
    2      C      -4.0333959962     0.1209733772    -2.6734020677
    3      N      -4.3200886246    -0.2577085925    -0.3171167916
    4      C      -3.0062364312     1.0262148995    -2.4279514323
    5      C      -3.2487306618     0.5728596577    -0.0460457724
    6      C      -2.6337977975     1.3809685712    -1.0697584061
    7      C      -1.5820657539     2.4109620855    -0.8257685112
    8      C      -1.3340584340     3.4351784917    -1.7450340456
    9      C      -0.7723210449     2.3860657953     0.3404706070
   10      N      -0.4363876547     4.3458648960    -1.6163738534
   11      N      -0.7538359795     1.4077836573     1.2780623949
   12      C       0.2266464944     3.3655070054     0.4742045650
   13      C       0.4077415998     4.3382105243    -0.5125159766
   14      S       0.3945395407     1.8067143020     2.3342565085
   15      N       0.9430696409     3.1768153533     1.6486999185
   16      C       1.5684169594     5.1810339140    -0.5306113700
   17      S       3.0144263638     4.9493901912     0.3970135478
   18      C       1.7248791568     6.2477072810    -1.3662892439
   19      C       3.7075929836     6.4930347310    -0.2481705904
   20      S       0.5403258635     7.0886423478    -2.3548875996
   21      C       2.9309265603     6.9976793052    -1.2594406437
   22      C       4.9341773792     7.0428601692     0.2488633198
   23      C       1.7610448105     8.3098880912    -2.8019693446
   24      C       2.9382177702     8.1564538205    -2.0716367166
   25      N       5.2820010643     8.2536455197    -0.1777870278
   26      S       5.9934756856     6.1837077253     1.4657845072
   27      C       6.5014260893     8.5745914368     0.3801066241
   28      C       7.0098670954     7.5501107043     1.2095787286
   29      C      -5.9960258810    -1.3104798737    -1.7069919449
   30      H      -4.3854338340    -0.0904562224    -3.6795396752
   31      H      -2.4785612678     1.3266565931    -3.3281890180
   32      H      -3.0424348264     0.7459392529     1.0083675631
   33      H      -1.9533061483     3.4543965938    -2.6411238474
   34      H       1.5095442341     9.0714186561    -3.5279966573
   35      H       3.8017550682     8.8029932462    -2.1775192265
   36      H       6.9504851488     9.5279950233     0.1360460531
   37      H       7.9752092301     7.5951987738     1.6967805646
   38      H      -5.8892455988    -2.2405323315    -2.2793322258
   39      C      -7.3346825960    -0.6082335978    -2.1577849876
   40      H      -6.1433868118    -1.6529595081    -0.6753507979
   41      H      -7.0273359319    -0.2144769333    -3.1345514475
   42      H      -7.6190520035     0.2270777687    -1.5059951741
   43      C      -8.5266560732    -1.5430607200    -2.3359744409
   44      H      -8.4848860731    -2.3080560680    -3.1213987750
   45      C      -9.7810891292    -0.7359238428    -2.6334921203
   46      H      -8.5926355488    -2.0919289520    -1.3889784680
   47      H      -9.7676686919    -0.5240355467    -3.7101648848
   48      H      -9.8493629427     0.2263360901    -2.1123956724
   49      C     -11.0319952526    -1.5804035860    -2.4701463714
   50      H     -10.9428965854    -2.4505834604    -3.1316585888
   51      C     -12.2718919838    -0.7149268512    -2.8229736910
   52      H     -11.1830524662    -2.0248640901    -1.4796785130
   53      H     -12.2557954451    -0.5361477296    -3.9049020283
   54      H     -12.3123576604     0.1767980227    -2.1862333372
   55      H     -13.1550156616    -1.3142918592    -2.5679773050
   56      C      -4.1441724328    -1.6524061118     2.9150814269
   57      C      -3.0330857297    -0.9206273398     3.4518049751
   58      N      -3.9816051030    -2.6665177599     2.0732029152
   59      C      -1.7293129838    -1.2423775127     2.9732483396
   60      C      -2.7207167133    -2.9505372935     1.6283261083
   61      C      -1.5521299513    -2.2716318102     1.9931306100
   62      C      -0.2205777714    -2.6656428703     1.4734440922
   63      C      -0.1901190463    -3.5284314639     0.3526773417
   64      C       1.0325931669    -2.3573959634     2.0368102641
   65      N       1.0400355230    -3.7471580727    -0.2796274947
   66      N       1.2057064240    -1.6848688311     3.1574208373
   67      C       2.2370355330    -2.7149848258     1.4803879496
   68      C       2.2228938593    -3.4188051417     0.2512288972
   69      S       2.8077664505    -1.3953834702     3.3535276887
   70      N       3.3605442593    -2.3424016467     2.0930141950
   71      C       3.4732277224    -4.0132765112    -0.3126532018
   72      S       5.1337994376    -3.8749186397     0.2937399694
   73      C       3.5146959532    -4.8540890079    -1.4716932060
   74      C       5.8006271769    -5.0290994445    -0.9191682859
   75      S       2.2231312399    -5.3355641916    -2.5231699004
   76      C       4.8069592739    -5.3903203409    -1.7741522404
   77      C       7.0895038464    -5.6223160655    -0.7562788406
   78      C       3.3993152113    -6.4059213715    -3.4271188885
   79      C       4.7378701969    -6.2358464743    -2.9110819907
   80      N       7.6379344085    -5.5064792158     0.4206420330
   81      S       7.7541510017    -6.9269549337    -1.7100893996
   82      C       8.6888606375    -6.2810325685     0.5601524807
   83      C       8.9920434078    -7.0727478258    -0.5256689407
   84      C      -5.5211358359    -1.3081625836     3.3988511858
   85      H      -3.1349338225    -0.2088353433     4.2649606304
   86      H      -0.9005827142    -0.6673572484     3.3770711175
   87      H      -2.7411032165    -3.7245639740     0.8620591259
   88      H      -1.1153329768    -3.8880834546    -0.0937413277
   89      H       3.0193806615    -6.9508490260    -4.2806202589
   90      H       5.5944817769    -6.7136185466    -3.3738253839
   91      H       9.2311497568    -6.2290311865     1.4950644376
   92      H       9.8156872046    -7.7231636680    -0.7890301532
   93      H      -5.6709573510    -2.0052177761     4.2330103866
   94      C      -6.6248549657    -1.4180233478     2.2333711581
   95      H      -5.6444424348    -0.3273922042     3.8753970343
   96      H      -6.6623517063    -2.4496032790     1.8595612599
   97      H      -6.3042981033    -0.7957518772     1.3889242889
   98      C      -7.9469573388    -0.9592671288     2.7607884946
   99      H      -8.1869045548    -1.6964888559     3.5378074509
  100      C      -8.9852498753    -0.9355366408     1.6257508421
  101      H      -7.8012068013    -0.0018611643     3.2747423835
  102      H      -9.1296255046    -1.8367890600     1.0159904347
  103      H      -8.5727133641    -0.2659088581     0.8606898905
  104      C     -10.3823974998    -0.5168033288     2.0744511083
  105      H     -10.4758498063    -1.1736813334     2.9471629470
  106      C     -11.4349794490    -0.8443524843     1.0037906621
  107      H     -10.3047236523     0.5566849841     2.2842381800
  108      H     -11.4986713129    -1.9201000286     0.7951868094
  109      H     -11.2418570235    -0.3114752310     0.0645380009
  110      H     -12.4325065926    -0.5411530099     1.3447300652
 ----------------------------------------------------------------

   10   -5663.5115626203      5.33E-06 Convergence criterion met
 Total energy in the final basis set = -5663.5115626203

                    Orbital Energies (a.u.)
 --------------------------------------------------------------

 Alpha MOs
 -- Occupied --
-88.993 -88.985 -88.933 -88.925 -88.923 -88.917 -88.910 -88.906
-14.387 -14.385 -14.379 -14.378 -14.349 -14.347 -14.346 -14.335
-14.328 -14.320 -10.272 -10.263 -10.260 -10.260 -10.254 -10.253
-10.251 -10.247 -10.243 -10.242 -10.241 -10.236 -10.236 -10.236
-10.235 -10.233 -10.232 -10.231 -10.228 -10.228 -10.227 -10.227
-10.225 -10.225 -10.223 -10.223 -10.222 -10.220 -10.220 -10.212
-10.211 -10.211 -10.209 -10.208 -10.204 -10.199 -10.196 -10.193
-10.181 -10.179 -10.179 -10.174 -10.172 -10.172 -10.172 -10.170
-10.170 -10.168 -10.167 -10.163  -8.048  -8.040  -7.993  -7.987
 -7.982  -7.975  -7.969  -7.966  -6.013  -6.008  -6.006  -6.006
 -6.000  -5.997  -5.957  -5.954  -5.951  -5.950  -5.948  -5.947
 -5.944  -5.943  -5.940  -5.939  -5.936  -5.933  -5.932  -5.930
 -5.930  -5.926  -5.925  -5.922  -1.040  -1.036  -0.988  -0.966
 -0.963  -0.945  -0.928  -0.917  -0.912  -0.909  -0.899  -0.896
 -0.842  -0.830  -0.828  -0.827  -0.813  -0.813  -0.810  -0.807
 -0.803  -0.800  -0.793  -0.790  -0.780  -0.775  -0.765  -0.764
 -0.747  -0.745  -0.739  -0.736  -0.724  -0.711  -0.710  -0.704
 -0.691  -0.686  -0.675  -0.671  -0.651  -0.650  -0.648  -0.643
 -0.633  -0.632  -0.617  -0.616  -0.608  -0.607  -0.597  -0.592
 -0.591  -0.590  -0.581  -0.580  -0.575  -0.573  -0.568  -0.567
 -0.548  -0.544  -0.540  -0.535  -0.527  -0.523  -0.521  -0.509
 -0.501  -0.499  -0.497  -0.491  -0.482  -0.479  -0.478  -0.474
 -0.473  -0.471  -0.469  -0.466  -0.461  -0.459  -0.449  -0.449
 -0.442  -0.442  -0.439  -0.437  -0.436  -0.434  -0.434  -0.428
 -0.425  -0.423  -0.422  -0.418  -0.417  -0.415  -0.412  -0.411
 -0.408  -0.405  -0.404  -0.402  -0.400  -0.399  -0.394  -0.393
 -0.391  -0.390  -0.387  -0.387  -0.386  -0.385  -0.384  -0.379
 -0.375  -0.373  -0.368  -0.367  -0.364  -0.361  -0.355  -0.355
 -0.350  -0.348  -0.347  -0.346  -0.344  -0.342  -0.339  -0.337
 -0.334  -0.333  -0.331  -0.330  -0.327  -0.325  -0.318  -0.314
 -0.309  -0.308  -0.306  -0.306  -0.303  -0.302  -0.300  -0.296
 -0.295  -0.294  -0.293  -0.293  -0.291  -0.281  -0.279  -0.278
 -0.273  -0.265  -0.262  -0.259  -0.251  -0.247  -0.245  -0.245
 -0.239  -0.235  -0.228  -0.224  -0.189  -0.188

          Ground-State Mulliken Net Atomic Charges

     Atom                 Charge (a.u.)
  ----------------------------------------
      1 C                     0.278563
      2 C                    -0.112635
      3 N                    -0.493718
      4 C                    -0.093747
      5 C                     0.092199
      6 C                     0.013360
      7 C                     0.049140
      8 C                     0.082295
      9 C                     0.221213
     10 N                    -0.510436
     11 N                    -0.564635
     12 C                     0.185230
     13 C                     0.280370
     14 S                     0.621044
     15 N                    -0.569773
     16 C                    -0.183717
     17 S                     0.316899
     18 C                    -0.142531
     19 C                    -0.253549
     20 S                     0.279087
     21 C                     0.187903
     22 C                     0.071187
     23 C                    -0.310975
     24 C                    -0.048876
     25 N                    -0.439391
     26 S                     0.278418
     27 C                     0.121923
     28 C                    -0.305655
     29 C                    -0.264581
     30 H                     0.089259
     31 H                     0.106061
     32 H                     0.128773
     33 H                     0.106286
     34 H                     0.134104
     35 H                     0.124003
     36 H                     0.118048
     37 H                     0.126680
     38 H                     0.105099
     39 C                    -0.178694
     40 H                     0.140317
     41 H                     0.088189
     42 H                     0.104421
     43 C                    -0.175589
     44 H                     0.090460
     45 C                    -0.166950
     46 H                     0.098799
     47 H                     0.092799
     48 H                     0.088396
     49 C                    -0.185307
     50 H                     0.084971
     51 C                    -0.317190
     52 H                     0.096315
     53 H                     0.103674
     54 H                     0.104860
     55 H                     0.096075
     56 C                     0.315620
     57 C                    -0.143562
     58 N                    -0.496816
     59 C                    -0.063228
     60 C                     0.060486
     61 C                     0.070276
     62 C                     0.057824
     63 C                     0.060384
     64 C                     0.276223
     65 N                    -0.554385
     66 N                    -0.582250
     67 C                     0.200429
     68 C                     0.330248
     69 S                     0.578557
     70 N                    -0.575613
     71 C                    -0.215707
     72 S                     0.357353
     73 C                    -0.135375
     74 C                    -0.251015
     75 S                     0.286679
     76 C                     0.179626
     77 C                     0.053507
     78 C                    -0.313275
     79 C                    -0.097596
     80 N                    -0.405806
     81 S                     0.272329
     82 C                     0.133209
     83 C                    -0.327728
     84 C                    -0.248723
     85 H                     0.086911
     86 H                     0.111551
     87 H                     0.093277
     88 H                     0.126896
     89 H                     0.134526
     90 H                     0.112989
     91 H                     0.111222
     92 H                     0.140806
     93 H                     0.116226
     94 C                    -0.183728
     95 H                     0.094696
     96 H                     0.113395
     97 H                     0.128517
     98 C                    -0.171558
     99 H                     0.086607
    100 C                    -0.189102
    101 H                     0.086377
    102 H                     0.092352
    103 H                     0.089435
    104 C                    -0.169351
    105 H                     0.096770
    106 C                    -0.328640
    107 H                     0.094278
    108 H                     0.105751
    109 H                     0.112997
    110 H                     0.096661
  ----------------------------------------
  Sum of atomic charges =     0.000000

                    Cartesian Multipole Moments
 -----------------------------------------------------------------
    Charge (ESU x 10^10)
                 0.0000
    Dipole Moment (Debye)
         X       2.8157      Y       0.2720      Z      -0.9310
       Tot       2.9781
    Quadrupole Moments (Debye-Ang)
        XX    -405.9537     XY      -4.2684     YY    -420.2773
        XZ       8.5302     YZ      14.9133     ZZ    -425.5291

 Total job time:  98.29s(wall), 1086.64s(cpu)
        *  Thank you very much for using Q-Chem.  Have a nice day.  *
