 Q-Chem 4.4, Q-Chem, Inc., Pleasanton, CA (2016)
 Q-Chem 4.4.2 for Intel X86 Linux

User input:
--------------------------------------------------------------
$comment
SP
$end

$rem
MEM_STATIC 5000
MEM_TOTAL 20000
JOBTYPE SP
EXCHANGE B3LYP
BASIS 6-31g(d,p)
$end

$molecule
0 1
C          26.305000     -8.422000     -1.085000
C          25.427000     -9.289000     -0.404000
N          26.256000     -7.089000     -0.811000
C          24.550000     -8.842000      0.527000
C          25.379000     -6.627000      0.119000
C          24.525000     -7.470000      0.892000
C          23.475000     -6.936000      1.798000
C          23.750000     -6.560000      3.153000
C          22.111000     -6.812000      1.328000
N          22.795000     -6.105000      3.974000
N          21.625000     -7.223000      0.119000
C          21.108000     -6.326000      2.216000
C          21.487000     -5.989000      3.589000
S          20.047000     -6.997000      0.194000
N          19.849000     -6.389000      1.702000
C          20.458000     -5.541000      4.548000
S          18.673000     -5.706000      4.494000
C          20.777000     -5.215000      5.889000
C          18.456000     -5.565000      6.254000
S          22.374000     -4.742000      6.471000
C          19.657000     -5.171000      6.744000
C          17.289000     -5.772000      7.006000
C          21.605000     -4.401000      8.026000
C          20.209000     -4.735000      7.997000
N          16.136000     -5.671000      6.397000
S          17.302000     -6.323000      8.601000
C          15.194000     -6.074000      7.217000
C          15.559000     -6.457000      8.454000
C          27.298000     -8.839000     -2.143000
H          25.387000    -10.306000     -0.785000
H          23.850000     -9.584000      0.901000
H          25.335000     -5.560000      0.333000
H          24.773000     -6.581000      3.526000
H          22.178000     -3.919000      8.807000
H          19.575000     -4.678000      8.875000
H          14.159000     -6.009000      6.908000
H          14.954000     -6.717000      9.313000
H          26.722000     -9.236000     -2.987000
C          28.309000     -9.844000     -1.634000
H          27.673000     -7.895000     -2.557000
H          27.846000    -10.787000     -1.318000
H          28.772000     -9.450000     -0.721000
C          29.431000    -10.132000     -2.579000
H          29.874000    -11.096000     -2.300000
C          30.400000     -8.844000     -2.587000
H          28.977000    -10.233000     -3.572000
H          30.696000     -8.580000     -1.565000
H          29.663000     -8.071000     -2.839000
C          31.572000     -9.152000     -3.563000
H          31.986000    -10.126000     -3.274000
C          32.654000     -8.049000     -3.507000
H          31.161000     -9.283000     -4.572000
H          33.650000     -8.455000     -3.721000
H          32.641000     -7.579000     -2.516000
H          32.483000     -7.269000     -4.260000
C          17.287000      0.512000     13.043000
C          18.220000      1.223000     12.231000
N          17.556000     -0.713000     13.500000
C          19.457000      0.569000     11.921000
C          18.678000     -1.362000     13.134000
C          19.741000     -0.744000     12.450000
C          20.982000     -1.483000     12.007000
C          21.508000     -1.365000     10.737000
C          21.653000     -2.390000     12.883000
N          22.630000     -1.986000     10.360000
N          21.295000     -2.640000     14.116000
C          22.840000     -3.042000     12.486000
C          23.307000     -2.743000     11.183000
S          22.468000     -3.554000     14.732000
N          23.422000     -3.713000     13.458000
C          24.602000     -3.289000     10.733000
S          25.859000     -4.276000     11.681000
C          25.148000     -2.929000      9.461000
C          27.030000     -3.998000     10.402000
S          24.554000     -1.885000      8.120000
C          26.513000     -3.264000      9.394000
C          28.316000     -4.641000     10.320000
C          26.188000     -2.010000      7.397000
C          27.068000     -2.734000      8.189000
N          28.579000     -5.345000     11.372000
S          29.562000     -4.712000      9.017000
C          29.761000     -6.131000     11.278000
C          30.441000     -5.825000     10.147000
C          15.987000      1.194000     13.501000
H          18.049000      2.237000     11.881000
H          20.209000      1.172000     11.420000
H          18.755000     -2.413000     13.406000
H          21.032000     -0.704000     10.014000
H          26.359000     -1.521000      6.447000
H          28.101000     -2.865000      7.889000
H          29.957000     -6.924000     11.988000
H          31.406000     -6.137000      9.772000
H          15.492000      1.547000     12.588000
C          16.285000      2.520000     14.287000
H          15.363000      0.608000     14.186000
H          16.701000      3.218000     13.550000
H          16.937000      2.293000     15.140000
C          14.967000      3.165000     14.936000
H          14.538000      2.413000     15.610000
C          13.913000      3.517000     13.801000
H          15.292000      3.999000     15.570000
H          13.425000      2.565000     13.558000
H          14.308000      3.836000     12.828000
C          12.781000      4.502000     14.260000
H          12.452000      4.262000     15.278000
C          11.565000      4.508000     13.335000
H          13.316000      5.460000     14.261000
H          11.968000      4.815000     12.362000
H          10.798000      5.173000     13.749000
H          11.075000      3.528000     13.274000
$end

--------------------------------------------------------------

             Standard Nuclear Orientation (Angstroms)
    I     Atom           X                Y                Z
 ----------------------------------------------------------------
    1      C      -9.9263541966    -1.7158191923     0.5343334280
    2      C      -9.3623898416    -2.1574858765    -0.6794246807
    3      N      -9.1035428432    -1.4772824904     1.5928454584
    4      C      -8.0278145075    -2.3340152722    -0.8325424463
    5      C      -7.7629439594    -1.6529028623     1.4534714377
    6      C      -7.1344854205    -2.0219583778     0.2261443047
    7      C      -5.6876550069    -2.3475625798     0.1304591019
    8      C      -4.6862854439    -1.3411924699    -0.0632009099
    9      C      -5.2520755691    -3.7267520964     0.2003077289
   10      N      -3.3863407390    -1.6419726036    -0.1761879686
   11      N      -6.0526984074    -4.8320942706     0.2637092170
   12      C      -3.8645773021    -4.0277830028     0.0779232839
   13      C      -2.9225672250    -2.9288793208    -0.1397156657
   14      S      -5.0654330721    -6.0811890797     0.1548316915
   15      N      -3.6001464616    -5.3618893102     0.0189089531
   16      C      -1.4872497301    -3.2163783877    -0.3305925245
   17      S      -0.6597490481    -4.7461078759    -0.7682411443
   18      C      -0.5416459349    -2.1859354352    -0.5549555880
   19      C       0.7873044106    -3.9500875886    -1.4292691238
   20      S      -0.7507943617    -0.4937960418    -0.1013222459
   21      C       0.6849630529    -2.6452049859    -1.0763602972
   22      C       1.8515358899    -4.5291442376    -2.1380333693
   23      C       0.9292304670    -0.2494730705    -0.5947691637
   24      C       1.4937797851    -1.4584899961    -1.1246513590
   25      N       2.0653372841    -5.8111625732    -1.9924004368
   26      S       2.7472323255    -3.6993172055    -3.3028981648
   27      C       2.9719108902    -6.1849665636    -2.8645058624
   28      C       3.4994684886    -5.2419890348    -3.6661038668
   29      C     -11.4001598931    -1.5093992585     0.7884782292
   30      H     -10.0733795332    -2.4978808952    -1.4275389031
   31      H      -7.7228506659    -2.7834829871    -1.7735078169
   32      H      -7.1056458492    -1.4688508394     2.3021793068
   33      H      -4.9658107831    -0.2885973087    -0.0603704796
   34      H       1.4072613392     0.7009726308    -0.3979101936
   35      H       2.4867153768    -1.4998217436    -1.5587706946
   36      H       3.3237008183    -7.2082587475    -2.8575810513
   37      H       4.3208804259    -5.3003727604    -4.3685138396
   38      H     -11.8838248515    -2.4885509486     0.6933405611
   39      C     -12.0177344493    -0.4879032026    -0.1423141619
   40      H     -11.4718777725    -1.3324320925     1.8686153353
   41      H     -11.9698707450    -0.7915510050    -1.1953958671
   42      H     -11.4261087270     0.4347458482    -0.0990506223
   43      C     -13.4200192974    -0.0998879259     0.2010433049
   44      H     -13.8857151233     0.3274975865    -0.6955363187
   45      C     -13.3572718969     0.8264561348     1.5185858829
   46      H     -13.9423359015    -1.0303742059     0.4535242901
   47      H     -12.6574869029     1.6572562662     1.3707072033
   48      H     -12.8030584086     0.1508477970     2.1823650503
   49      C     -14.8172551247     1.2371457595     1.8661589065
   50      H     -15.2649534465     1.6449181890     0.9513469813
   51      C     -14.8510838461     2.2744975293     3.0121196054
   52      H     -15.3872599251     0.3307482014     2.1063692189
   53      H     -15.7128368317     2.9461679698     2.9178401751
   54      H     -13.9181950314     2.8514121254     3.0059545236
   55      H     -14.9533045562     1.7961215414     3.9946456054
   56      C       9.0320339456    -0.6184357639     0.8754091646
   57      C       8.2744646635    -0.2178412923     2.0160085036
   58      N       8.6690444367    -0.2636909495    -0.3591878275
   59      C       7.1049647804     0.5776257415     1.7847354580
   60      C       7.5220072390     0.4060090533    -0.5824557679
   61      C       6.7464275399     0.9756861899     0.4440397705
   62      C       5.4406808133     1.6934739614     0.1945258408
   63      C       4.3006384814     1.4475607501     0.9316351773
   64      C       5.3110190091     2.6425409584    -0.8650616505
   65      N       3.1582583409     2.1139614442     0.7379041016
   66      N       6.2764928612     2.9950879896    -1.6740881220
   67      C       4.1060229589     3.3490375445    -1.0663800376
   68      C       3.0546588998     3.0535854628    -0.1649141854
   69      S       5.6916353743     4.2186470938    -2.5410516960
   70      N       4.1986131693     4.2995265254    -1.9728825198
   71      C       1.8021899281     3.8311779200    -0.2305833970
   72      S       1.3796790404     5.2991063874    -1.2886914087
   73      C       0.7589810494     3.6242909636     0.7257706288
   74      C      -0.0348042618     5.6000991825    -0.2921943815
   75      S       0.5743132692     2.4981795149     2.1181871671
   76      C      -0.1592824218     4.6900782751     0.6969851451
   77      C      -1.0607472565     6.5620974984    -0.6019833609
   78      C      -0.8643811574     3.4491690830     2.6020127434
   79      C      -1.0824736072     4.5438270374     1.7773918328
   80      N      -0.7571972954     7.2879062225    -1.6279210379
   81      S      -2.6889894810     6.8784445719     0.1080291654
   82      C      -1.8012898626     8.1429863962    -2.0778817115
   83      C      -2.8377051782     8.1194050218    -1.2058242523
   84      C      10.3540596458    -1.3826078766     1.0575547939
   85      H       8.5681030056    -0.4530522259     3.0350224097
   86      H       6.6185057321     0.9873651183     2.6654086309
   87      H       7.2050137182     0.5168023587    -1.6177112684
   88      H       4.3272704279     0.7204458709     1.7420799267
   89      H      -1.4197479944     3.1191447053     3.4700643469
   90      H      -1.9020934241     5.2259120023     1.9703515602
   91      H      -1.7491001173     8.6173651860    -3.0492755525
   92      H      -3.7569672897     8.6863535864    -1.1536658830
   93      H      10.1151851131    -2.2593527762     1.6719328034
   94      C      11.3601168312    -0.5761542978     1.9532989342
   95      H      10.9134105107    -1.5836164947     0.1362952510
   96      H      10.9232339245    -0.5656648341     2.9595058200
   97      H      11.5296416613     0.4105407236     1.5039257411
   98      C      12.8127389094    -1.2544028520     2.0182450407
   99      H      13.1867561176    -1.3154057135     0.9885796684
  100      C      12.7078846657    -2.7174758079     2.6277268805
  101      H      13.4737189424    -0.5564056202     2.5464895488
  102      H      12.3617284472    -3.3485704492     1.7998425733
  103      H      11.9414491867    -2.8903343723     3.3940241944
  104      C      14.0783448060    -3.3120017960     3.1080474541
  105      H      14.8779764490    -3.0519816194     2.4043829436
  106      C      14.0547312520    -4.8284839794     3.2925499947
  107      H      14.2279025694    -2.7736254821     4.0523850103
  108      H      13.2786842368    -4.9958556234     4.0496000346
  109      H      15.0565066111    -5.1752019159     3.5720903358
  110      H      13.8282960314    -5.3644011327     2.3620980101
 ----------------------------------------------------------------

    9   -5663.5032800079      9.17E-06 Convergence criterion met
 Total energy in the final basis set = -5663.5032800079

                    Orbital Energies (a.u.)
 --------------------------------------------------------------

 Alpha MOs
 -- Occupied --
-88.988 -88.984 -88.929 -88.929 -88.926 -88.918 -88.917 -88.905
-14.387 -14.383 -14.379 -14.379 -14.350 -14.347 -14.343 -14.332
-14.327 -14.326 -10.272 -10.268 -10.263 -10.258 -10.256 -10.253
-10.252 -10.251 -10.247 -10.241 -10.239 -10.239 -10.238 -10.238
-10.237 -10.237 -10.235 -10.234 -10.232 -10.227 -10.227 -10.225
-10.225 -10.223 -10.222 -10.221 -10.221 -10.219 -10.218 -10.218
-10.210 -10.208 -10.207 -10.206 -10.204 -10.203 -10.199 -10.190
-10.189 -10.188 -10.187 -10.183 -10.183 -10.180 -10.179 -10.179
-10.177 -10.176 -10.174 -10.170  -8.045  -8.040  -7.989  -7.988
 -7.986  -7.976  -7.975  -7.964  -6.010  -6.005  -6.004  -6.002
 -5.999  -5.998  -5.953  -5.952  -5.951  -5.950  -5.948  -5.947
 -5.945  -5.945  -5.942  -5.941  -5.940  -5.937  -5.936  -5.933
 -5.931  -5.928  -5.925  -5.920  -1.060  -1.033  -0.990  -0.973
 -0.967  -0.946  -0.936  -0.927  -0.923  -0.905  -0.904  -0.898
 -0.838  -0.833  -0.832  -0.825  -0.816  -0.811  -0.810  -0.801
 -0.800  -0.795  -0.792  -0.791  -0.780  -0.778  -0.767  -0.765
 -0.750  -0.749  -0.742  -0.736  -0.725  -0.713  -0.709  -0.702
 -0.695  -0.687  -0.679  -0.670  -0.657  -0.652  -0.649  -0.640
 -0.633  -0.631  -0.626  -0.621  -0.611  -0.609  -0.602  -0.601
 -0.594  -0.586  -0.583  -0.581  -0.577  -0.574  -0.570  -0.564
 -0.551  -0.543  -0.543  -0.535  -0.526  -0.521  -0.521  -0.516
 -0.506  -0.503  -0.498  -0.490  -0.490  -0.489  -0.482  -0.477
 -0.472  -0.471  -0.468  -0.463  -0.463  -0.455  -0.455  -0.453
 -0.447  -0.445  -0.444  -0.439  -0.438  -0.437  -0.434  -0.430
 -0.429  -0.427  -0.421  -0.419  -0.418  -0.418  -0.414  -0.413
 -0.411  -0.408  -0.402  -0.400  -0.398  -0.398  -0.396  -0.393
 -0.393  -0.392  -0.389  -0.388  -0.385  -0.383  -0.382  -0.381
 -0.375  -0.374  -0.371  -0.369  -0.366  -0.364  -0.361  -0.356
 -0.352  -0.351  -0.350  -0.348  -0.344  -0.341  -0.339  -0.338
 -0.337  -0.335  -0.333  -0.332  -0.331  -0.327  -0.325  -0.323
 -0.318  -0.318  -0.312  -0.310  -0.303  -0.299  -0.297  -0.297
 -0.293  -0.291  -0.288  -0.287  -0.285  -0.283  -0.280  -0.278
 -0.277  -0.268  -0.267  -0.259  -0.255  -0.251  -0.248  -0.247
 -0.244  -0.242  -0.234  -0.226  -0.198  -0.189

          Ground-State Mulliken Net Atomic Charges

     Atom                 Charge (a.u.)
  ----------------------------------------
      1 C                     0.267680
      2 C                    -0.103951
      3 N                    -0.492235
      4 C                    -0.044304
      5 C                     0.094534
      6 C                    -0.003964
      7 C                    -0.044131
      8 C                     0.081661
      9 C                     0.240024
     10 N                    -0.522413
     11 N                    -0.531359
     12 C                     0.190653
     13 C                     0.313805
     14 S                     0.609032
     15 N                    -0.552608
     16 C                    -0.224392
     17 S                     0.342476
     18 C                    -0.147574
     19 C                    -0.211974
     20 S                     0.316654
     21 C                     0.177443
     22 C                     0.043755
     23 C                    -0.295945
     24 C                    -0.125197
     25 N                    -0.414187
     26 S                     0.281449
     27 C                     0.139178
     28 C                    -0.312131
     29 C                    -0.235519
     30 H                     0.084008
     31 H                     0.099811
     32 H                     0.101219
     33 H                     0.121609
     34 H                     0.143928
     35 H                     0.090818
     36 H                     0.105857
     37 H                     0.131990
     38 H                     0.107504
     39 C                    -0.181595
     40 H                     0.129492
     41 H                     0.087629
     42 H                     0.101554
     43 C                    -0.182696
     44 H                     0.087017
     45 C                    -0.182964
     46 H                     0.090484
     47 H                     0.094347
     48 H                     0.103748
     49 C                    -0.169015
     50 H                     0.098200
     51 C                    -0.324018
     52 H                     0.096738
     53 H                     0.098417
     54 H                     0.104660
     55 H                     0.105583
     56 C                     0.283376
     57 C                    -0.115507
     58 N                    -0.482926
     59 C                    -0.104699
     60 C                     0.092474
     61 C                     0.038035
     62 C                     0.047004
     63 C                     0.052314
     64 C                     0.207699
     65 N                    -0.542187
     66 N                    -0.542086
     67 C                     0.223352
     68 C                     0.328604
     69 S                     0.597212
     70 N                    -0.556703
     71 C                    -0.242633
     72 S                     0.362973
     73 C                    -0.139472
     74 C                    -0.228963
     75 S                     0.291355
     76 C                     0.159075
     77 C                     0.103465
     78 C                    -0.312636
     79 C                    -0.073711
     80 N                    -0.448548
     81 S                     0.245265
     82 C                     0.129201
     83 C                    -0.308808
     84 C                    -0.220856
     85 H                     0.093170
     86 H                     0.102965
     87 H                     0.111184
     88 H                     0.115171
     89 H                     0.137778
     90 H                     0.106589
     91 H                     0.130144
     92 H                     0.135480
     93 H                     0.111774
     94 C                    -0.189260
     95 H                     0.115097
     96 H                     0.092982
     97 H                     0.101764
     98 C                    -0.190631
     99 H                     0.099556
    100 C                    -0.178057
    101 H                     0.095396
    102 H                     0.096969
    103 H                     0.086269
    104 C                    -0.182775
    105 H                     0.092304
    106 C                    -0.312449
    107 H                     0.096280
    108 H                     0.102628
    109 H                     0.102853
    110 H                     0.104367
  ----------------------------------------
  Sum of atomic charges =     0.000000

                    Cartesian Multipole Moments
 -----------------------------------------------------------------
    Charge (ESU x 10^10)
                 0.0000
    Dipole Moment (Debye)
         X       0.1448      Y       2.0942      Z      -0.7199
       Tot       2.2192
    Quadrupole Moments (Debye-Ang)
        XX    -407.6760     XY     -18.4517     YY    -429.6320
        XZ      19.2434     YZ       3.8310     ZZ    -430.6244

 Total job time:  83.35s(wall), 901.81s(cpu)
        *  Thank you very much for using Q-Chem.  Have a nice day.  *
