 Q-Chem 4.4, Q-Chem, Inc., Pleasanton, CA (2016)
 Q-Chem 4.4.2 for Intel X86 Linux

User input:
--------------------------------------------------------------
$comment
SP
$end

$rem
MEM_STATIC 5000
MEM_TOTAL 20000
JOBTYPE SP
EXCHANGE B3LYP
BASIS 6-31g(d,p)
$end

$molecule
0 1
C          14.669000     -3.229000     12.206000
C          15.998000     -3.805000     12.153000
N          14.159000     -2.537000     11.134000
C          16.896000     -3.547000     11.068000
C          15.003000     -2.363000     10.145000
C          16.334000     -2.787000     10.030000
C          17.202000     -2.353000      8.885000
C          18.523000     -2.040000      9.128000
C          16.688000     -2.405000      7.553000
N          19.303000     -1.638000      8.173000
N          15.493000     -2.849000      7.210000
C          17.494000     -2.080000      6.539000
C          18.813000     -1.572000      6.868000
S          15.397000     -2.688000      5.598000
N          16.972000     -2.309000      5.284000
C          19.660000     -1.053000      5.745000
S          19.617000     -1.636000      4.132000
C          20.838000     -0.357000      5.899000
C          20.884000     -0.575000      3.582000
S          21.327000      0.403000      7.355000
C          21.478000     -0.049000      4.689000
C          21.346000     -0.480000      2.166000
C          22.627000      1.113000      6.329000
C          22.600000      0.791000      5.005000
N          20.955000     -1.530000      1.413000
S          22.575000      0.671000      1.449000
C          21.546000     -1.399000      0.139000
C          22.287000     -0.278000      0.001000
C          13.752000     -3.455000     13.428000
H          16.434000     -4.266000     13.035000
H          17.846000     -4.074000     11.079000
H          14.611000     -1.676000      9.396000
H          18.963000     -1.957000     10.120000
H          23.367000      1.768000      6.771000
H          23.367000      1.102000      4.306000
H          21.339000     -2.137000     -0.626000
H          22.723000      0.124000     -0.904000
H          14.164000     -3.212000     14.415000
C          13.376000     -4.910000     13.597000
H          12.865000     -2.811000     13.413000
H          12.869000     -5.005000     14.566000
H          14.301000     -5.477000     13.762000
C          12.519000     -5.356000     12.437000
H          11.486000     -4.996000     12.515000
C          12.483000     -6.906000     12.381000
H          12.877000     -5.007000     11.460000
H          13.485000     -7.332000     12.250000
H          11.858000     -7.202000     11.529000
C          11.913000     -7.609000     13.555000
H          11.949000     -8.693000     13.389000
C          10.459000     -7.265000     13.928000
H          12.600000     -7.442000     14.393000
H          10.388000     -6.465000     14.676000
H          10.021000     -8.091000     14.502000
H           9.862000     -6.990000     13.050000
C          17.287000      0.512000     13.043000
C          18.220000      1.223000     12.231000
N          17.556000     -0.713000     13.500000
C          19.457000      0.569000     11.921000
C          18.678000     -1.362000     13.134000
C          19.741000     -0.744000     12.450000
C          20.982000     -1.483000     12.007000
C          21.508000     -1.365000     10.737000
C          21.653000     -2.390000     12.883000
N          22.630000     -1.986000     10.360000
N          21.295000     -2.640000     14.116000
C          22.840000     -3.042000     12.486000
C          23.307000     -2.743000     11.183000
S          22.468000     -3.554000     14.732000
N          23.422000     -3.713000     13.458000
C          24.602000     -3.289000     10.733000
S          25.859000     -4.276000     11.681000
C          25.148000     -2.929000      9.461000
C          27.030000     -3.998000     10.402000
S          24.554000     -1.885000      8.120000
C          26.513000     -3.264000      9.394000
C          28.316000     -4.641000     10.320000
C          26.188000     -2.010000      7.397000
C          27.068000     -2.734000      8.189000
N          28.579000     -5.345000     11.372000
S          29.562000     -4.712000      9.017000
C          29.761000     -6.131000     11.278000
C          30.441000     -5.825000     10.147000
C          15.987000      1.194000     13.501000
H          18.049000      2.237000     11.881000
H          20.209000      1.172000     11.420000
H          18.755000     -2.413000     13.406000
H          21.032000     -0.704000     10.014000
H          26.359000     -1.521000      6.447000
H          28.101000     -2.865000      7.889000
H          29.957000     -6.924000     11.988000
H          31.406000     -6.137000      9.772000
H          15.492000      1.547000     12.588000
C          16.285000      2.520000     14.287000
H          15.363000      0.608000     14.186000
H          16.701000      3.218000     13.550000
H          16.937000      2.293000     15.140000
C          14.967000      3.165000     14.936000
H          14.538000      2.413000     15.610000
C          13.913000      3.517000     13.801000
H          15.292000      3.999000     15.570000
H          13.425000      2.565000     13.558000
H          14.308000      3.836000     12.828000
C          12.781000      4.502000     14.260000
H          12.452000      4.262000     15.278000
C          11.565000      4.508000     13.335000
H          13.316000      5.460000     14.261000
H          11.968000      4.815000     12.362000
H          10.798000      5.173000     13.749000
H          11.075000      3.528000     13.274000
$end

--------------------------------------------------------------

             Standard Nuclear Orientation (Angstroms)
    I     Atom           X                Y                Z
 ----------------------------------------------------------------
    1      C       5.8270595936     0.8832421396    -1.5993174504
    2      C       4.5366995162     1.4786315936    -1.8844634983
    3      N       5.9378990603    -0.4593830950    -1.3287253368
    4      C       3.3134375971     0.7489053348    -1.7384399915
    5      C       4.7939779258    -1.0963162486    -1.2481424866
    6      C       3.4914028134    -0.6032665271    -1.4055021030
    7      C       2.2882030910    -1.4522474953    -1.1150769945
    8      C       1.2020821218    -0.8806539066    -0.4860451913
    9      C       2.2331068037    -2.7894960129    -1.6149317749
   10      N       0.1508761364    -1.5821059182    -0.1945661152
   11      N       3.1527674779    -3.3642390322    -2.3677296933
   12      C       1.1279843404    -3.5096014631    -1.4061029416
   13      C       0.0951308091    -2.9247045153    -0.5711327964
   14      S       2.6247807879    -4.8719571252    -2.6535569266
   15      N       1.0941842806    -4.7253968561    -2.0546776239
   16      C      -1.0724752123    -3.7885168284    -0.1990797537
   17      S      -1.7172796226    -5.0424645508    -1.1764995110
   18      C      -2.0275067970    -3.4665864094     0.7390521546
   19      C      -2.9959041364    -5.4273630970    -0.0582497796
   20      S      -1.8364036147    -2.2533879245     1.9341613589
   21      C      -3.0588341734    -4.4117192808     0.8469951867
   22      C      -3.9642440737    -6.5482382316    -0.2412298291
   23      C      -3.3634824331    -2.9356948435     2.6044326105
   24      C      -3.8860699977    -4.0118353116     1.9515827578
   25      N      -3.9965519206    -7.0147003455    -1.5076260149
   26      S      -5.2651846739    -7.1223183743     0.9108624174
   27      C      -5.0241935249    -7.9770506561    -1.5933733927
   28      C      -5.6544757777    -8.1989623341    -0.4193778693
   29      C       7.1242338257     1.7172096928    -1.6834966161
   30      H       4.4403809493     2.5545366270    -2.0014767145
   31      H       2.3996640016     1.2542839783    -2.0383737224
   32      H       4.9226527432    -2.1113696106    -0.8743197161
   33      H       1.1947712383     0.1209559987    -0.0602786490
   34      H      -3.8084835062    -2.4977792580     3.4888493589
   35      H      -4.8335309541    -4.4628229390     2.2209132165
   36      H      -5.2012283155    -8.4896407537    -2.5307250208
   37      H      -6.3710953423    -8.9751280956    -0.1853947284
   38      H       7.1552088326     2.6539037879    -1.1137539363
   39      C       7.4019067834     2.1987136019    -3.0899153709
   40      H       7.9894250692     1.1929013488    -1.2612705243
   41      H       8.2365963164     2.9093366522    -3.0320944070
   42      H       6.5676202923     2.8441430235    -3.3927782320
   43      C       7.6922531853     1.0199819842    -3.9872758003
   44      H       8.7016129844     0.6175607952    -3.8388743768
   45      C       7.5618763999     1.4504695406    -5.4720701825
   46      H       7.0140624818     0.1701242327    -3.8379668187
   47      H       6.5541502548     1.8163455590    -5.7028596007
   48      H       7.7739356703     0.5762181902    -6.1004494010
   49      C       8.4789727598     2.5134779120    -5.9478143040
   50      H       8.2821522997     2.7236832983    -7.0065793403
   51      C       9.9878144389     2.2311554796    -5.8242350526
   52      H       8.1928874230     3.4377686693    -5.4321169353
   53      H      10.4184424442     2.6129808198    -4.8897223825
   54      H      10.5380926228     2.8490440815    -6.5446540945
   55      H      10.2161651643     1.1622363668    -5.9147108868
   56      C       4.0983480847     1.3385560210     2.6848183771
   57      C       2.9911643742     0.7180831302     3.3363639418
   58      N       3.9189945498     2.2241730787     1.7022962467
   59      C       1.6774032716     1.0795288051     2.8920962417
   60      C       2.6890975500     2.4948456906     1.2246659431
   61      C       1.5044484694     2.0618594071     1.8482671251
   62      C       0.1272401691     2.3342488339     1.2900984249
   63      C      -0.8404974769     1.3571003758     1.1798045481
   64      C      -0.2273307109     3.6277334748     0.7987299534
   65      N      -2.0721425134     1.6091654208     0.7257475943
   66      N       0.5600375253     4.6721919102     0.8092578893
   67      C      -1.5291537115     3.8944456936     0.3235421299
   68      C      -2.4392533570     2.8102748317     0.3634316943
   69      S      -0.3566003630     5.9117774830     0.3466742866
   70      N      -1.7431314670     5.1669780955     0.0615806701
   71      C      -3.8510405416     3.0338334701    -0.0033372806
   72      S      -4.7213910367     4.6187907430    -0.4314990008
   73      C      -4.8157934652     1.9849556572     0.1183472707
   74      C      -6.2687250877     3.8057393859    -0.2609973135
   75      S      -4.7011377518     0.2639604956     0.6341793375
   76      C      -6.1226067313     2.5038659206     0.0644007600
   77      C      -7.5371649694     4.3819470211    -0.6257081956
   78      C      -6.4917505876     0.2298597830     0.6633823123
   79      C      -7.0538795633     1.4632567972     0.3657536509
   80      N      -7.4307263886     5.6253770026    -0.9634088171
   81      S      -9.1944171581     3.6844824711    -0.7754559315
   82      C      -8.6216685806     6.2004785334    -1.4874993862
   83      C      -9.6589057862     5.3395597338    -1.3527596374
   84      C       5.5302537129     1.0771318037     3.1809954125
   85      H       3.1033749092     0.0278365080     4.1675711340
   86      H       0.8477790295     0.7054359407     3.4853012195
   87      H       2.6290811888     3.0954911575     0.3190517541
   88      H      -0.6270991034     0.3442394015     1.5186257117
   89      H      -6.9753539891    -0.7052444429     0.9135219465
   90      H      -8.1291863873     1.5969065394     0.3759015865
   91      H      -8.5957800404     7.1470419970    -2.0116295160
   92      H     -10.7177951387     5.4409844710    -1.5468224156
   93      H       5.6586212548    -0.0122254999     3.1759516763
   94      C       5.6858230642     1.4529238017     4.6973906615
   95      H       6.3161881357     1.6525257122     2.6777798193
   96      H       5.0802485047     0.7241643484     5.2502180414
   97      H       5.4017049976     2.5035244725     4.8379508079
   98      C       7.2055530120     1.3656872892     5.2045007845
   99      H       7.7934603911     2.0514792175     4.5817043934
  100      C       7.7589049453    -0.1125333158     5.0264264157
  101      H       7.2320408057     1.7728814157     6.2226502529
  102      H       8.0238750551    -0.1933108148     3.9649355601
  103      H       7.0456577437    -0.9365444212     5.1560378638
  104      C       9.0650002224    -0.4112760631     5.8432482435
  105      H       9.7426183594     0.4501802981     5.8133886002
  106      C       9.8172844177    -1.6501315395     5.3599030272
  107      H       8.6628690011    -0.5298514882     6.8572602500
  108      H       9.0956159983    -2.4675664304     5.4798275514
  109      H      10.7423177364    -1.7608376573     5.9378022526
  110      H      10.1527270003    -1.5619987693     4.3187825305
 ----------------------------------------------------------------

   10   -5663.4808929876      3.19E-06 Convergence criterion met
 Total energy in the final basis set = -5663.4808929876

                    Orbital Energies (a.u.)
 --------------------------------------------------------------

 Alpha MOs
 -- Occupied --
-88.989 -88.984 -88.934 -88.926 -88.924 -88.913 -88.910 -88.910
-14.386 -14.383 -14.378 -14.375 -14.350 -14.349 -14.341 -14.339
-14.327 -14.325 -10.279 -10.268 -10.267 -10.256 -10.248 -10.248
-10.247 -10.245 -10.241 -10.237 -10.235 -10.234 -10.234 -10.233
-10.233 -10.231 -10.231 -10.230 -10.230 -10.229 -10.228 -10.227
-10.225 -10.225 -10.220 -10.218 -10.217 -10.217 -10.216 -10.215
-10.211 -10.208 -10.205 -10.204 -10.203 -10.203 -10.202 -10.199
-10.186 -10.185 -10.185 -10.180 -10.178 -10.177 -10.174 -10.172
-10.167 -10.167 -10.167 -10.163  -8.045  -8.041  -7.993  -7.986
 -7.981  -7.973  -7.970  -7.967  -6.010  -6.006  -6.004  -6.002
 -6.000  -5.998  -5.958  -5.955  -5.950  -5.950  -5.946  -5.945
 -5.942  -5.942  -5.938  -5.937  -5.934  -5.934  -5.932  -5.931
 -5.930  -5.928  -5.926  -5.924  -1.056  -1.042  -0.965  -0.963
 -0.959  -0.954  -0.935  -0.934  -0.919  -0.918  -0.900  -0.899
 -0.846  -0.833  -0.830  -0.828  -0.812  -0.808  -0.806  -0.803
 -0.798  -0.793  -0.792  -0.787  -0.778  -0.778  -0.763  -0.760
 -0.746  -0.745  -0.737  -0.734  -0.720  -0.719  -0.706  -0.705
 -0.692  -0.692  -0.678  -0.674  -0.653  -0.652  -0.644  -0.637
 -0.636  -0.635  -0.623  -0.616  -0.613  -0.607  -0.599  -0.599
 -0.590  -0.590  -0.580  -0.579  -0.575  -0.572  -0.562  -0.546
 -0.544  -0.543  -0.541  -0.538  -0.522  -0.521  -0.519  -0.517
 -0.506  -0.502  -0.497  -0.493  -0.486  -0.481  -0.478  -0.475
 -0.472  -0.469  -0.468  -0.466  -0.461  -0.453  -0.452  -0.451
 -0.449  -0.444  -0.439  -0.435  -0.431  -0.429  -0.428  -0.426
 -0.425  -0.425  -0.418  -0.416  -0.413  -0.412  -0.411  -0.409
 -0.408  -0.407  -0.402  -0.400  -0.397  -0.395  -0.394  -0.393
 -0.392  -0.391  -0.390  -0.390  -0.389  -0.385  -0.383  -0.380
 -0.378  -0.377  -0.375  -0.371  -0.363  -0.361  -0.361  -0.357
 -0.351  -0.349  -0.348  -0.346  -0.343  -0.342  -0.338  -0.336
 -0.333  -0.331  -0.331  -0.329  -0.326  -0.325  -0.325  -0.315
 -0.312  -0.309  -0.309  -0.307  -0.303  -0.299  -0.298  -0.295
 -0.293  -0.290  -0.289  -0.288  -0.285  -0.283  -0.280  -0.274
 -0.273  -0.268  -0.265  -0.261  -0.254  -0.254  -0.251  -0.247
 -0.243  -0.235  -0.230  -0.227  -0.194  -0.193

          Ground-State Mulliken Net Atomic Charges

     Atom                 Charge (a.u.)
  ----------------------------------------
      1 C                     0.266078
      2 C                    -0.119649
      3 N                    -0.466308
      4 C                    -0.082121
      5 C                     0.099518
      6 C                     0.042112
      7 C                     0.000743
      8 C                     0.092445
      9 C                     0.267105
     10 N                    -0.518671
     11 N                    -0.549211
     12 C                     0.203925
     13 C                     0.252444
     14 S                     0.608942
     15 N                    -0.557493
     16 C                    -0.208963
     17 S                     0.367311
     18 C                    -0.138725
     19 C                    -0.251634
     20 S                     0.295235
     21 C                     0.163097
     22 C                     0.061556
     23 C                    -0.303921
     24 C                    -0.082719
     25 N                    -0.425895
     26 S                     0.264188
     27 C                     0.129600
     28 C                    -0.302007
     29 C                    -0.235281
     30 H                     0.090328
     31 H                     0.110987
     32 H                     0.095387
     33 H                     0.112437
     34 H                     0.117184
     35 H                     0.107567
     36 H                     0.121785
     37 H                     0.130581
     38 H                     0.102988
     39 C                    -0.177426
     40 H                     0.111847
     41 H                     0.095615
     42 H                     0.093308
     43 C                    -0.166665
     44 H                     0.095571
     45 C                    -0.180058
     46 H                     0.112023
     47 H                     0.085610
     48 H                     0.078060
     49 C                    -0.166551
     50 H                     0.089214
     51 C                    -0.321792
     52 H                     0.086928
     53 H                     0.101296
     54 H                     0.098148
     55 H                     0.103997
     56 C                     0.283929
     57 C                    -0.114182
     58 N                    -0.482304
     59 C                    -0.100263
     60 C                     0.095860
     61 C                     0.022259
     62 C                     0.036251
     63 C                     0.057209
     64 C                     0.208720
     65 N                    -0.543498
     66 N                    -0.546009
     67 C                     0.219194
     68 C                     0.334793
     69 S                     0.589829
     70 N                    -0.554523
     71 C                    -0.240821
     72 S                     0.355956
     73 C                    -0.137557
     74 C                    -0.229520
     75 S                     0.309093
     76 C                     0.156988
     77 C                     0.103741
     78 C                    -0.321422
     79 C                    -0.074265
     80 N                    -0.449143
     81 S                     0.241384
     82 C                     0.128922
     83 C                    -0.310031
     84 C                    -0.218851
     85 H                     0.093371
     86 H                     0.104280
     87 H                     0.104724
     88 H                     0.133039
     89 H                     0.132336
     90 H                     0.103259
     91 H                     0.128560
     92 H                     0.133482
     93 H                     0.114120
     94 C                    -0.189444
     95 H                     0.115513
     96 H                     0.092343
     97 H                     0.100449
     98 C                    -0.190864
     99 H                     0.099056
    100 C                    -0.178251
    101 H                     0.094406
    102 H                     0.099936
    103 H                     0.085836
    104 C                    -0.182428
    105 H                     0.091603
    106 C                    -0.312612
    107 H                     0.095331
    108 H                     0.102396
    109 H                     0.101924
    110 H                     0.105825
  ----------------------------------------
  Sum of atomic charges =     0.000000

                    Cartesian Multipole Moments
 -----------------------------------------------------------------
    Charge (ESU x 10^10)
                 0.0000
    Dipole Moment (Debye)
         X      -3.7806      Y      -0.8819      Z       1.9643
       Tot       4.3508
    Quadrupole Moments (Debye-Ang)
        XX    -401.0062     XY      13.9026     YY    -418.8783
        XZ       4.5116     YZ     -12.7308     ZZ    -438.2548

 Total job time:  99.86s(wall), 1082.63s(cpu)
        *  Thank you very much for using Q-Chem.  Have a nice day.  *
