 Q-Chem 4.4, Q-Chem, Inc., Pleasanton, CA (2016)
 Q-Chem 4.4.2 for Intel X86 Linux

User input:
--------------------------------------------------------------
$comment
SP
$end

$rem
MEM_STATIC 5000
MEM_TOTAL 20000
JOBTYPE SP
EXCHANGE B3LYP
BASIS 6-31g(d,p)
$end

$molecule
0 1
C          16.960000      7.318000     13.038000
C          17.441000      8.053000     11.947000
N          17.591000      6.194000     13.480000
C          18.536000      7.575000     11.260000
C          18.605000      5.689000     12.800000
C          19.184000      6.384000     11.694000
C          20.400000      5.966000     10.973000
C          20.757000      4.636000     10.858000
C          21.414000      6.880000     10.435000
N          21.918000      4.195000     10.350000
N          21.319000      8.237000     10.601000
C          22.623000      6.411000      9.879000
C          22.861000      5.028000      9.824000
S          22.697000      8.807000      9.843000
N          23.440000      7.390000      9.367000
C          24.154000      4.458000      9.367000
S          25.488000      5.309000      8.606000
C          24.527000      3.121000      9.632000
C          26.483000      3.835000      8.579000
S          23.718000      1.822000     10.539000
C          25.818000      2.845000      9.244000
C          27.743000      3.738000      7.990000
C          25.142000      0.888000     10.237000
C          26.205000      1.502000      9.634000
N          28.109000      4.879000      7.361000
S          28.814000      2.388000      7.794000
C          29.319000      4.671000      6.762000
C          29.801000      3.414000      6.854000
C          15.825000      7.879000     13.793000
H          16.967000      8.975000     11.624000
H          18.863000      8.139000     10.392000
H          19.040000      4.714000     13.018000
H          20.113000      3.822000     11.187000
H          25.141000     -0.117000     10.638000
H          27.115000      0.946000      9.438000
H          29.814000      5.485000      6.249000
H          30.757000      2.999000      6.562000
H          15.547000      7.432000     14.756000
C          14.544000      7.921000     12.934000
H          16.168000      8.916000     13.896000
H          14.164000      6.894000     12.859000
H          14.688000      8.313000     11.920000
C          13.415000      8.818000     13.549000
H          13.309000      8.487000     14.589000
C          12.089000      8.706000     12.798000
H          13.829000      9.831000     13.477000
H          11.308000      9.260000     13.334000
H          11.815000      7.645000     12.852000
C          12.030000      9.070000     11.288000
H          11.943000     10.159000     11.188000
C          10.774000      8.324000     10.639000
H          12.931000      8.819000     10.714000
H          10.706000      7.255000     10.873000
H          11.015000      8.285000      9.569000
H           9.835000      8.840000     10.872000
C          17.287000      0.512000     13.043000
C          18.220000      1.223000     12.231000
N          17.556000     -0.713000     13.500000
C          19.457000      0.569000     11.921000
C          18.678000     -1.362000     13.134000
C          19.741000     -0.744000     12.450000
C          20.982000     -1.483000     12.007000
C          21.508000     -1.365000     10.737000
C          21.653000     -2.390000     12.883000
N          22.630000     -1.986000     10.360000
N          21.295000     -2.640000     14.116000
C          22.840000     -3.042000     12.486000
C          23.307000     -2.743000     11.183000
S          22.468000     -3.554000     14.732000
N          23.422000     -3.713000     13.458000
C          24.602000     -3.289000     10.733000
S          25.859000     -4.276000     11.681000
C          25.148000     -2.929000      9.461000
C          27.030000     -3.998000     10.402000
S          24.554000     -1.885000      8.120000
C          26.513000     -3.264000      9.394000
C          28.316000     -4.641000     10.320000
C          26.188000     -2.010000      7.397000
C          27.068000     -2.734000      8.189000
N          28.579000     -5.345000     11.372000
S          29.562000     -4.712000      9.017000
C          29.761000     -6.131000     11.278000
C          30.441000     -5.825000     10.147000
C          15.987000      1.194000     13.501000
H          18.049000      2.237000     11.881000
H          20.209000      1.172000     11.420000
H          18.755000     -2.413000     13.406000
H          21.032000     -0.704000     10.014000
H          26.359000     -1.521000      6.447000
H          28.101000     -2.865000      7.889000
H          29.957000     -6.924000     11.988000
H          31.406000     -6.137000      9.772000
H          15.492000      1.547000     12.588000
C          16.285000      2.520000     14.287000
H          15.363000      0.608000     14.186000
H          16.701000      3.218000     13.550000
H          16.937000      2.293000     15.140000
C          14.967000      3.165000     14.936000
H          14.538000      2.413000     15.610000
C          13.913000      3.517000     13.801000
H          15.292000      3.999000     15.570000
H          13.425000      2.565000     13.558000
H          14.308000      3.836000     12.828000
C          12.781000      4.502000     14.260000
H          12.452000      4.262000     15.278000
C          11.565000      4.508000     13.335000
H          13.316000      5.460000     14.261000
H          11.968000      4.815000     12.362000
H          10.798000      5.173000     13.749000
H          11.075000      3.528000     13.274000
$end

--------------------------------------------------------------

             Standard Nuclear Orientation (Angstroms)
    I     Atom           X                Y                Z
 ----------------------------------------------------------------
    1      C       7.4696183769     0.9761233251    -1.1808738658
    2      C       7.3076639834     2.2356562668    -0.5899300925
    3      N       6.4018067709     0.2076220559    -1.5359586069
    4      C       6.0328426016     2.6659506899    -0.2913414894
    5      C       5.1770326732     0.5763982003    -1.2049698382
    6      C       4.9113103241     1.8567471865    -0.6291225436
    7      C       3.5686757146     2.4042586591    -0.3630689907
    8      C       2.4949788962     1.5866433806    -0.0659925719
    9      C       3.1905348743     3.8137942908    -0.5155642621
   10      N       1.2226913424     1.9998262439     0.0390326714
   11      N       4.0812985939     4.7521151235    -0.9673651149
   12      C       1.8549380389     4.2480079588    -0.3798528636
   13      C       0.8563878219     3.3084329446    -0.0757899476
   14      S       3.1739862999     6.1574398196    -0.9813257676
   15      N       1.6757090507     5.6055131734    -0.4944415290
   16      C      -0.5857240461     3.6609363379    -0.0351363149
   17      S      -1.2962690721     5.2652399969    -0.1000480671
   18      C      -1.6048975183     2.6830250852    -0.0787025321
   19      C      -2.9434245082     4.5942096286    -0.0948313372
   20      S      -1.5428508252     0.9121620955    -0.2359459094
   21      C      -2.8625845149     3.2333309357    -0.1724462756
   22      C      -4.1107517198     5.3549125825    -0.0437608267
   23      C      -3.2702849119     0.9767046926    -0.2919970408
   24      C      -3.8728987868     2.2038735032    -0.3305616347
   25      N      -3.8600905929     6.6789291128     0.0812480808
   26      S      -5.7783160835     4.8875552786     0.0498513696
   27      C      -5.0537230669     7.3345539422     0.1887776113
   28      C      -6.1456933359     6.5431790670     0.2352936137
   29      C       8.8369290829     0.5626576460    -1.5448499163
   30      H       8.1563645183     2.8693726824    -0.3507650725
   31      H       5.9362199987     3.6260881894     0.2058999556
   32      H       4.3089870326    -0.0717043348    -1.3225873101
   33      H       2.5978203610     0.5156071202     0.1009743769
   34      H      -3.7750345178     0.0249250554    -0.3928452308
   35      H      -4.9537547019     2.2781249119    -0.3740267841
   36      H      -5.0727296538     8.4150562121     0.2430325147
   37      H      -7.1996132643     6.7892074451     0.2231354186
   38      H       8.9800619787    -0.3245089244    -2.1748582103
   39      C       9.7175506674     0.3679124407    -0.2929769475
   40      H       9.1830620501     1.4826718279    -2.0320797124
   41      H       9.4118368005    -0.5734601881     0.1814812754
   42      H       9.6395024829     1.1720132510     0.4485932567
   43      C      11.2480002358     0.2778160490    -0.6202104404
   44      H      11.3359926702    -0.4724149805    -1.4150737833
   45      C      12.0956300870    -0.1034574115     0.5926272172
   46      H      11.4910454278     1.2868714567    -0.9744493693
   47      H      13.1366420705    -0.2646261893     0.2852322349
   48      H      11.7102714456    -1.0771433090     0.9199611302
   49      C      12.0696054808     0.7965723257     1.8596497869
   50      H      12.7492518060     1.6441861467     1.7075916300
   51      C      12.5143979934    -0.0878916359     3.1146940576
   52      H      11.1012467905     1.2648148378     2.0771547216
   53      H      11.9945571890    -1.0491052518     3.2039964809
   54      H      12.0997383759     0.4505837426     3.9764386070
   55      H      13.6021133726    -0.2224433724     3.1468978472
   56      C       3.2778398407    -4.1570289962     0.4028969348
   57      C       2.7953336604    -2.8256147370     0.5757490576
   58      N       2.4420067347    -5.1782446017     0.2020569336
   59      C       1.3767333516    -2.6270646969     0.5295316846
   60      C       1.1071341647    -5.0052409043     0.2492368310
   61      C       0.4916385289    -3.7403751827     0.2813121914
   62      C      -1.0042048243    -3.5491457196     0.3726081676
   63      C      -1.5920231468    -2.6711994729     1.2598398215
   64      C      -1.8969840242    -4.3160071821    -0.4367958091
   65      N      -2.9127786236    -2.4717649696     1.3096880853
   66      N      -1.5258239953    -5.2026811885    -1.3239273886
   67      C      -3.2910331919    -4.1019427492    -0.3869426607
   68      C      -3.7335841995    -3.0967816037     0.5069805336
   69      S      -2.8701459662    -5.6310862153    -2.0985554099
   70      N      -3.9587371146    -4.7679060661    -1.3058623156
   71      C      -5.1621027428    -2.7277115834     0.5346046462
   72      S      -6.5530553541    -3.3155996890    -0.5482436388
   73      C      -5.6263371818    -1.6517980962     1.3547244872
   74      C      -7.5624140195    -2.0104369760     0.0535132698
   75      S      -4.8027698607    -0.5442984128     2.5106805067
   76      C      -6.9166850985    -1.2500495772     0.9628834718
   77      C      -8.9708113752    -1.8779908310    -0.2163828345
   78      C      -6.3084731754     0.4253781929     2.5405938520
   79      C      -7.2772628406    -0.0666237420     1.6773321994
   80      N      -9.3892035965    -2.7517016692    -1.0725757569
   81      S     -10.2459196367    -0.7986773713     0.4651942905
   82      C     -10.7998820177    -2.7733652922    -1.2549848559
   83      C     -11.3753076679    -1.7374256647    -0.5985464282
   84      C       4.7904207412    -4.4262740000     0.3358585332
   85      H       3.4514666107    -1.9684120519     0.6967040413
   86      H       1.0339166371    -1.5962520001     0.5255461592
   87      H       0.4896519253    -5.9014533122     0.2434919340
   88      H      -0.9675865997    -2.0701687284     1.9194359425
   89      H      -6.3399089842     1.2899605545     3.1904947137
   90      H      -8.2297277890     0.4389734067     1.5704114569
   91      H     -11.2806371062    -3.6011784689    -1.7599253371
   92      H     -12.3924238552    -1.3718295511    -0.5667951566
   93      H       5.2163260604    -3.9919783886     1.2486536806
   94      C       5.4674118574    -3.5945011353    -0.8107507857
   95      H       5.0759062844    -5.4630984742     0.1225746513
   96      H       5.4021046431    -2.5450178821    -0.4981026307
   97      H       4.9783617889    -3.8325493803    -1.7638536467
   98      C       7.0087346567    -3.9823834141    -1.0303444239
   99      H       7.0413455570    -5.0529055367    -1.2685458394
  100      C       7.8364246481    -3.7133483528     0.2984122935
  101      H       7.3514571308    -3.4550545077    -1.9290115092
  102      H       7.6283215424    -4.5748564484     0.9449367699
  103      H       7.5245177043    -2.8669919290     0.9236401417
  104      C       9.3908486014    -3.6699102812     0.0881521991
  105      H       9.7044254324    -4.4435520388    -0.6227015143
  106      C      10.1866588813    -3.8342615251     1.3819804980
  107      H       9.5196955485    -2.6785946248    -0.3642654550
  108      H       9.8614632410    -2.9935084819     2.0070957800
  109      H      11.2578108978    -3.8506783608     1.1490130218
  110      H       9.9981018688    -4.7961560679     1.8753628462
 ----------------------------------------------------------------

   10   -5663.5294485711      3.28E-06 Convergence criterion met
 Total energy in the final basis set = -5663.5294485711

                    Orbital Energies (a.u.)
 --------------------------------------------------------------

 Alpha MOs
 -- Occupied --
-88.986 -88.985 -88.931 -88.930 -88.929 -88.921 -88.915 -88.910
-14.394 -14.390 -14.385 -14.377 -14.347 -14.346 -14.343 -14.339
-14.332 -14.323 -10.272 -10.263 -10.263 -10.263 -10.260 -10.257
-10.250 -10.249 -10.246 -10.240 -10.239 -10.238 -10.237 -10.237
-10.236 -10.235 -10.233 -10.232 -10.232 -10.232 -10.232 -10.227
-10.225 -10.225 -10.224 -10.223 -10.221 -10.217 -10.215 -10.215
-10.214 -10.208 -10.207 -10.207 -10.204 -10.203 -10.199 -10.196
-10.188 -10.187 -10.184 -10.182 -10.181 -10.181 -10.179 -10.178
-10.178 -10.178 -10.177 -10.173  -8.043  -8.040  -7.993  -7.989
 -7.985  -7.979  -7.973  -7.970  -6.008  -6.005  -6.002  -6.000
 -6.000  -5.998  -5.957  -5.954  -5.953  -5.950  -5.950  -5.950
 -5.946  -5.946  -5.944  -5.942  -5.940  -5.937  -5.936  -5.934
 -5.934  -5.931  -5.929  -5.926  -1.058  -1.023  -0.970  -0.970
 -0.967  -0.952  -0.942  -0.933  -0.921  -0.911  -0.904  -0.899
 -0.845  -0.838  -0.829  -0.828  -0.815  -0.815  -0.809  -0.805
 -0.796  -0.795  -0.794  -0.789  -0.788  -0.777  -0.770  -0.765
 -0.748  -0.747  -0.740  -0.739  -0.724  -0.722  -0.713  -0.706
 -0.694  -0.692  -0.677  -0.674  -0.653  -0.653  -0.646  -0.645
 -0.637  -0.636  -0.623  -0.623  -0.612  -0.608  -0.601  -0.601
 -0.594  -0.592  -0.587  -0.580  -0.576  -0.575  -0.563  -0.558
 -0.549  -0.545  -0.542  -0.539  -0.525  -0.524  -0.521  -0.518
 -0.510  -0.503  -0.501  -0.497  -0.494  -0.486  -0.480  -0.477
 -0.474  -0.471  -0.468  -0.467  -0.462  -0.458  -0.457  -0.452
 -0.450  -0.445  -0.444  -0.437  -0.436  -0.435  -0.434  -0.428
 -0.426  -0.423  -0.421  -0.417  -0.416  -0.415  -0.415  -0.412
 -0.409  -0.409  -0.407  -0.400  -0.397  -0.396  -0.396  -0.395
 -0.394  -0.393  -0.390  -0.390  -0.389  -0.387  -0.385  -0.380
 -0.380  -0.378  -0.378  -0.374  -0.367  -0.360  -0.360  -0.358
 -0.356  -0.355  -0.354  -0.351  -0.349  -0.348  -0.345  -0.339
 -0.339  -0.337  -0.335  -0.334  -0.332  -0.327  -0.323  -0.319
 -0.318  -0.316  -0.313  -0.308  -0.304  -0.302  -0.302  -0.296
 -0.294  -0.293  -0.292  -0.289  -0.288  -0.286  -0.280  -0.277
 -0.274  -0.273  -0.267  -0.266  -0.258  -0.253  -0.249  -0.249
 -0.244  -0.243  -0.232  -0.230  -0.197  -0.190

          Ground-State Mulliken Net Atomic Charges

     Atom                 Charge (a.u.)
  ----------------------------------------
      1 C                     0.283239
      2 C                    -0.111209
      3 N                    -0.503400
      4 C                    -0.054853
      5 C                     0.100885
      6 C                     0.014405
      7 C                     0.052630
      8 C                     0.043890
      9 C                     0.206652
     10 N                    -0.544956
     11 N                    -0.545220
     12 C                     0.207120
     13 C                     0.313201
     14 S                     0.595644
     15 N                    -0.555891
     16 C                    -0.237671
     17 S                     0.367576
     18 C                    -0.117892
     19 C                    -0.234221
     20 S                     0.292184
     21 C                     0.139866
     22 C                     0.057486
     23 C                    -0.289119
     24 C                    -0.087557
     25 N                    -0.443360
     26 S                     0.290248
     27 C                     0.134738
     28 C                    -0.316156
     29 C                    -0.225577
     30 H                     0.092522
     31 H                     0.112090
     32 H                     0.103107
     33 H                     0.105632
     34 H                     0.134551
     35 H                     0.119432
     36 H                     0.112987
     37 H                     0.132811
     38 H                     0.116904
     39 C                    -0.196737
     40 H                     0.110799
     41 H                     0.104461
     42 H                     0.094833
     43 C                    -0.178479
     44 H                     0.092958
     45 C                    -0.174528
     46 H                     0.086679
     47 H                     0.091125
     48 H                     0.101267
     49 C                    -0.189832
     50 H                     0.096641
     51 C                    -0.326280
     52 H                     0.095340
     53 H                     0.110374
     54 H                     0.099623
     55 H                     0.111203
     56 C                     0.283920
     57 C                    -0.119738
     58 N                    -0.483727
     59 C                    -0.117151
     60 C                     0.092475
     61 C                     0.036655
     62 C                     0.046636
     63 C                     0.053048
     64 C                     0.208008
     65 N                    -0.538318
     66 N                    -0.541608
     67 C                     0.219859
     68 C                     0.330008
     69 S                     0.596611
     70 N                    -0.556805
     71 C                    -0.240583
     72 S                     0.360142
     73 C                    -0.141286
     74 C                    -0.231003
     75 S                     0.295313
     76 C                     0.156470
     77 C                     0.103477
     78 C                    -0.312870
     79 C                    -0.080139
     80 N                    -0.448470
     81 S                     0.240516
     82 C                     0.129635
     83 C                    -0.309419
     84 C                    -0.222230
     85 H                     0.090502
     86 H                     0.120458
     87 H                     0.111696
     88 H                     0.119889
     89 H                     0.137067
     90 H                     0.104243
     91 H                     0.130103
     92 H                     0.134718
     93 H                     0.109614
     94 C                    -0.192490
     95 H                     0.113731
     96 H                     0.107819
     97 H                     0.099420
     98 C                    -0.189854
     99 H                     0.094775
    100 C                    -0.176745
    101 H                     0.103551
    102 H                     0.094595
    103 H                     0.088505
    104 C                    -0.192480
    105 H                     0.091695
    106 C                    -0.314321
    107 H                     0.101530
    108 H                     0.103335
    109 H                     0.103512
    110 H                     0.103542
  ----------------------------------------
  Sum of atomic charges =     0.000000

                    Cartesian Multipole Moments
 -----------------------------------------------------------------
    Charge (ESU x 10^10)
                 0.0000
    Dipole Moment (Debye)
         X      -2.1417      Y       2.8745      Z       0.7913
       Tot       3.6710
    Quadrupole Moments (Debye-Ang)
        XX    -355.0771     XY      -1.1846     YY    -446.2087
        XZ       6.3539     YZ       6.9082     ZZ    -453.3126

 Total job time:  98.01s(wall), 1086.91s(cpu)
        *  Thank you very much for using Q-Chem.  Have a nice day.  *
