 Q-Chem 4.4, Q-Chem, Inc., Pleasanton, CA (2016)
 Q-Chem 4.4.2 for Intel X86 Linux

User input:
--------------------------------------------------------------
$comment
SP
$end

$rem
MEM_STATIC 5000
MEM_TOTAL 20000
JOBTYPE SP
EXCHANGE B3LYP
BASIS 6-31g(d,p)
$end

$molecule
0 1
C          22.362000     -0.095000    -10.417000
C          23.004000     -1.045000     -9.619000
N          22.886000      0.367000    -11.517000
C          24.299000     -1.503000     -9.952000
C          24.072000     -0.104000    -11.916000
C          24.855000     -0.997000    -11.180000
C          26.276000     -1.317000    -11.603000
C          26.660000     -1.547000    -12.921000
C          27.332000     -1.352000    -10.680000
N          27.886000     -1.905000    -13.334000
N          27.258000     -1.122000     -9.361000
C          28.654000     -1.654000    -11.102000
C          28.893000     -1.979000    -12.437000
S          28.774000     -1.241000     -8.803000
N          29.591000     -1.630000    -10.126000
C          30.197000     -2.467000    -13.014000
S          31.530000     -3.074000    -12.006000
C          30.507000     -2.461000    -14.351000
C          32.539000     -3.104000    -13.424000
S          29.653000     -1.672000    -15.682000
C          31.825000     -2.750000    -14.542000
C          33.962000     -3.132000    -13.317000
C          31.165000     -1.748000    -16.601000
C          32.243000     -2.366000    -15.884000
N          34.431000     -3.034000    -12.107000
S          35.090000     -3.572000    -14.590000
C          35.802000     -3.084000    -12.208000
C          36.343000     -3.244000    -13.509000
C          21.026000      0.501000    -10.073000
H          22.526000     -1.382000     -8.704000
H          24.834000     -2.130000     -9.244000
H          24.500000      0.327000    -12.820000
H          25.888000     -1.352000    -13.663000
H          31.129000     -1.216000    -17.542000
H          33.264000     -2.412000    -16.247000
H          36.293000     -2.986000    -11.249000
H          37.367000     -3.253000    -13.859000
H          20.999000      1.291000     -9.313000
C          19.962000     -0.579000     -9.713000
H          20.713000      1.076000    -10.953000
H          20.235000     -1.253000     -8.892000
H          19.999000     -1.344000    -10.498000
C          18.534000      0.013000     -9.520000
H          18.531000      0.860000     -8.822000
C          17.405000     -1.075000     -9.101000
H          18.262000      0.333000    -10.533000
H          17.706000     -1.698000     -8.250000
H          17.271000     -1.801000     -9.913000
C          16.018000     -0.405000     -8.931000
H          15.890000      0.367000     -9.701000
C          15.846000      0.346000     -7.549000
H          15.250000     -1.181000     -8.829000
H          14.990000      1.031000     -7.585000
H          16.722000      0.942000     -7.265000
H          15.766000     -0.491000     -6.845000
C          20.702000      5.049000    -10.832000
C          21.482000      6.244000    -10.943000
N          20.932000      3.913000    -11.505000
C          22.684000      6.144000    -11.678000
C          22.109000      3.835000    -12.155000
C          23.006000      4.921000    -12.326000
C          24.373000      4.683000    -12.813000
C          24.982000      3.454000    -12.651000
C          25.162000      5.617000    -13.605000
N          26.215000      3.103000    -13.046000
N          24.803000      6.868000    -13.891000
C          26.370000      5.231000    -14.142000
C          26.932000      3.935000    -13.802000
S          25.963000      7.476000    -14.852000
N          26.981000      6.173000    -14.900000
C          28.233000      3.593000    -14.340000
S          29.084000      4.336000    -15.709000
C          28.948000      2.482000    -13.895000
C          30.407000      3.117000    -15.634000
S          28.679000      1.603000    -12.471000
C          30.165000      2.250000    -14.603000
C          31.526000      3.065000    -16.523000
C          30.318000      0.928000    -12.744000
C          30.964000      1.344000    -13.849000
N          32.187000      1.913000    -16.649000
S          32.087000      4.383000    -17.571000
C          33.201000      2.152000    -17.460000
C          33.395000      3.381000    -18.007000
C          19.343000      5.039000    -10.135000
H          21.292000      7.128000    -10.341000
H          23.386000      6.973000    -11.706000
H          22.435000      2.900000    -12.608000
H          24.546000      2.735000    -11.960000
H          30.634000      0.167000    -12.043000
H          31.947000      1.008000    -14.158000
H          33.889000      1.367000    -17.748000
H          34.200000      3.693000    -18.659000
H          18.975000      6.070000    -10.198000
C          19.387000      4.454000     -8.699000
H          18.604000      4.452000    -10.695000
H          19.937000      5.198000     -8.109000
H          20.096000      3.620000     -8.621000
C          17.951000      4.016000     -8.155000
H          17.275000      4.859000     -8.344000
C          17.914000      3.779000     -6.610000
H          17.517000      3.147000     -8.665000
H          16.879000      3.585000     -6.305000
H          18.258000      4.726000     -6.176000
C          18.947000      2.742000     -6.171000
H          18.877000      1.818000     -6.759000
C          18.774000      2.449000     -4.655000
H          19.935000      3.155000     -6.410000
H          18.792000      3.406000     -4.119000
H          19.594000      1.832000     -4.267000
H          17.775000      2.030000     -4.486000
$end

--------------------------------------------------------------

             Standard Nuclear Orientation (Angstroms)
    I     Atom           X                Y                Z
 ----------------------------------------------------------------
    1      C       4.3758247998     2.1062634429    -0.9028992794
    2      C       3.8947858318     3.3181953423    -0.4016103583
    3      N       3.5873921100     1.1644944001    -1.3381750124
    4      C       2.5043234746     3.5459476366    -0.2901593572
    5      C       2.2666756332     1.3726097648    -1.3323455203
    6      C       1.6479952554     2.5033862239    -0.7930745405
    7      C       0.1405351255     2.5656966173    -0.6373460212
    8      C      -0.7582334914     2.1248613727    -1.6044857528
    9      C      -0.4623758879     3.0341296168     0.5396666529
   10      N      -2.0952571074     2.2269926418    -1.5432807363
   11      N       0.1585640719     3.4726898846     1.6443093363
   12      C      -1.8766337520     3.0820606286     0.6602871810
   13      C      -2.6727300960     2.7173786755    -0.4251660350
   14      S      -1.0151191007     3.8336535957     2.7006965805
   15      N      -2.3394845944     3.5256236374     1.8519842713
   16      C      -4.1710818901     2.8530684556    -0.5147159366
   17      S      -5.1163583764     3.8605668705     0.6045701341
   18      C      -4.9586126396     2.1972492880    -1.4276242223
   19      C      -6.5700905692     3.1907691989    -0.0793441812
   20      S      -4.5264149900     0.8697839506    -2.5113395768
   21      C      -6.2781852062     2.3457699043    -1.1213631116
   22      C      -7.8124794442     3.2544389581     0.6203543575
   23      C      -6.2511335556     0.4775248942    -2.6005567399
   24      C      -7.0811294718     1.3559182009    -1.8274920741
   25      N      -7.7496186190     3.7508168765     1.8217379261
   26      S      -9.4081115675     3.0124782056    -0.0738546322
   27      C      -9.0296371549     3.7334122043     2.3253167432
   28      C     -10.0473647573     3.2381851379     1.4709967328
   29      C       5.8377393458     1.7634929456    -0.9642364332
   30      H       4.5988644230     4.0605761533    -0.0377119260
   31      H       2.1562212042     4.4326863739     0.2324659590
   32      H       1.6324159166     0.5537790541    -1.6690826272
   33      H      -0.3057588890     1.6016424705    -2.4447724387
   34      H      -6.4608165860    -0.4434508143    -3.1274701781
   35      H      -8.1462229369     1.2111843554    -1.6827370236
   36      H      -9.0823854682     4.1079782586     3.3388668833
   37      H     -11.1020198948     3.0673583579     1.6432690521
   38      H       6.3265853487     1.4409351225    -0.0371900287
   39      C       6.6917796549     2.8921037223    -1.6161174538
   40      H       5.9094385522     0.8369256158    -1.5467535636
   41      H       6.6115961566     3.8770385071    -1.1403863571
   42      H       6.1899280644     3.1805910899    -2.5476425580
   43      C       8.1777052913     2.4804876729    -1.8385904431
   44      H       8.6339119458     2.0778158992    -0.9251612280
   45      C       9.1108485944     3.6452619422    -2.4761565006
   46      H       8.1055356682     1.7121699658    -2.6177133130
   47      H       9.0282496166     4.5998719522    -1.9424635760
   48      H       8.7607563083     3.8880747538    -3.4875186166
   49      C      10.5684080632     3.1539077662    -2.6649962965
   50      H      10.5595670802     2.1066693796    -2.9943617451
   51      C      11.4163401560     3.1681303874    -1.3292126751
   52      H      11.1253534480     3.8889575573    -3.2582227650
   53      H      12.3219839898     2.5591161188    -1.4395207293
   54      H      10.8701715490     2.7765979424    -0.4622350530
   55      H      11.5722989952     4.2420991462    -1.1715645046
   56      C       6.8423290337    -2.5796573176     0.2577317948
   57      C       6.3636462623    -3.6856871870     1.0299407901
   58      N       6.1281691081    -1.9140956402    -0.6605972607
   59      C       4.9821173631    -3.9650403974     0.9384602744
   60      C       4.8063960424    -2.1712856935    -0.6867169712
   61      C       4.1757399359    -3.2120828730     0.0428446140
   62      C       2.7103952364    -3.2520294448     0.1597684482
   63      C       1.9544901644    -2.1039122282     0.0256029562
   64      C       1.9059387668    -4.4597967038     0.2873969588
   65      N       0.6196040019    -1.9992449232     0.1070811030
   66      N       2.3949759765    -5.6894646453     0.4437214962
   67      C       0.5315302901    -4.3930939470     0.2309958839
   68      C      -0.1289966928    -3.0997057097     0.1872812110
   69      S       1.1210723842    -6.6972568123     0.4613165505
   70      N      -0.0984282080    -5.5898006855     0.3103323368
   71      C      -1.5775398836    -3.0728035185     0.1900912765
   72      S      -2.7001657076    -4.3936204574    -0.1914383727
   73      C      -2.2944464978    -1.8917273374     0.3763034164
   74      C      -4.1278738456    -3.3027600772    -0.0748703502
   75      S      -1.7031462610    -0.4304787193     0.9991151905
   76      C      -3.7082561987    -2.0426673036     0.2557370185
   77      C      -5.4831386122    -3.6979785736    -0.3034436478
   78      C      -3.4273065601     0.0130997268     1.2158741010
   79      C      -4.3372900210    -0.8919402920     0.8106215065
   80      N      -6.3787147532    -2.7572220626    -0.6081099617
   81      S      -6.0960052325    -5.3636518414    -0.3121654826
   82      C      -7.5457351061    -3.3682597446    -0.6960556667
   83      C      -7.6575293792    -4.7100674772    -0.5107449838
   84      C       8.3259686945    -2.2210980691     0.2026080954
   85      H       6.9591767248    -4.1655739222     1.8013111223
   86      H       4.5243635592    -4.7100085295     1.5836834429
   87      H       4.1344646740    -1.5758038937    -1.3028497996
   88      H       2.4510188438    -1.1362916547     0.0669272365
   89      H      -3.6111126101     1.0156102666     1.5785943150
   90      H      -5.4116562117    -0.7564993181     0.8559980524
   91      H      -8.4464220945    -2.8272632745    -0.9579693325
   92      H      -8.5601441845    -5.3060604887    -0.5342363306
   93      H       8.8597020459    -3.1501956521     0.4355466944
   94      C       8.7058322754    -1.0139924259     1.0997461148
   95      H       8.6457589032    -1.9723869091    -0.8172776734
   96      H       8.6017672267    -1.3838182545     2.1276251555
   97      H       7.9152723592    -0.2529845236     1.1139936297
   98      C      10.1056844522    -0.3544951232     0.7055974235
   99      H      10.8262200663    -1.1774517502     0.6224300085
  100      C      10.6766728592     0.6017383027     1.8029364205
  101      H      10.1086131740     0.1624016434    -0.2620937231
  102      H      11.6792127688     0.9284298373     1.5028158267
  103      H      10.7427019361    -0.0194103567     2.7047764862
  104      C       9.6884155497     1.7123464763     2.1565972393
  105      H       9.3227424295     2.2363202599     1.2643222573
  106      C      10.3580228948     2.7047242360     3.1469741299
  107      H       8.8015948162     1.2264858224     2.5824169330
  108      H      10.7577858833     2.1271518427     3.9896298625
  109      H       9.6341347483     3.4251303723     3.5477657842
  110      H      11.2266561682     3.1620143765     2.6586249067
 ----------------------------------------------------------------

    9   -5663.5331893463      8.56E-06 Convergence criterion met
 Total energy in the final basis set = -5663.5331893463

                    Orbital Energies (a.u.)
 --------------------------------------------------------------

 Alpha MOs
 -- Occupied --
-88.988 -88.985 -88.928 -88.926 -88.921 -88.919 -88.905 -88.905
-14.387 -14.386 -14.379 -14.378 -14.346 -14.345 -14.344 -14.340
-14.328 -14.325 -10.270 -10.260 -10.259 -10.258 -10.253 -10.252
-10.251 -10.249 -10.238 -10.236 -10.235 -10.234 -10.230 -10.229
-10.229 -10.228 -10.227 -10.227 -10.224 -10.223 -10.223 -10.222
-10.222 -10.220 -10.219 -10.219 -10.219 -10.217 -10.214 -10.213
-10.209 -10.208 -10.206 -10.205 -10.203 -10.201 -10.197 -10.190
-10.185 -10.182 -10.182 -10.180 -10.180 -10.179 -10.179 -10.177
-10.176 -10.173 -10.172 -10.170  -8.044  -8.040  -7.989  -7.989
 -7.980  -7.978  -7.965  -7.964  -6.009  -6.005  -6.003  -6.002
 -6.000  -5.998  -5.953  -5.952  -5.949  -5.949  -5.946  -5.946
 -5.944  -5.942  -5.940  -5.939  -5.936  -5.935  -5.930  -5.929
 -5.926  -5.925  -5.922  -5.920  -1.046  -1.037  -0.983  -0.977
 -0.958  -0.956  -0.950  -0.935  -0.914  -0.909  -0.908  -0.900
 -0.840  -0.836  -0.830  -0.830  -0.818  -0.818  -0.806  -0.804
 -0.799  -0.795  -0.794  -0.791  -0.781  -0.778  -0.764  -0.764
 -0.747  -0.742  -0.736  -0.736  -0.720  -0.717  -0.709  -0.700
 -0.691  -0.686  -0.672  -0.668  -0.653  -0.648  -0.647  -0.642
 -0.633  -0.629  -0.626  -0.619  -0.611  -0.605  -0.602  -0.598
 -0.592  -0.586  -0.581  -0.581  -0.578  -0.575  -0.562  -0.561
 -0.552  -0.542  -0.538  -0.537  -0.526  -0.522  -0.520  -0.515
 -0.506  -0.501  -0.498  -0.494  -0.486  -0.486  -0.477  -0.472
 -0.467  -0.467  -0.466  -0.464  -0.463  -0.455  -0.450  -0.445
 -0.443  -0.440  -0.436  -0.435  -0.433  -0.431  -0.430  -0.427
 -0.427  -0.425  -0.418  -0.417  -0.416  -0.415  -0.412  -0.411
 -0.408  -0.407  -0.405  -0.398  -0.398  -0.393  -0.393  -0.393
 -0.391  -0.390  -0.388  -0.388  -0.386  -0.385  -0.381  -0.378
 -0.375  -0.373  -0.366  -0.366  -0.360  -0.355  -0.354  -0.353
 -0.352  -0.351  -0.349  -0.347  -0.346  -0.345  -0.342  -0.342
 -0.341  -0.335  -0.331  -0.329  -0.327  -0.326  -0.317  -0.316
 -0.310  -0.309  -0.307  -0.306  -0.305  -0.303  -0.302  -0.301
 -0.297  -0.295  -0.294  -0.294  -0.291  -0.288  -0.283  -0.281
 -0.272  -0.269  -0.267  -0.263  -0.253  -0.252  -0.250  -0.247
 -0.242  -0.239  -0.231  -0.228  -0.190  -0.188

          Ground-State Mulliken Net Atomic Charges

     Atom                 Charge (a.u.)
  ----------------------------------------
      1 C                     0.293272
      2 C                    -0.118199
      3 N                    -0.492657
      4 C                    -0.057867
      5 C                     0.068362
      6 C                     0.023273
      7 C                     0.049705
      8 C                     0.070654
      9 C                     0.243028
     10 N                    -0.529949
     11 N                    -0.559927
     12 C                     0.184320
     13 C                     0.298446
     14 S                     0.605915
     15 N                    -0.554200
     16 C                    -0.224750
     17 S                     0.346963
     18 C                    -0.109824
     19 C                    -0.241223
     20 S                     0.301331
     21 C                     0.144236
     22 C                     0.076594
     23 C                    -0.300121
     24 C                    -0.090915
     25 N                    -0.422552
     26 S                     0.281055
     27 C                     0.104226
     28 C                    -0.312503
     29 C                    -0.248685
     30 H                     0.092042
     31 H                     0.117709
     32 H                     0.114130
     33 H                     0.110899
     34 H                     0.140358
     35 H                     0.105964
     36 H                     0.107964
     37 H                     0.139800
     38 H                     0.114533
     39 C                    -0.198832
     40 H                     0.146135
     41 H                     0.086200
     42 H                     0.097565
     43 C                    -0.188322
     44 H                     0.107492
     45 C                    -0.183016
     46 H                     0.107627
     47 H                     0.086752
     48 H                     0.093182
     49 C                    -0.182226
     50 H                     0.097594
     51 C                    -0.328073
     52 H                     0.095786
     53 H                     0.100225
     54 H                     0.108717
     55 H                     0.100792
     56 C                     0.246641
     57 C                    -0.116207
     58 N                    -0.476773
     59 C                    -0.072808
     60 C                     0.072847
     61 C                     0.044324
     62 C                     0.052231
     63 C                     0.021042
     64 C                     0.228107
     65 N                    -0.545254
     66 N                    -0.554757
     67 C                     0.208193
     68 C                     0.320622
     69 S                     0.591365
     70 N                    -0.577206
     71 C                    -0.200594
     72 S                     0.322265
     73 C                    -0.128176
     74 C                    -0.243736
     75 S                     0.278654
     76 C                     0.167793
     77 C                     0.036060
     78 C                    -0.322183
     79 C                    -0.037339
     80 N                    -0.416115
     81 S                     0.275033
     82 C                     0.126923
     83 C                    -0.298991
     84 C                    -0.223583
     85 H                     0.096662
     86 H                     0.114499
     87 H                     0.125716
     88 H                     0.127514
     89 H                     0.138749
     90 H                     0.126386
     91 H                     0.097284
     92 H                     0.136267
     93 H                     0.092272
     94 C                    -0.186311
     95 H                     0.119437
     96 H                     0.090152
     97 H                     0.114183
     98 C                    -0.196530
     99 H                     0.090649
    100 C                    -0.174001
    101 H                     0.104278
    102 H                     0.090370
    103 H                     0.093203
    104 C                    -0.181396
    105 H                     0.098836
    106 C                    -0.319090
    107 H                     0.096315
    108 H                     0.101106
    109 H                     0.098299
    110 H                     0.107766
  ----------------------------------------
  Sum of atomic charges =     0.000000

                    Cartesian Multipole Moments
 -----------------------------------------------------------------
    Charge (ESU x 10^10)
                 0.0000
    Dipole Moment (Debye)
         X      -2.5815      Y      -1.3722      Z       2.0018
       Tot       3.5432
    Quadrupole Moments (Debye-Ang)
        XX    -382.4731     XY      14.5591     YY    -424.7416
        XZ       7.3359     YZ       2.0807     ZZ    -447.6826

 Total job time:  97.46s(wall), 1096.79s(cpu)
        *  Thank you very much for using Q-Chem.  Have a nice day.  *
