 Q-Chem 4.4, Q-Chem, Inc., Pleasanton, CA (2016)
 Q-Chem 4.4.2 for Intel X86 Linux

User input:
--------------------------------------------------------------
$comment
SP
$end

$rem
MEM_STATIC 5000
MEM_TOTAL 20000
JOBTYPE SP
EXCHANGE B3LYP
BASIS 6-31g(d,p)
$end

$molecule
0 1
C          32.212000      5.247000    -11.761000
C          30.940000      4.979000    -12.231000
N          32.446000      6.218000    -10.885000
C          29.856000      5.789000    -11.844000
C          31.462000      7.049000    -10.499000
C          30.144000      6.863000    -10.887000
C          29.077000      7.843000    -10.516000
C          27.950000      7.943000    -11.398000
C          28.947000      8.572000     -9.326000
N          26.858000      8.714000    -11.207000
N          29.892000      8.642000     -8.439000
C          27.836000      9.400000     -9.078000
C          26.718000      9.370000    -10.030000
S          29.314000      9.658000     -7.260000
N          27.884000     10.140000     -7.872000
C          25.325000      9.875000     -9.952000
S          24.233000      9.718000    -11.354000
C          24.586000     10.122000     -8.801000
C          22.843000     10.191000    -10.332000
S          25.075000     10.330000     -7.158000
C          23.238000     10.361000     -9.044000
C          21.485000     10.331000    -10.837000
C          23.407000     10.832000     -6.805000
C          22.535000     10.748000     -7.865000
N          20.425000     10.546000    -10.092000
S          21.041000      9.890000    -12.512000
C          19.252000     10.511000    -10.788000
C          19.413000     10.306000    -12.128000
C          33.399000      4.452000    -12.243000
H          30.782000      4.202000    -12.972000
H          28.886000      5.607000    -12.296000
H          31.796000      7.902000     -9.910000
H          27.874000      7.396000    -12.336000
H          23.147000     11.110000     -5.792000
H          21.481000     10.994000     -7.821000
H          18.335000     10.744000    -10.263000
H          18.652000     10.157000    -12.882000
H          34.114000      4.433000    -11.411000
C          34.073000      4.862000    -13.593000
H          33.121000      3.431000    -12.531000
H          34.466000      5.881000    -13.490000
H          33.293000      4.897000    -14.363000
C          35.195000      3.898000    -13.935000
H          35.897000      3.739000    -13.107000
C          35.929000      4.340000    -15.182000
H          34.907000      2.860000    -14.141000
H          36.291000      5.358000    -14.992000
H          35.303000      4.368000    -16.082000
C          37.136000      3.494000    -15.580000
H          37.578000      3.061000    -14.674000
C          38.118000      4.294000    -16.442000
H          36.783000      2.642000    -16.173000
H          37.690000      4.815000    -17.307000
H          38.870000      3.638000    -16.896000
H          38.779000      4.939000    -15.850000
C          20.702000      5.049000    -10.832000
C          21.482000      6.244000    -10.943000
N          20.932000      3.913000    -11.505000
C          22.684000      6.144000    -11.678000
C          22.109000      3.835000    -12.155000
C          23.006000      4.921000    -12.326000
C          24.373000      4.683000    -12.813000
C          24.982000      3.454000    -12.651000
C          25.162000      5.617000    -13.605000
N          26.215000      3.103000    -13.046000
N          24.803000      6.868000    -13.891000
C          26.370000      5.231000    -14.142000
C          26.932000      3.935000    -13.802000
S          25.963000      7.476000    -14.852000
N          26.981000      6.173000    -14.900000
C          28.233000      3.593000    -14.340000
S          29.084000      4.336000    -15.709000
C          28.948000      2.482000    -13.895000
C          30.407000      3.117000    -15.634000
S          28.679000      1.603000    -12.471000
C          30.165000      2.250000    -14.603000
C          31.526000      3.065000    -16.523000
C          30.318000      0.928000    -12.744000
C          30.964000      1.344000    -13.849000
N          32.187000      1.913000    -16.649000
S          32.087000      4.383000    -17.571000
C          33.201000      2.152000    -17.460000
C          33.395000      3.381000    -18.007000
C          19.343000      5.039000    -10.135000
H          21.292000      7.128000    -10.341000
H          23.386000      6.973000    -11.706000
H          22.435000      2.900000    -12.608000
H          24.546000      2.735000    -11.960000
H          30.634000      0.167000    -12.043000
H          31.947000      1.008000    -14.158000
H          33.889000      1.367000    -17.748000
H          34.200000      3.693000    -18.659000
H          18.975000      6.070000    -10.198000
C          19.387000      4.454000     -8.699000
H          18.604000      4.452000    -10.695000
H          19.937000      5.198000     -8.109000
H          20.096000      3.620000     -8.621000
C          17.951000      4.016000     -8.155000
H          17.275000      4.859000     -8.344000
C          17.914000      3.779000     -6.610000
H          17.517000      3.147000     -8.665000
H          16.879000      3.585000     -6.305000
H          18.258000      4.726000     -6.176000
C          18.947000      2.742000     -6.171000
H          18.877000      1.818000     -6.759000
C          18.774000      2.449000     -4.655000
H          19.935000      3.155000     -6.410000
H          18.792000      3.406000     -4.119000
H          19.594000      1.832000     -4.267000
H          17.775000      2.030000     -4.486000
$end

--------------------------------------------------------------

             Standard Nuclear Orientation (Angstroms)
    I     Atom           X                Y                Z
 ----------------------------------------------------------------
    1      C       4.8332808993    -1.7384786792    -1.8058443971
    2      C       4.0023343803    -0.7752544694    -1.2650717978
    3      N       4.4054854430    -2.9696133465    -2.0632768712
    4      C       2.6830977299    -1.1015838886    -0.8989450843
    5      C       3.1676234947    -3.3566569628    -1.7087235806
    6      C       2.2402230555    -2.4715063222    -1.1808024038
    7      C       0.8968786551    -2.9360448020    -0.7158724922
    8      C       0.2668302617    -2.1710980685     0.3214068900
    9      C       0.0861762666    -3.9350617404    -1.2719010835
   10      N      -0.9660836967    -2.3852229037     0.8288117836
   11      N       0.5109453483    -4.7585663093    -2.1808045174
   12      C      -1.2025502001    -4.2091904197    -0.7764754472
   13      C      -1.7603782351    -3.3158676604     0.2472092362
   14      S      -0.7599633021    -5.7865956554    -2.4711971235
   15      N      -1.8688422080    -5.3020257342    -1.3815423325
   16      C      -3.1348487006    -3.1380970476     0.7771021959
   17      S      -3.4460274435    -1.9765768027     2.0949623974
   18      C      -4.3271223039    -3.4642181948     0.1414453293
   19      C      -5.2080706802    -2.1463546991     1.8367142653
   20      S      -4.6535171101    -4.4953808903    -1.2046616226
   21      C      -5.4557101802    -2.9654613827     0.7823860815
   22      C      -6.2080997773    -1.4601463172     2.6416048551
   23      C      -6.3814491702    -4.3020576149    -0.8362679379
   24      C      -6.6661820479    -3.4313491541     0.1893216314
   25      N      -7.4982286796    -1.4586502219     2.3958098651
   26      S      -5.7667465895    -0.2484813216     3.8802804793
   27      C      -8.2104727381    -0.6378811050     3.2208046881
   28      C      -7.4500789910    -0.0157408852     4.1685857262
   29      C       6.2778047961    -1.4323100428    -2.1106877627
   30      H       4.3868874515     0.2127546332    -1.0332724262
   31      H       2.0829690244    -0.3481973437    -0.3983631721
   32      H       2.9792835851    -4.4237787684    -1.8176507606
   33      H       0.7439212900    -1.3270433426     0.8161641744
   34      H      -7.1090087473    -4.8104217521    -1.4553607951
   35      H      -7.6633221257    -3.1812367499     0.5306769456
   36      H      -9.2886847448    -0.6273772093     3.1305188260
   37      H      -7.7505307014     0.7377178534     4.8840343260
   38      H       6.5505296019    -2.0607910283    -2.9676841636
   39      C       7.3216836490    -1.5285233791    -0.9505429724
   40      H       6.4325364172    -0.3731584501    -2.3492774293
   41      H       7.3452043502    -2.5639703553    -0.5889972129
   42      H       6.9622000572    -0.9086499254    -0.1204505387
   43      C       8.6961087791    -1.1126090349    -1.4436097226
   44      H       8.9968083009    -1.6209437296    -2.3681878078
   45      C       9.7398491123    -1.3017120659    -0.3647329175
   46      H       8.8121033247    -0.0676532867    -1.7557583246
   47      H       9.7000477942    -2.3569409689    -0.0674522127
   48      H       9.5704938129    -0.6930108177     0.5316272629
   49      C      11.1798832388    -0.9963821477    -0.7697568127
   50      H      11.2959911545    -1.1997591213    -1.8415990392
   51      C      12.1797267234    -1.7352955416     0.1256135031
   52      H      11.3531937688     0.0799051106    -0.6525766195
   53      H      12.0348246896    -1.6251808726     1.2071532205
   54      H      13.1985125159    -1.3599792121    -0.0266006943
   55      H      12.3290225470    -2.7804553010    -0.1723157410
   56      C      -5.4717940926     3.1406107819     0.0332478906
   57      C      -5.0699949755     1.8766650430     0.5715272221
   58      N      -4.6837551825     4.2197051435    -0.0710355452
   59      C      -3.6919788506     1.7158078286     0.8365281957
   60      C      -3.3691886991     4.0186674000     0.1420648690
   61      C      -2.8115143102     2.8145138566     0.6443193062
   62      C      -1.3583875077     2.5942347124     0.5953132412
   63      C      -0.5699682904     3.2517619560    -0.3286018316
   64      C      -0.5911505043     1.8050209470     1.5495826020
   65      N       0.7585762754     3.1455011928    -0.4808942707
   66      N      -1.1166321016     1.0681689138     2.5276399480
   67      C       0.7851150585     1.7939721772     1.5005925480
   68      C       1.4756178518     2.4561150898     0.4070512110
   69      S       0.1306327915     0.4443540763     3.3606887670
   70      N       1.3817265503     1.0635606742     2.4731164625
   71      C       2.9210298360     2.3689093291     0.3602713939
   72      S       4.0368932761     1.9336124684     1.6701478866
   73      C       3.6500450106     2.7729802147    -0.7572412882
   74      C       5.4775860432     2.3018892414     0.6549180757
   75      S       3.0513331990     3.0390519848    -2.3204200943
   76      C       5.0650394381     2.7012339769    -0.5874760167
   77      C       6.8359172267     2.1997102221     1.0904428673
   78      C       4.7667534750     2.9664364577    -2.8386239746
   79      C       5.6812906509     2.7812096801    -1.8687220235
   80      N       7.7703651805     2.8857024078     0.4300469688
   81      S       7.4109104391     1.3026557852     2.5098882319
   82      C       8.9268045787     2.5646618219     0.9801550130
   83      C       8.9962765899     1.7040549334     2.0298289734
   84      C      -6.9401983416     3.4744615197    -0.2219435012
   85      H      -5.7258360083     1.0109634311     0.5913579750
   86      H      -3.2946317521     0.7485766431     1.1321768339
   87      H      -2.6448570254     4.8066611982    -0.0582334096
   88      H      -1.0465549334     3.7515384758    -1.1698072773
   89      H       4.9483125046     3.1638534573    -3.8866892622
   90      H       6.7530274824     2.7394304568    -2.0246087147
   91      H       9.8546489056     3.0067999282     0.6393738515
   92      H       9.8850191659     1.3538702324     2.5377465936
   93      H      -7.5086760328     2.8310041806     0.4600753895
   94      C      -7.3518088374     3.3605726239    -1.7132057582
   95      H      -7.1860989064     4.4947323243     0.0987906526
   96      H      -7.3243226251     2.2854615835    -1.9311891496
   97      H      -6.5472431769     3.6886877311    -2.3835307349
   98      C      -8.7074862322     4.1336648161    -2.0513525658
   99      H      -9.4390056624     3.8274586747    -1.2934191108
  100      C      -9.3285875930     3.7321573145    -3.4288821755
  101      H      -8.6348094238     5.2267330576    -1.9918807140
  102      H     -10.3015389168     4.2256157377    -3.5372819270
  103      H      -9.4680023218     2.6459449131    -3.3640196094
  104      C      -8.3415457213     3.9384497614    -4.5770854544
  105      H      -7.9060093236     4.9457496308    -4.5684240822
  106      C      -9.0531344132     3.6535917412    -5.9285777562
  107      H      -7.4958921506     3.2632565964    -4.3959274339
  108      H      -9.5205780333     2.6631652220    -5.8651681967
  109      H      -8.3415953872     3.6356170037    -6.7634562643
  110      H      -9.8771348596     4.3660662068    -6.0531827323
 ----------------------------------------------------------------

   10   -5663.5484557928      4.40E-06 Convergence criterion met
 Total energy in the final basis set = -5663.5484557928

                    Orbital Energies (a.u.)
 --------------------------------------------------------------

 Alpha MOs
 -- Occupied --
-88.990 -88.990 -88.934 -88.930 -88.927 -88.922 -88.913 -88.913
-14.403 -14.391 -14.384 -14.383 -14.351 -14.351 -14.350 -14.343
-14.330 -14.318 -10.276 -10.273 -10.271 -10.271 -10.266 -10.257
-10.257 -10.255 -10.247 -10.246 -10.243 -10.242 -10.239 -10.235
-10.232 -10.232 -10.231 -10.231 -10.229 -10.229 -10.227 -10.227
-10.226 -10.225 -10.225 -10.225 -10.219 -10.217 -10.216 -10.215
-10.213 -10.212 -10.210 -10.208 -10.202 -10.201 -10.199 -10.190
-10.183 -10.181 -10.181 -10.180 -10.178 -10.177 -10.175 -10.175
-10.174 -10.174 -10.171 -10.169  -8.046  -8.045  -7.995  -7.988
 -7.984  -7.984  -7.974  -7.973  -6.011  -6.011  -6.005  -6.005
 -6.004  -6.003  -5.959  -5.955  -5.953  -5.952  -5.949  -5.949
 -5.947  -5.945  -5.945  -5.944  -5.941  -5.941  -5.938  -5.938
 -5.935  -5.934  -5.930  -5.929  -1.042  -1.041  -0.989  -0.973
 -0.964  -0.957  -0.939  -0.935  -0.918  -0.918  -0.913  -0.907
 -0.849  -0.847  -0.836  -0.827  -0.824  -0.813  -0.809  -0.807
 -0.804  -0.800  -0.797  -0.792  -0.784  -0.782  -0.768  -0.764
 -0.754  -0.752  -0.745  -0.739  -0.727  -0.726  -0.713  -0.711
 -0.695  -0.695  -0.678  -0.674  -0.657  -0.652  -0.647  -0.642
 -0.638  -0.637  -0.624  -0.621  -0.611  -0.609  -0.602  -0.596
 -0.593  -0.593  -0.587  -0.584  -0.583  -0.578  -0.572  -0.559
 -0.559  -0.555  -0.544  -0.544  -0.528  -0.522  -0.521  -0.514
 -0.505  -0.505  -0.503  -0.501  -0.491  -0.481  -0.479  -0.477
 -0.474  -0.472  -0.467  -0.466  -0.464  -0.461  -0.452  -0.449
 -0.446  -0.442  -0.437  -0.437  -0.435  -0.434  -0.433  -0.432
 -0.429  -0.428  -0.426  -0.422  -0.420  -0.420  -0.416  -0.415
 -0.414  -0.413  -0.405  -0.403  -0.401  -0.400  -0.398  -0.396
 -0.395  -0.393  -0.392  -0.391  -0.390  -0.389  -0.388  -0.387
 -0.378  -0.372  -0.372  -0.370  -0.369  -0.365  -0.361  -0.360
 -0.355  -0.355  -0.353  -0.350  -0.350  -0.348  -0.343  -0.342
 -0.340  -0.338  -0.337  -0.334  -0.330  -0.328  -0.323  -0.318
 -0.316  -0.315  -0.313  -0.312  -0.309  -0.306  -0.304  -0.303
 -0.301  -0.300  -0.298  -0.296  -0.291  -0.284  -0.282  -0.280
 -0.278  -0.275  -0.271  -0.267  -0.259  -0.257  -0.254  -0.248
 -0.247  -0.241  -0.235  -0.232  -0.198  -0.193

          Ground-State Mulliken Net Atomic Charges

     Atom                 Charge (a.u.)
  ----------------------------------------
      1 C                     0.285680
      2 C                    -0.102224
      3 N                    -0.497985
      4 C                    -0.069538
      5 C                     0.076919
      6 C                     0.021462
      7 C                     0.050881
      8 C                     0.047536
      9 C                     0.251020
     10 N                    -0.524094
     11 N                    -0.548870
     12 C                     0.168293
     13 C                     0.295185
     14 S                     0.606640
     15 N                    -0.525739
     16 C                    -0.238334
     17 S                     0.321587
     18 C                    -0.128237
     19 C                    -0.244894
     20 S                     0.292370
     21 C                     0.164951
     22 C                     0.064626
     23 C                    -0.317613
     24 C                    -0.041288
     25 N                    -0.446370
     26 S                     0.255525
     27 C                     0.121313
     28 C                    -0.305714
     29 C                    -0.231672
     30 H                     0.089981
     31 H                     0.101623
     32 H                     0.121226
     33 H                     0.104738
     34 H                     0.127104
     35 H                     0.132482
     36 H                     0.116342
     37 H                     0.136205
     38 H                     0.111879
     39 C                    -0.180667
     40 H                     0.100224
     41 H                     0.105889
     42 H                     0.102822
     43 C                    -0.177988
     44 H                     0.094656
     45 C                    -0.169430
     46 H                     0.089556
     47 H                     0.090322
     48 H                     0.093062
     49 C                    -0.180431
     50 H                     0.091565
     51 C                    -0.323374
     52 H                     0.088260
     53 H                     0.100286
     54 H                     0.094146
     55 H                     0.107505
     56 C                     0.244126
     57 C                    -0.119504
     58 N                    -0.467561
     59 C                    -0.081009
     60 C                     0.070173
     61 C                     0.045299
     62 C                     0.058208
     63 C                     0.026502
     64 C                     0.230673
     65 N                    -0.535467
     66 N                    -0.549273
     67 C                     0.208828
     68 C                     0.313598
     69 S                     0.618907
     70 N                    -0.590668
     71 C                    -0.203467
     72 S                     0.321455
     73 C                    -0.127558
     74 C                    -0.242055
     75 S                     0.290460
     76 C                     0.152239
     77 C                     0.036815
     78 C                    -0.303878
     79 C                    -0.046191
     80 N                    -0.415648
     81 S                     0.281292
     82 C                     0.130113
     83 C                    -0.297940
     84 C                    -0.224513
     85 H                     0.111557
     86 H                     0.138049
     87 H                     0.100579
     88 H                     0.114565
     89 H                     0.125721
     90 H                     0.126035
     91 H                     0.103735
     92 H                     0.141156
     93 H                     0.093877
     94 C                    -0.181091
     95 H                     0.118494
     96 H                     0.091742
     97 H                     0.112181
     98 C                    -0.189454
     99 H                     0.089019
    100 C                    -0.173803
    101 H                     0.100057
    102 H                     0.086966
    103 H                     0.093489
    104 C                    -0.171951
    105 H                     0.092155
    106 C                    -0.317042
    107 H                     0.097716
    108 H                     0.100003
    109 H                     0.098462
    110 H                     0.104429
  ----------------------------------------
  Sum of atomic charges =     0.000000

                    Cartesian Multipole Moments
 -----------------------------------------------------------------
    Charge (ESU x 10^10)
                 0.0000
    Dipole Moment (Debye)
         X       0.1402      Y      -0.5204      Z       1.4212
       Tot       1.5200
    Quadrupole Moments (Debye-Ang)
        XX    -392.1380     XY      11.4383     YY    -461.9829
        XZ       4.6575     YZ       5.6562     ZZ    -434.7197

 Total job time:  104.06s(wall), 1152.21s(cpu)
        *  Thank you very much for using Q-Chem.  Have a nice day.  *
