 Q-Chem 4.4, Q-Chem, Inc., Pleasanton, CA (2016)
 Q-Chem 4.4.2 for Intel X86 Linux

User input:
--------------------------------------------------------------
$comment
SP
$end

$rem
MEM_STATIC 5000
MEM_TOTAL 20000
JOBTYPE SP
EXCHANGE B3LYP
BASIS 6-31g(d,p)
$end

$molecule
0 1
C          27.968000     26.070000      3.404000
C          27.382000     24.860000      3.807000
N          27.170000     27.183000      3.227000
C          26.070000     24.830000      4.268000
C          25.839000     27.162000      3.600000
C          25.258000     26.034000      4.285000
C          23.879000     26.000000      4.854000
C          23.521000     25.086000      5.850000
C          22.863000     26.880000      4.396000
N          22.353000     24.982000      6.376000
N          22.961000     27.736000      3.350000
C          21.578000     26.754000      4.951000
C          21.316000     25.793000      5.931000
S          21.516000     28.428000      3.187000
N          20.703000     27.663000      4.371000
C          19.975000     25.470000      6.325000
S          18.526000     25.930000      5.492000
C          19.662000     24.664000      7.380000
C          17.510000     25.168000      6.783000
S          20.671000     24.092000      8.700000
C          18.282000     24.444000      7.655000
C          16.084000     25.308000      6.811000
C          19.249000     23.355000      9.485000
C          18.063000     23.707000      8.843000
N          15.442000     24.843000      7.879000
S          15.135000     26.134000      5.485000
C          14.090000     25.035000      7.688000
C          13.794000     25.644000      6.448000
C          29.411000     26.301000      3.006000
H          28.033000     23.992000      3.868000
H          25.720000     23.827000      4.493000
H          25.320000     28.117000      3.546000
H          24.299000     24.409000      6.201000
H          19.384000     22.761000     10.379000
H          17.082000     23.379000      9.167000
H          13.404000     24.706000      8.457000
H          12.788000     25.832000      6.096000
H          29.801000     25.689000      2.183000
C          30.470000     26.283000      4.175000
H          29.402000     27.318000      2.595000
H          30.303000     25.274000      4.572000
H          30.253000     27.019000      4.959000
C          31.923000     26.424000      3.733000
H          32.366000     25.633000      3.115000
C          32.829000     26.532000      4.950000
H          31.938000     27.329000      3.114000
H          33.017000     25.506000      5.291000
H          32.406000     27.085000      5.797000
C          34.214000     27.020000      4.565000
H          34.621000     26.330000      3.816000
C          35.100000     27.073000      5.839000
H          34.256000     27.995000      4.066000
H          35.299000     26.040000      6.149000
H          34.648000     27.726000      6.595000
H          36.043000     27.551000      5.545000
C          24.378000     22.375000      0.201000
C          24.391000     23.409000      1.163000
N          23.167000     22.018000     -0.319000
C          23.235000     24.129000      1.378000
C          22.007000     22.643000      0.019000
C          21.995000     23.653000      0.985000
C          20.653000     24.218000      1.429000
C          20.449000     25.589000      1.517000
C          19.482000     23.455000      1.668000
N          19.254000     26.244000      1.721000
N          19.493000     22.082000      1.805000
C          18.264000     24.041000      1.857000
C          18.188000     25.442000      1.838000
S          17.946000     21.619000      2.191000
N          17.258000     23.152000      2.070000
C          16.904000     26.100000      2.003000
S          15.311000     25.361000      1.590000
C          16.747000     27.389000      2.476000
C          14.546000     26.952000      1.940000
S          17.948000     28.560000      2.938000
C          15.446000     27.874000      2.400000
C          13.150000     27.147000      1.850000
C          16.567000     29.625000      3.447000
C          15.401000     29.174000      2.931000
N          12.661000     28.328000      1.761000
S          11.945000     25.878000      1.947000
C          11.340000     28.336000      1.827000
C          10.772000     27.108000      1.674000
C          25.606000     21.630000     -0.204000
H          25.338000     23.785000      1.537000
H          23.321000     25.044000      1.956000
H          21.094000     22.202000     -0.380000
H          21.309000     26.202000      1.255000
H          16.756000     30.583000      3.913000
H          14.488000     29.759000      2.913000
H          10.862000     29.300000      1.710000
H           9.715000     26.924000      1.528000
H          26.280000     22.248000     -0.811000
C          25.305000     20.401000     -1.099000
H          26.008000     21.346000      0.777000
H          24.803000     20.729000     -2.018000
H          24.504000     19.830000     -0.613000
C          26.492000     19.379000     -1.485000
H          27.386000     19.963000     -1.735000
C          26.184000     18.381000     -2.621000
H          26.641000     18.730000     -0.614000
H          25.661000     17.554000     -2.125000
H          27.042000     17.820000     -3.013000
C          25.520000     18.881000     -3.885000
H          24.574000     19.381000     -3.645000
C          25.352000     17.850000     -4.953000
H          26.017000     19.777000     -4.276000
H          26.333000     17.504000     -5.301000
H          24.875000     18.269000     -5.848000
H          24.725000     17.043000     -4.554000
$end

--------------------------------------------------------------

             Standard Nuclear Orientation (Angstroms)
    I     Atom           X                Y                Z
 ----------------------------------------------------------------
    1      C      -6.8775829872     1.7346572116     1.0742270099
    2      C      -6.4232900477     1.2755757412    -0.1718737600
    3      N      -5.9582391211     2.1093977160     2.0340595006
    4      C      -5.0902395836     1.4297516004    -0.5378946126
    5      C      -4.6133124443     2.1950270221     1.7258860819
    6      C      -4.1271799805     2.0106994177     0.3809442386
    7      C      -2.7186363276     2.2393018189    -0.0552939077
    8      C      -2.3955792985     2.4619694786    -1.3975417496
    9      C      -1.6409273278     2.2210494234     0.8691681856
   10      N      -1.2085190473     2.6479055827    -1.8536466995
   11      N      -1.7197030561     1.8853084250     2.1797132503
   12      C      -0.3386714587     2.3999005516     0.3719077656
   13      C      -0.1180729038     2.5973308388    -0.9937139094
   14      S      -0.2165843806     1.9313274433     2.7558855314
   15      N       0.5925585532     2.3215573101     1.3990294728
   16      C       1.1984726395     2.5250636610    -1.5588079610
   17      S       2.6132225395     1.8981666485    -0.7774163459
   18      C       1.4969000589     2.8640250559    -2.8459273215
   19      C       3.6329109261     2.3453433227    -2.2056493859
   20      S       0.5461360663     3.7516412967    -4.0273883828
   21      C       2.8547207184     2.7491539908    -3.2601165237
   22      C       5.0613638832     2.2312489830    -2.1865540681
   23      C       1.9234043139     3.7441791717    -5.1607702650
   24      C       3.0817614970     3.2490403875    -4.5643557944
   25      N       5.7310242318     2.7262695624    -3.2236281463
   26      S       5.9861563247     1.4936674196    -0.7930385938
   27      C       7.0732805948     2.4770247224    -3.0300464695
   28      C       7.3326743119     1.7834961714    -1.8267883724
   29      C      -8.3073939786     1.7664379426     1.5728696815
   30      H      -7.1756122889     0.9256881266    -0.8736827814
   31      H      -4.8576337266     0.9820947775    -1.4994724224
   32      H      -3.9790396462     2.6205477660     2.5010841947
   33      H      -3.2212244358     2.4743749092    -2.1081543110
   34      H       1.7931550577     4.1433691372    -6.1577554718
   35      H       4.0359523914     3.1723416004    -5.0728418150
   36      H       7.7770307619     2.8027562941    -3.7842564175
   37      H       8.3181785243     1.4550294980    -1.5231848612
   38      H      -8.8491706087     0.8123076499     1.5821684799
   39      C      -9.2476506096     2.8580036089     0.9303995544
   40      H      -8.2009151655     2.0178214286     2.6353006700
   41      H      -9.1806621509     2.5731664776    -0.1269364163
   42      H      -8.8636815517     3.8782145421     1.0536002621
   43      C     -10.7033388164     2.8042576015     1.3826574578
   44      H     -11.3024291078     1.9204656487     1.1299588093
   45      C     -11.4714414111     3.9834681368     0.8055353586
   46      H     -10.6545220950     2.8276394839     2.4778657554
   47      H     -11.7621856151     3.6978203484    -0.2133729537
   48      H     -10.9027460854     4.9180404315     0.7326844671
   49      C     -12.8086328658     4.1643427106     1.5010908217
   50      H     -13.3707753263     3.2275985471     1.4048815376
   51      C     -13.5590870228     5.3548255108     0.8450037385
   52      H     -12.7661425977     4.3285678567     2.5839641654
   53      H     -13.8644612298     5.0418871229    -0.1607826001
   54      H     -12.9568160935     6.2691275967     0.9047567591
   55      H     -14.4530707926     5.5359498387     1.4550496360
   56      C      -4.1200967709    -3.5092470035    -0.2288740416
   57      C      -3.9071352273    -2.1398143631     0.0432851479
   58      N      -3.0201983561    -4.3168026226    -0.2783452371
   59      C      -2.6508234472    -1.7295583629     0.4361359154
   60      C      -1.7612956342    -3.8626756815    -0.0346206832
   61      C      -1.5264885291    -2.5075977242     0.2144362441
   62      C      -0.0862371574    -2.0302805855     0.3376000999
   63      C       0.3055410678    -1.2038742145     1.3828576434
   64      C       0.9897914387    -2.4538768565    -0.4829239154
   65      N       1.5906842862    -0.8456985394     1.7275068766
   66      N       0.8088479214    -3.1297210301    -1.6722569623
   67      C       2.2870773475    -2.1508613513    -0.1864920102
   68      C       2.5467145835    -1.3738783719     0.9527287566
   69      S       2.3093279886    -3.3200938234    -2.3570136837
   70      N       3.1811274534    -2.6425718676    -1.0846129243
   71      C       3.9165102119    -1.0589080352     1.3178295963
   72      S       5.3523841990    -2.0576474379     0.8761006082
   73      C       4.2863097553     0.0374369076     2.0735908445
   74      C       6.3510879519    -0.9795160741     1.9149603564
   75      S       3.2992486831     1.2638343257     2.8143646377
   76      C       5.6277627296     0.0566111456     2.4392932729
   77      C       7.7464289438    -1.1524521833     2.0493389943
   78      C       4.8504656617     2.0744074381     3.3013596220
   79      C       5.8938172607     1.2229839281     3.1760262766
   80      N       8.3779511424    -0.6208645741     3.0293376303
   81      S       8.7756719398    -1.9858205596     0.9013185221
   82      C       9.6887090272    -0.7641389884     2.9251876917
   83      C      10.0718474031    -1.6782612532     1.9915911675
   84      C      -5.4682150478    -4.0757989237    -0.5265820081
   85      H      -4.7573665519    -1.4790190509     0.1793632507
   86      H      -2.5609540747    -0.7263280751     0.8412994446
   87      H      -0.9555576270    -4.5757117399    -0.2067161311
   88      H      -0.4856389934    -0.9321675713     2.0787187006
   89      H       4.8341363295     3.0278458115     3.8125637113
   90      H       6.8709921783     1.4052416811     3.6096497215
   91      H      10.2779395371    -0.3779170623     3.7468378787
   92      H      11.0770876661    -2.0621430478     1.8709769837
   93      H      -6.1068177912    -4.1071672307     0.3655231232
   94      C      -5.4167574361    -5.5470118574    -1.0113000888
   95      H      -5.8127357449    -3.3881068967    -1.3095291106
   96      H      -4.9620107917    -6.1747769720    -0.2345984406
   97      H      -4.6576692951    -5.6053759547    -1.8013740260
   98      C      -6.7595218585    -6.2634422190    -1.5462395647
   99      H      -7.5870124098    -5.9935445369    -0.8790015047
  100      C      -6.6925303144    -7.7971311956    -1.7033199781
  101      H      -6.9130134954    -5.9121887063    -2.5734222589
  102      H      -6.2409279794    -7.9520344992    -2.6910113760
  103      H      -7.6498405822    -8.3039419071    -1.8800937144
  104      C      -6.0866745115    -8.6285021042    -0.5941071228
  105      H      -5.0645771801    -8.2924040870    -0.3822789660
  106      C      -6.1559962485   -10.1051009760    -0.8101146889
  107      H      -6.4938086374    -8.3534643472     0.3863529914
  108      H      -7.2020524061   -10.4344302202    -0.8322453013
  109      H      -5.7116138109   -10.6575360161     0.0274142811
  110      H      -5.6079968528   -10.3424144556    -1.7304178861
 ----------------------------------------------------------------

   10   -5663.5081576081      3.98E-06 Convergence criterion met
 Total energy in the final basis set = -5663.5081576081

                    Orbital Energies (a.u.)
 --------------------------------------------------------------

 Alpha MOs
 -- Occupied --
-88.992 -88.991 -88.929 -88.928 -88.927 -88.921 -88.907 -88.905
-14.388 -14.383 -14.382 -14.377 -14.358 -14.346 -14.345 -14.336
-14.330 -14.321 -10.268 -10.263 -10.261 -10.259 -10.254 -10.253
-10.253 -10.251 -10.241 -10.240 -10.240 -10.238 -10.233 -10.233
-10.232 -10.231 -10.230 -10.229 -10.229 -10.228 -10.228 -10.226
-10.226 -10.226 -10.225 -10.225 -10.224 -10.222 -10.219 -10.215
-10.212 -10.207 -10.207 -10.203 -10.200 -10.197 -10.196 -10.193
-10.190 -10.183 -10.183 -10.179 -10.177 -10.175 -10.174 -10.173
-10.172 -10.171 -10.167 -10.167  -8.046  -8.045  -7.989  -7.989
 -7.986  -7.980  -7.967  -7.964  -6.011  -6.011  -6.006  -6.005
 -6.004  -6.004  -5.952  -5.952  -5.950  -5.950  -5.949  -5.947
 -5.946  -5.946  -5.944  -5.943  -5.940  -5.936  -5.931  -5.929
 -5.928  -5.925  -5.922  -5.921  -1.034  -1.023  -0.995  -0.963
 -0.962  -0.961  -0.928  -0.920  -0.915  -0.911  -0.894  -0.889
 -0.844  -0.841  -0.834  -0.828  -0.814  -0.812  -0.810  -0.809
 -0.807  -0.802  -0.796  -0.793  -0.785  -0.782  -0.770  -0.765
 -0.750  -0.746  -0.740  -0.734  -0.729  -0.722  -0.714  -0.712
 -0.698  -0.692  -0.676  -0.673  -0.654  -0.652  -0.644  -0.643
 -0.638  -0.632  -0.623  -0.619  -0.613  -0.608  -0.601  -0.600
 -0.592  -0.588  -0.586  -0.580  -0.579  -0.576  -0.575  -0.555
 -0.552  -0.547  -0.539  -0.538  -0.524  -0.522  -0.515  -0.509
 -0.507  -0.503  -0.497  -0.496  -0.484  -0.480  -0.477  -0.476
 -0.474  -0.471  -0.468  -0.465  -0.461  -0.458  -0.451  -0.449
 -0.449  -0.445  -0.441  -0.441  -0.437  -0.436  -0.433  -0.431
 -0.427  -0.426  -0.423  -0.423  -0.421  -0.417  -0.417  -0.415
 -0.413  -0.409  -0.405  -0.404  -0.400  -0.399  -0.397  -0.394
 -0.393  -0.391  -0.389  -0.389  -0.387  -0.386  -0.385  -0.380
 -0.379  -0.376  -0.374  -0.370  -0.367  -0.359  -0.355  -0.354
 -0.352  -0.351  -0.347  -0.347  -0.346  -0.343  -0.341  -0.340
 -0.338  -0.337  -0.332  -0.330  -0.327  -0.324  -0.321  -0.319
 -0.310  -0.309  -0.308  -0.306  -0.304  -0.301  -0.300  -0.299
 -0.297  -0.294  -0.291  -0.290  -0.288  -0.287  -0.281  -0.281
 -0.279  -0.273  -0.267  -0.266  -0.253  -0.249  -0.247  -0.244
 -0.243  -0.236  -0.234  -0.228  -0.197  -0.187

          Ground-State Mulliken Net Atomic Charges

     Atom                 Charge (a.u.)
  ----------------------------------------
      1 C                     0.273830
      2 C                    -0.115933
      3 N                    -0.492163
      4 C                    -0.099020
      5 C                     0.088289
      6 C                     0.007537
      7 C                     0.039209
      8 C                     0.085988
      9 C                     0.216912
     10 N                    -0.511706
     11 N                    -0.575797
     12 C                     0.192951
     13 C                     0.282412
     14 S                     0.647614
     15 N                    -0.568030
     16 C                    -0.198466
     17 S                     0.344611
     18 C                    -0.140572
     19 C                    -0.264826
     20 S                     0.277089
     21 C                     0.188083
     22 C                     0.058939
     23 C                    -0.311984
     24 C                    -0.047913
     25 N                    -0.440272
     26 S                     0.306279
     27 C                     0.121302
     28 C                    -0.317359
     29 C                    -0.253626
     30 H                     0.089817
     31 H                     0.109450
     32 H                     0.127848
     33 H                     0.105401
     34 H                     0.133071
     35 H                     0.123303
     36 H                     0.115726
     37 H                     0.127405
     38 H                     0.105316
     39 C                    -0.176856
     40 H                     0.126336
     41 H                     0.089101
     42 H                     0.105805
     43 C                    -0.172472
     44 H                     0.091081
     45 C                    -0.165464
     46 H                     0.094692
     47 H                     0.093345
     48 H                     0.089804
     49 C                    -0.181704
     50 H                     0.088489
     51 C                    -0.316816
     52 H                     0.091715
     53 H                     0.104364
     54 H                     0.105972
     55 H                     0.096228
     56 C                     0.275707
     57 C                    -0.125241
     58 N                    -0.490144
     59 C                    -0.092389
     60 C                     0.087758
     61 C                     0.044237
     62 C                     0.052963
     63 C                     0.041486
     64 C                     0.198278
     65 N                    -0.540906
     66 N                    -0.550902
     67 C                     0.271982
     68 C                     0.305430
     69 S                     0.610834
     70 N                    -0.597261
     71 C                    -0.210196
     72 S                     0.318161
     73 C                    -0.145875
     74 C                    -0.239200
     75 S                     0.306582
     76 C                     0.204635
     77 C                     0.049099
     78 C                    -0.316572
     79 C                    -0.049929
     80 N                    -0.401508
     81 S                     0.248675
     82 C                     0.106032
     83 C                    -0.297364
     84 C                    -0.239503
     85 H                     0.096801
     86 H                     0.107736
     87 H                     0.111824
     88 H                     0.112631
     89 H                     0.127788
     90 H                     0.118822
     91 H                     0.108486
     92 H                     0.131989
     93 H                     0.121364
     94 C                    -0.176666
     95 H                     0.113370
     96 H                     0.112712
     97 H                     0.106088
     98 C                    -0.193869
     99 H                     0.086530
    100 C                    -0.168018
    101 H                     0.091816
    102 H                     0.087121
    103 H                     0.085266
    104 C                    -0.174250
    105 H                     0.098541
    106 C                    -0.316120
    107 H                     0.086177
    108 H                     0.100268
    109 H                     0.099006
    110 H                     0.105380
  ----------------------------------------
  Sum of atomic charges =     0.000000

                    Cartesian Multipole Moments
 -----------------------------------------------------------------
    Charge (ESU x 10^10)
                 0.0000
    Dipole Moment (Debye)
         X       3.0321      Y       0.3881      Z      -1.2325
       Tot       3.2959
    Quadrupole Moments (Debye-Ang)
        XX    -376.2771     XY      -3.5852     YY    -456.1880
        XZ       6.2684     YZ       2.9138     ZZ    -439.9272

 Total job time:  105.85s(wall), 1154.34s(cpu)
        *  Thank you very much for using Q-Chem.  Have a nice day.  *
