 Q-Chem 4.4, Q-Chem, Inc., Pleasanton, CA (2016)
 Q-Chem 4.4.2 for Intel X86 Linux

User input:
--------------------------------------------------------------
$comment
SP
$end

$rem
MEM_STATIC 5000
MEM_TOTAL 20000
JOBTYPE SP
EXCHANGE B3LYP
BASIS 6-31g(d,p)
$end

$molecule
0 1
C           2.323000     19.230000     10.867000
C           3.662000     19.577000     10.754000
N           1.738000     18.394000     10.026000
C           4.456000     19.046000      9.744000
C           2.446000     17.848000      9.017000
C           3.830000     18.183000      8.770000
C           4.577000     17.637000      7.588000
C           5.826000     17.042000      7.759000
C           4.143000     17.737000      6.240000
N           6.632000     16.673000      6.748000
N           2.903000     18.234000      5.878000
C           4.944000     17.368000      5.163000
C           6.258000     16.895000      5.461000
S           2.830000     18.082000      4.253000
N           4.348000     17.546000      3.953000
C           7.256000     16.456000      4.502000
S           8.670000     15.639000      5.086000
C           7.531000     17.024000      3.248000
C           9.481000     15.646000      3.471000
S           6.598000     17.994000      2.190000
C           8.722000     16.515000      2.675000
C          10.874000     15.324000      3.262000
C           7.866000     17.891000      0.963000
C           8.874000     17.022000      1.347000
N          11.404000     15.434000      2.047000
S          12.014000     14.874000      4.539000
C          12.706000     15.188000      2.053000
C          13.215000     14.790000      3.249000
C           1.327000     19.895000     11.871000
H           4.110000     20.295000     11.435000
H           5.474000     19.414000      9.651000
H           1.881000     17.200000      8.349000
H           6.124000     17.032000      8.806000
H           7.668000     18.528000      0.111000
H           9.771000     16.774000      0.792000
H          13.203000     15.107000      1.095000
H          14.233000     14.466000      3.418000
H           1.580000     20.963000     11.872000
C           1.476000     19.369000     13.242000
H           0.283000     19.803000     11.547000
H           1.043000     20.061000     13.975000
H           2.557000     19.384000     13.428000
C           0.898000     17.897000     13.448000
H          -0.188000     17.963000     13.311000
C           0.874000     17.395000     14.870000
H           1.220000     17.143000     12.720000
H           0.533000     18.145000     15.593000
H           1.909000     17.220000     15.190000
C          -0.037000     16.127000     15.076000
H          -1.112000     16.245000     14.889000
C           0.004000     15.592000     16.567000
H           0.199000     15.379000     14.310000
H          -0.338000     14.551000     16.635000
H          -0.538000     16.215000     17.288000
H           1.045000     15.511000     16.903000
C          11.657000     11.567000      1.569000
C          10.556000     11.708000      0.751000
N          11.552000     11.690000      2.871000
C           9.301000     12.059000      1.255000
C          10.317000     11.924000      3.433000
C           9.149000     12.129000      2.685000
C           7.832000     12.454000      3.346000
C           6.951000     13.288000      2.622000
C           7.248000     11.793000      4.484000
N           5.686000     13.575000      3.067000
N           7.843000     10.876000      5.183000
C           5.961000     11.991000      4.881000
C           5.216000     12.986000      4.160000
S           6.767000     10.331000      6.257000
N           5.534000     11.254000      5.878000
C           3.938000     13.530000      4.674000
S           2.667000     13.860000      3.632000
C           3.664000     13.797000      5.962000
C           1.691000     14.400000      4.977000
S           4.743000     13.844000      7.363000
C           2.407000     14.326000      6.139000
C           0.339000     14.941000      4.981000
C           3.356000     14.419000      8.264000
C           2.262000     14.618000      7.497000
N          -0.301000     14.761000      3.822000
S          -0.426000     16.072000      6.150000
C          -1.523000     15.402000      3.875000
C          -1.765000     16.160000      4.948000
C          13.046000     11.201000      0.998000
H          10.673000     11.575000     -0.321000
H           8.405000     12.091000      0.643000
H          10.384000     12.087000      4.508000
H           7.263000     13.830000      1.730000
H           3.419000     14.578000      9.332000
H           1.328000     15.003000      7.892000
H          -2.185000     15.142000      3.060000
H          -2.632000     16.770000      5.164000
H          13.174000     11.832000      0.109000
C          13.292000      9.785000      0.489000
H          13.808000     11.456000      1.745000
H          14.251000      9.607000     -0.013000
H          12.563000      9.547000     -0.295000
C          13.124000      8.709000      1.639000
H          13.911000      8.877000      2.384000
C          13.057000      7.241000      1.146000
H          12.225000      8.952000      2.217000
H          12.334000      7.155000      0.325000
H          12.809000      6.599000      2.001000
C          14.439000      6.752000      0.524000
H          14.671000      7.386000     -0.341000
C          14.392000      5.326000      0.026000
H          15.269000      6.909000      1.224000
H          15.418000      4.938000      0.023000
H          13.953000      5.242000     -0.976000
H          13.816000      4.835000      0.820000
$end

--------------------------------------------------------------

             Standard Nuclear Orientation (Angstroms)
    I     Atom           X                Y                Z
 ----------------------------------------------------------------
    1      C      -7.6270164937     0.1811714049    -2.4160035807
    2      C      -6.7579690162     0.0445899938    -3.4894098412
    3      N      -7.2169698976     0.0964495867    -1.1617763276
    4      C      -5.4012091148    -0.1809846073    -3.2873809587
    5      C      -5.9155813246    -0.1298376784    -0.8922529410
    6      C      -4.9340948328    -0.3456333232    -1.9309090467
    7      C      -3.5076573811    -0.6876834200    -1.6122761425
    8      C      -2.4648009348     0.0217515343    -2.2059254313
    9      C      -3.1000703515    -1.7619542918    -0.7784446804
   10      N      -1.1673174350    -0.3162912506    -2.1050213028
   11      N      -3.9877198604    -2.5352972623    -0.0506589981
   12      C      -1.7690124940    -2.1469152452    -0.6450990973
   13      C      -0.8028797714    -1.4249482151    -1.4096121251
   14      S      -3.0613073021    -3.5771083185     0.8010730578
   15      N      -1.5871470973    -3.2015938886     0.1948877697
   16      C       0.6313903082    -1.6509549553    -1.4236225574
   17      S       1.6529038752    -0.4739575377    -2.1846272298
   18      C       1.2926272469    -2.8888410665    -1.3894365023
   19      C       3.1350423179    -1.4976105951    -2.0383567450
   20      S       0.8151491691    -4.4383038407    -0.8399523835
   21      C       2.6764997402    -2.7687447399    -1.6657783099
   22      C       4.3788282828    -1.2255210059    -2.7215680804
   23      C       2.4503299088    -5.0498665843    -1.1158816484
   24      C       3.3176669447    -4.0327903033    -1.4791491873
   25      N       5.3927036380    -2.0800740058    -2.6165874420
   26      S       4.6608072692     0.1419093922    -3.8094334019
   27      C       6.4187704039    -1.7232246744    -3.3752715307
   28      C       6.2757787897    -0.5363644523    -4.0224324158
   29      C      -9.1805603479     0.2807300468    -2.5532863906
   30      H      -7.1256019658     0.0808902130    -4.5109367906
   31      H      -4.7804817134    -0.3627389573    -4.1603413527
   32      H      -5.6679821839    -0.2222571938     0.1639223753
   33      H      -2.8377261581     0.8033459980    -2.8655843372
   34      H       2.5200308039    -6.1200483464    -0.9719032425
   35      H       4.3722504530    -4.1235718093    -1.7109903878
   36      H       7.3452164725    -2.2686152594    -3.2504484887
   37      H       7.0411651930    -0.0500878365    -4.6119913243
   38      H      -9.4519952966    -0.4313156739    -3.3431901571
   39      C      -9.6239112879     1.6299012715    -2.9553994970
   40      H      -9.7016664255    -0.0264303922    -1.6381487394
   41      H     -10.6361470348     1.5987579860    -3.3773602636
   42      H      -8.9663709150     1.8994497143    -3.7910826277
   43      C      -9.5294730314     2.7247717119    -1.7996987855
   44      H     -10.2523184786     2.4321340932    -1.0287391994
   45      C     -10.1346330080     4.0688877391    -2.1187560033
   46      H      -8.5727961641     2.7874487985    -1.2676978886
   47      H     -11.1003164514     4.0028769058    -2.6331566809
   48      H      -9.5049910523     4.5589498634    -2.8721749584
   49      C     -10.3630275058     4.9747804387    -0.8509329201
   50      H     -11.0718707351     4.6122379283    -0.0955375240
   51      C     -10.9468669478     6.3993353952    -1.2261151185
   52      H      -9.4486449031     4.9947259099    -0.2463978641
   53      H     -10.7889157481     7.1284710346    -0.4207073722
   54      H     -12.0007219463     6.3929978025    -1.5279155111
   55      H     -10.3616319192     6.8356173281    -2.0448312086
   56      C       7.4734887055     0.3278245119    -0.3541683316
   57      C       7.0914300890    -0.4963674980     0.6831092322
   58      N       6.6144779658     1.1390537083    -0.9245767291
   59      C       5.7675570935    -0.5630282624     1.1248768569
   60      C       5.3215732853     1.1977083974    -0.4547021559
   61      C       4.8254932751     0.3684479757     0.5611643592
   62      C       3.3801941157     0.4213619780     0.9916820105
   63      C       2.8091859772    -0.7917417985     1.4369032291
   64      C       2.6037885931     1.6003069688     1.2750619196
   65      N       1.5384051886    -0.8562987813     1.9483400123
   66      N       3.0205660175     2.8143895472     1.0858132168
   67      C       1.3819317116     1.5614000225     1.8740059994
   68      C       0.8379733463     0.2565108119     2.1314248116
   69      S       1.8814342034     3.7991182323     1.6697354093
   70      N       0.8285368159     2.7165584716     2.1548441143
   71      C      -0.5893296505     0.0585307799     2.4735155341
   72      S      -1.0459966387    -1.0784375733     3.6175711383
   73      C      -1.6213837948     0.7357114276     1.9428559317
   74      C      -2.7244004011    -0.6497531233     3.3886793458
   75      S      -1.6622810340     1.8335440586     0.5563704720
   76      C      -2.8378440939     0.3151142877     2.4271506630
   77      C      -3.9161398702    -1.2130819418     4.0075643756
   78      C      -3.3978685028     1.8698043716     0.7857529645
   79      C      -3.8281193890     1.0416909619     1.7623994491
   80      N      -3.6431562999    -1.9874701068     5.0616440407
   81      S      -5.5949524200    -1.2922409270     3.3701718142
   82      C      -4.8122450261    -2.5684865299     5.5117834262
   83      C      -5.9078195000    -2.3812471418     4.7707604956
   84      C       8.9366473912     0.3766289177    -0.8502558142
   85      H       7.8338034365    -1.1378436690     1.1499626727
   86      H       5.4613522374    -1.1382164212     1.9930825745
   87      H       4.6956608628     1.8457744993    -1.0670149575
   88      H       3.3040532403    -1.7527571875     1.3015229721
   89      H      -4.0209985450     2.5152143071     0.1815766941
   90      H      -4.8768165028     0.9193585568     2.0111466018
   91      H      -4.7146594606    -3.0489755779     6.4759806737
   92      H      -6.9031449226    -2.7772074323     4.9223776171
   93      H       9.2614559385    -0.6700964831    -0.9113405325
   94      C       9.9954821273     1.0456844825     0.0191616074
   95      H       8.9505183420     0.8268484155    -1.8506497369
   96      H      11.0347845311     0.9516007034    -0.3190214139
   97      H      10.0187117083     0.5622199242     1.0032669917
   98      C       9.6832150512     2.5812517282     0.2494277732
   99      H       9.7527014210     3.0944507409    -0.7172243968
  100      C      10.5324760484     3.2545550031     1.3575705703
  101      H       8.6163810010     2.6913659081     0.4754232966
  102      H      10.5166362309     2.6395789560     2.2662616959
  103      H      10.1461262670     4.2685425998     1.5226644838
  104      C      12.0712594233     3.3527930378     0.9595454286
  105      H      12.4552363455     2.3351861938     0.8144832547
  106      C      12.9198261058     3.9959576203     2.0319086624
  107      H      12.2012730725     3.8481347472    -0.0106514803
  108      H      13.8146706157     4.4076885744     1.5492494403
  109      H      13.2068675628     3.2921616642     2.8231478514
  110      H      12.2708823239     4.8160467686     2.3629958968
 ----------------------------------------------------------------

   10   -5663.5066282395      4.51E-06 Convergence criterion met
 Total energy in the final basis set = -5663.5066282395

                    Orbital Energies (a.u.)
 --------------------------------------------------------------

 Alpha MOs
 -- Occupied --
-88.986 -88.985 -88.925 -88.922 -88.922 -88.918 -88.908 -88.904
-14.382 -14.380 -14.377 -14.372 -14.347 -14.345 -14.334 -14.334
-14.326 -14.324 -10.266 -10.266 -10.261 -10.256 -10.254 -10.252
-10.248 -10.246 -10.241 -10.237 -10.235 -10.233 -10.229 -10.228
-10.228 -10.227 -10.227 -10.225 -10.225 -10.225 -10.224 -10.223
-10.223 -10.222 -10.221 -10.219 -10.218 -10.218 -10.218 -10.217
-10.216 -10.214 -10.208 -10.200 -10.197 -10.196 -10.196 -10.195
-10.186 -10.183 -10.183 -10.182 -10.182 -10.179 -10.176 -10.175
-10.174 -10.174 -10.173 -10.169  -8.042  -8.041  -7.984  -7.982
 -7.982  -7.977  -7.968  -7.965  -6.007  -6.006  -6.001  -6.000
 -6.000  -5.999  -5.949  -5.946  -5.946  -5.945  -5.943  -5.942
 -5.941  -5.941  -5.939  -5.939  -5.937  -5.933  -5.932  -5.929
 -5.929  -5.926  -5.924  -5.921  -1.063  -1.027  -0.970  -0.958
 -0.954  -0.953  -0.941  -0.938  -0.925  -0.917  -0.908  -0.890
 -0.856  -0.844  -0.827  -0.826  -0.811  -0.805  -0.804  -0.799
 -0.797  -0.796  -0.794  -0.791  -0.780  -0.780  -0.766  -0.765
 -0.747  -0.745  -0.741  -0.737  -0.732  -0.719  -0.710  -0.710
 -0.697  -0.695  -0.674  -0.669  -0.651  -0.647  -0.646  -0.641
 -0.631  -0.628  -0.627  -0.627  -0.611  -0.609  -0.600  -0.595
 -0.594  -0.588  -0.584  -0.581  -0.576  -0.573  -0.571  -0.559
 -0.548  -0.547  -0.540  -0.535  -0.526  -0.519  -0.515  -0.507
 -0.506  -0.504  -0.500  -0.499  -0.487  -0.484  -0.478  -0.474
 -0.471  -0.468  -0.464  -0.463  -0.458  -0.455  -0.446  -0.445
 -0.444  -0.440  -0.439  -0.438  -0.435  -0.432  -0.431  -0.429
 -0.428  -0.425  -0.420  -0.417  -0.416  -0.414  -0.413  -0.412
 -0.409  -0.406  -0.404  -0.402  -0.401  -0.401  -0.398  -0.397
 -0.393  -0.390  -0.389  -0.387  -0.384  -0.383  -0.379  -0.379
 -0.375  -0.374  -0.373  -0.370  -0.366  -0.362  -0.358  -0.356
 -0.354  -0.351  -0.350  -0.347  -0.345  -0.342  -0.341  -0.338
 -0.335  -0.333  -0.332  -0.329  -0.326  -0.326  -0.323  -0.322
 -0.313  -0.306  -0.305  -0.302  -0.300  -0.299  -0.298  -0.297
 -0.295  -0.293  -0.289  -0.286  -0.285  -0.282  -0.277  -0.277
 -0.273  -0.272  -0.265  -0.262  -0.252  -0.252  -0.248  -0.245
 -0.243  -0.241  -0.233  -0.229  -0.194  -0.189

          Ground-State Mulliken Net Atomic Charges

     Atom                 Charge (a.u.)
  ----------------------------------------
      1 C                     0.275827
      2 C                    -0.114109
      3 N                    -0.476834
      4 C                    -0.074580
      5 C                     0.090154
      6 C                    -0.007394
      7 C                     0.042527
      8 C                     0.073898
      9 C                     0.205556
     10 N                    -0.528756
     11 N                    -0.550843
     12 C                     0.266645
     13 C                     0.288798
     14 S                     0.629690
     15 N                    -0.574193
     16 C                    -0.206103
     17 S                     0.305158
     18 C                    -0.135678
     19 C                    -0.216126
     20 S                     0.297921
     21 C                     0.123195
     22 C                     0.051116
     23 C                    -0.321625
     24 C                    -0.056360
     25 N                    -0.425827
     26 S                     0.268559
     27 C                     0.133794
     28 C                    -0.296642
     29 C                    -0.210451
     30 H                     0.089437
     31 H                     0.107292
     32 H                     0.114946
     33 H                     0.103444
     34 H                     0.138270
     35 H                     0.123104
     36 H                     0.108404
     37 H                     0.127206
     38 H                     0.094650
     39 C                    -0.181239
     40 H                     0.115842
     41 H                     0.091569
     42 H                     0.087584
     43 C                    -0.175893
     44 H                     0.095278
     45 C                    -0.169280
     46 H                     0.105047
     47 H                     0.089841
     48 H                     0.086993
     49 C                    -0.186229
     50 H                     0.096155
     51 C                    -0.328444
     52 H                     0.093640
     53 H                     0.100288
     54 H                     0.106951
     55 H                     0.102157
     56 C                     0.303881
     57 C                    -0.117303
     58 N                    -0.488976
     59 C                    -0.066046
     60 C                     0.066558
     61 C                     0.037439
     62 C                     0.047252
     63 C                     0.039177
     64 C                     0.253699
     65 N                    -0.495926
     66 N                    -0.546586
     67 C                     0.206915
     68 C                     0.245276
     69 S                     0.593505
     70 N                    -0.532365
     71 C                    -0.201832
     72 S                     0.354349
     73 C                    -0.117920
     74 C                    -0.230688
     75 S                     0.264895
     76 C                     0.172062
     77 C                     0.041622
     78 C                    -0.295351
     79 C                    -0.091434
     80 N                    -0.439014
     81 S                     0.266373
     82 C                     0.139429
     83 C                    -0.320261
     84 C                    -0.228816
     85 H                     0.085714
     86 H                     0.106270
     87 H                     0.116628
     88 H                     0.127263
     89 H                     0.133150
     90 H                     0.105470
     91 H                     0.112391
     92 H                     0.132209
     93 H                     0.093266
     94 C                    -0.179708
     95 H                     0.111897
     96 H                     0.100606
     97 H                     0.086478
     98 C                    -0.179167
     99 H                     0.091120
    100 C                    -0.176964
    101 H                     0.102680
    102 H                     0.092321
    103 H                     0.090577
    104 C                    -0.181883
    105 H                     0.088693
    106 C                    -0.311417
    107 H                     0.091386
    108 H                     0.100026
    109 H                     0.104305
    110 H                     0.102441
  ----------------------------------------
  Sum of atomic charges =     0.000000

                    Cartesian Multipole Moments
 -----------------------------------------------------------------
    Charge (ESU x 10^10)
                 0.0000
    Dipole Moment (Debye)
         X       0.2632      Y      -0.8061      Z      -1.5929
       Tot       1.8045
    Quadrupole Moments (Debye-Ang)
        XX    -405.2112     XY      -6.2494     YY    -433.7831
        XZ       3.2030     YZ      -6.0014     ZZ    -438.1578

 Total job time:  117.77s(wall), 1256.93s(cpu)
        *  Thank you very much for using Q-Chem.  Have a nice day.  *
