 Q-Chem 4.4, Q-Chem, Inc., Pleasanton, CA (2016)
 Q-Chem 4.4.2 for Intel X86 Linux

User input:
--------------------------------------------------------------
$comment
SP
$end

$rem
MEM_STATIC 5000
MEM_TOTAL 20000
JOBTYPE SP
EXCHANGE B3LYP
BASIS 6-31g(d,p)
$end

$molecule
0 1
C          15.323000     16.472000    -13.865000
C          15.250000     17.796000    -13.325000
N          14.343000     15.636000    -13.843000
C          13.975000     18.256000    -13.025000
C          13.129000     16.097000    -13.502000
C          12.862000     17.416000    -13.106000
C          11.506000     17.725000    -12.538000
C          11.403000     18.675000    -11.479000
C          10.290000     17.132000    -12.997000
N          10.226000     19.091000    -10.958000
N          10.170000     16.203000    -13.976000
C           9.066000     17.515000    -12.400000
C           9.062000     18.527000    -11.336000
S           8.615000     15.847000    -13.980000
N           7.992000     16.801000    -12.779000
C           7.775000     18.858000    -10.633000
S           6.255000     17.854000    -10.596000
C           7.599000     20.071000     -9.983000
C           5.418000     19.196000     -9.619000
S           8.585000     21.546000    -10.027000
C           6.312000     20.200000     -9.480000
C           4.035000     19.295000     -9.227000
C           7.278000     22.344000     -9.083000
C           6.218000     21.532000     -8.927000
N           3.500000     18.164000     -8.885000
S           3.021000     20.695000     -9.301000
C           2.124000     18.338000     -8.687000
C           1.783000     19.545000     -9.117000
C          16.674000     15.845000    -14.130000
H          16.146000     18.369000    -13.109000
H          13.847000     19.294000    -12.733000
H          12.361000     15.325000    -13.479000
H          12.239000     19.308000    -11.184000
H           7.505000     23.354000     -8.769000
H           5.293000     21.787000     -8.422000
H           1.517000     17.556000     -8.250000
H           0.756000     19.883000     -9.090000
H          16.629000     15.048000    -14.883000
C          17.384000     15.287000    -12.851000
H          17.298000     16.655000    -14.530000
H          17.660000     16.179000    -12.274000
H          18.325000     14.808000    -13.149000
C          16.483000     14.517000    -11.858000
H          15.588000     15.111000    -11.633000
C          17.191000     14.129000    -10.547000
H          16.085000     13.661000    -12.416000
H          17.986000     13.452000    -10.882000
H          16.386000     13.571000    -10.054000
C          17.654000     15.270000     -9.653000
H          18.419000     15.781000    -10.251000
C          18.465000     14.827000     -8.446000
H          16.772000     15.812000     -9.290000
H          17.743000     14.331000     -7.786000
H          18.907000     15.696000     -7.943000
H          19.247000     14.061000     -8.521000
C           0.249000     14.535000     -4.178000
C           0.763000     14.896000     -5.439000
N           0.802000     14.992000     -3.035000
C           1.815000     15.752000     -5.544000
C           1.723000     15.898000     -3.104000
C           2.265000     16.360000     -4.382000
C           3.267000     17.475000     -4.489000
C           2.966000     18.596000     -5.342000
C           4.332000     17.647000     -3.537000
N           3.708000     19.764000     -5.299000
N           4.746000     16.708000     -2.666000
C           5.053000     18.871000     -3.537000
C           4.586000     19.991000     -4.356000
S           6.001000     17.349000     -1.863000
N           6.040000     18.806000     -2.631000
C           5.121000     21.360000     -4.407000
S           5.079000     22.438000     -5.852000
C           5.715000     22.054000     -3.376000
C           5.629000     23.810000     -4.913000
S           5.689000     21.689000     -1.665000
C           5.965000     23.440000     -3.635000
C           5.853000     25.085000     -5.546000
C           6.242000     23.337000     -1.353000
C           6.306000     24.160000     -2.467000
N           6.804000     25.863000     -5.135000
S           5.366000     25.210000     -7.225000
C           7.088000     26.835000     -6.036000
C           6.471000     26.584000     -7.243000
C          -0.740000     13.470000     -4.235000
H           0.396000     14.321000     -6.284000
H           2.151000     16.026000     -6.540000
H           1.994000     16.366000     -2.159000
H           2.246000     18.509000     -6.155000
H           6.511000     23.556000     -0.329000
H           6.641000     25.191000     -2.492000
H           7.696000     27.686000     -5.760000
H           6.450000     27.121000     -8.182000
H          -0.824000     12.922000     -5.181000
C          -2.136000     13.974000     -3.971000
H          -0.404000     12.689000     -3.542000
H          -2.455000     14.735000     -4.694000
H          -2.208000     14.401000     -2.963000
C          -3.106000     12.747000     -4.169000
H          -3.087000     12.308000     -5.174000
C          -4.536000     13.188000     -3.854000
H          -2.811000     11.957000     -3.468000
H          -4.800000     14.055000     -4.473000
H          -4.605000     13.538000     -2.816000
C          -5.629000     12.083000     -4.026000
H          -5.597000     11.696000     -5.052000
C          -6.971000     12.712000     -3.724000
H          -5.522000     11.227000     -3.348000
H          -7.814000     12.049000     -3.955000
H          -7.124000     13.686000     -4.204000
H          -7.093000     13.008000     -2.675000
$end

--------------------------------------------------------------

             Standard Nuclear Orientation (Angstroms)
    I     Atom           X                Y                Z
 ----------------------------------------------------------------
    1      C      10.7189461502    -2.1581926331    -0.0265945685
    2      C      10.3704736873    -0.7706564029    -0.0832968825
    3      N       9.8721781047    -3.1151633082    -0.1908230807
    4      C       9.1195195736    -0.4836810093    -0.6124319587
    5      C       8.6524941470    -2.8040993531    -0.6579507497
    6      C       8.2115730393    -1.4988688919    -0.9222006690
    7      C       6.7544293829    -1.2898288550    -1.2219933098
    8      C       6.1160228923    -0.1066298650    -0.7454775148
    9      C       5.9506933316    -2.2028078449    -1.9713021405
   10      N       4.8359139540     0.2217172713    -1.0341559938
   11      N       6.3565451126    -3.3835427097    -2.4976399702
   12      C       4.5914329538    -1.8917300618    -2.2098725458
   13      C       4.0350010638    -0.6308124742    -1.7031908025
   14      S       5.0267277366    -4.0025873575    -3.1246539017
   15      N       3.8692105854    -2.8689033400    -2.7847118581
   16      C       2.5675735493    -0.3489613447    -1.8685855748
   17      S       1.2508694249    -1.5577454284    -2.2220205588
   18      C       2.0749377059     0.9478500461    -1.8477255059
   19      C       0.0223232405    -0.1646387622    -2.2994162272
   20      S       2.9340675332     2.4991651563    -1.9189601091
   21      C       0.7115328577     0.9814991322    -2.1046573231
   22      C      -1.3662395743    -0.2092007649    -2.6815962073
   23      C       1.3227033630     3.2862881219    -2.0608472060
   24      C       0.3383142868     2.3765217804    -2.1637226190
   25      N      -1.9936922859    -1.2680189647    -2.2722587982
   26      S      -2.2071672914     0.8979585569    -3.7115043638
   27      C      -3.2770799826    -1.2977836731    -2.8334059111
   28      C      -3.3564964181    -0.3532942396    -3.7605859043
   29      C      12.0181963194    -2.5777681138     0.6249116968
   30      H      11.0246041474    -0.0060739034     0.3233085069
   31      H       8.8530738327     0.5527125353    -0.7967878319
   32      H       7.9866935236    -3.6620258876    -0.7416680804
   33      H       6.6777125537     0.7264703808    -0.3246940733
   34      H       1.3497168473     4.3676356851    -2.0473298385
   35      H      -0.7163372781     2.5950679403    -2.2887132293
   36      H      -4.0173358195    -2.0143588061    -2.5025231906
   37      H      -4.2536653038    -0.2155829131    -4.3486552719
   38      H      12.3714660828    -3.5546876556     0.2712569454
   39      C      11.9739620318    -2.5969688768     2.1898333109
   40      H      12.7538534328    -1.8209670166     0.3223613525
   41      H      11.9086797497    -1.5403286237     2.4796929306
   42      H      12.9374472271    -2.9621402005     2.5667579491
   43      C      10.6957934806    -3.1929529895     2.8237403169
   44      H       9.8085363923    -2.7328588105     2.3703373991
   45      C      10.6323191456    -3.0435943938     4.3548157620
   46      H      10.6464133532    -4.2325014055     2.4781904742
   47      H      11.4908116584    -3.6320767216     4.7001535029
   48      H       9.6919874371    -3.5696638340     4.5584458730
   49      C      10.5630571013    -1.6262214596     4.9041269076
   50      H      11.5233041442    -1.1823394510     4.6128463229
   51      C      10.6417258035    -1.5401694316     6.4197869235
   52      H       9.6164019172    -1.1721047287     4.5861977376
   53      H       9.6864291239    -1.9439529867     6.7765320630
   54      H      10.7570246114    -0.4965132933     6.7376265842
   55      H      11.3560837047    -2.1383363191     6.9992644155
   56      C      -7.1775268971    -3.8873205208     1.2150910670
   57      C      -6.0911191129    -3.8243624039     0.3204445435
   58      N      -7.2930970252    -3.0224649679     2.2445450088
   59      C      -5.1400715768    -2.8598125387     0.4454131054
   60      C      -6.4732553135    -2.0243435078     2.3183766989
   61      C      -5.3547380535    -1.8664709511     1.3885985560
   62      C      -4.4472182035    -0.6685614818     1.3985295773
   63      C      -4.2744899557     0.0785228108     0.1791522723
   64      C      -4.0235753811    -0.0337313588     2.6182141570
   65      N      -3.6674302748     1.3226953268     0.1668928175
   66      N      -4.1097623157    -0.5841121255     3.8435348595
   67      C      -3.4128041308     1.2465600516     2.5418637534
   68      C      -3.3999573190     1.9723793702     1.2705371722
   69      S      -3.4495693460     0.4818684114     4.8723913791
   70      N      -3.0309395028     1.6312488314     3.7688209444
   71      C      -2.9235000380     3.3398602816     1.0136881575
   72      S      -2.2241983426     3.9203204617    -0.5438471128
   73      C      -2.9478796075     4.4017905800     1.8906959557
   74      C      -2.2434084071     5.5835530247     0.0037781376
   75      S      -3.8467152281     4.5560408925     3.3839217819
   76      C      -2.6092133670     5.6722459335     1.3233994087
   77      C      -1.7342329119     6.6354600707    -0.8392650888
   78      C      -3.5430551644     6.2950529590     3.3321086725
   79      C      -2.9211971189     6.7525666303     2.1804165210
   80      N      -1.1343874945     7.6596312536    -0.3197798983
   81      S      -1.2904397661     6.1717350735    -2.4701672229
   82      C      -0.4341365336     8.3595646421    -1.2455135768
   83      C      -0.3419202133     7.6575995595    -2.4284253119
   84      C      -7.9899735408    -5.0840062445     1.0618959962
   85      H      -5.9682802958    -4.6786649409    -0.3386584836
   86      H      -4.3419450773    -2.8333067574    -0.2909832107
   87      H      -6.7291407345    -1.2586657197     3.0489587793
   88      H      -4.4740734841    -0.3728319917    -0.7921269139
   89      H      -3.8396428485     6.8498377728     4.2113967687
   90      H      -2.6275279946     7.7739601040     1.9651845130
   91      H      -0.0596995026     9.3500802271    -1.0247947834
   92      H       0.1189495814     7.8824899803    -3.3810817720
   93      H      -7.5726218331    -5.8909316323     0.4479212648
   94      C      -9.3265322645    -4.7883707242     0.4304386206
   95      H      -8.0526623565    -5.5525159673     2.0516812012
   96      H      -9.2337203703    -4.3443225230    -0.5684698573
   97      H      -9.9088005855    -4.1052972054     1.0612723311
   98      C     -10.0492161544    -6.1749567476     0.2285966154
   99      H      -9.5138846456    -6.8780846481    -0.4211251184
  100      C     -11.4407394535    -5.9297013519    -0.3563125218
  101      H     -10.1511335584    -6.6570498674     1.2082522010
  102      H     -11.3548369479    -5.3456503271    -1.2815428499
  103      H     -12.0353510627    -5.3095505896     0.3267358413
  104      C     -12.2830892830    -7.2166155351    -0.6383704057
  105      H     -11.7261499236    -7.8747250874    -1.3167356223
  106      C     -13.5936356911    -6.7826748620    -1.2564097285
  107      H     -12.5340695626    -7.8016989523     0.2552488053
  108      H     -14.1940131895    -7.6264470426    -1.6185897480
  109      H     -13.4845803592    -6.0372036701    -2.0531936620
  110      H     -14.2390247538    -6.2196502347    -0.5712986231
 ----------------------------------------------------------------

   10   -5663.4725871211      3.54E-06 Convergence criterion met
 Total energy in the final basis set = -5663.4725871211

                    Orbital Energies (a.u.)
 --------------------------------------------------------------

 Alpha MOs
 -- Occupied --
-88.986 -88.985 -88.932 -88.927 -88.924 -88.922 -88.906 -88.904
-14.390 -14.387 -14.379 -14.378 -14.348 -14.347 -14.345 -14.339
-14.328 -14.322 -10.267 -10.266 -10.265 -10.264 -10.259 -10.259
-10.256 -10.254 -10.242 -10.241 -10.240 -10.239 -10.237 -10.237
-10.235 -10.235 -10.229 -10.229 -10.228 -10.227 -10.227 -10.226
-10.225 -10.225 -10.224 -10.224 -10.223 -10.220 -10.214 -10.214
-10.211 -10.207 -10.202 -10.202 -10.201 -10.198 -10.197 -10.189
-10.183 -10.179 -10.179 -10.179 -10.179 -10.178 -10.178 -10.176
-10.171 -10.169 -10.168 -10.168  -8.042  -8.042  -7.994  -7.989
 -7.981  -7.980  -7.967  -7.964  -6.007  -6.007  -6.001  -6.001
 -5.999  -5.999  -5.958  -5.955  -5.953  -5.950  -5.950  -5.946
 -5.945  -5.945  -5.942  -5.941  -5.937  -5.936  -5.932  -5.928
 -5.928  -5.925  -5.923  -5.920  -1.043  -1.032  -0.984  -0.981
 -0.956  -0.953  -0.949  -0.949  -0.913  -0.909  -0.903  -0.896
 -0.844  -0.835  -0.832  -0.831  -0.817  -0.817  -0.809  -0.803
 -0.803  -0.803  -0.799  -0.797  -0.788  -0.783  -0.767  -0.766
 -0.751  -0.748  -0.742  -0.737  -0.722  -0.719  -0.711  -0.709
 -0.693  -0.691  -0.673  -0.670  -0.650  -0.650  -0.645  -0.640
 -0.631  -0.631  -0.627  -0.626  -0.612  -0.607  -0.601  -0.600
 -0.594  -0.590  -0.585  -0.583  -0.581  -0.577  -0.577  -0.551
 -0.550  -0.545  -0.538  -0.537  -0.527  -0.523  -0.520  -0.515
 -0.507  -0.507  -0.505  -0.492  -0.489  -0.485  -0.479  -0.476
 -0.473  -0.472  -0.471  -0.470  -0.463  -0.461  -0.452  -0.450
 -0.445  -0.443  -0.442  -0.441  -0.436  -0.433  -0.432  -0.431
 -0.430  -0.425  -0.422  -0.421  -0.415  -0.414  -0.414  -0.414
 -0.412  -0.410  -0.408  -0.405  -0.404  -0.398  -0.398  -0.395
 -0.393  -0.392  -0.390  -0.389  -0.387  -0.386  -0.385  -0.384
 -0.384  -0.382  -0.378  -0.376  -0.370  -0.360  -0.356  -0.354
 -0.354  -0.350  -0.348  -0.347  -0.341  -0.340  -0.339  -0.338
 -0.333  -0.333  -0.331  -0.330  -0.329  -0.328  -0.327  -0.320
 -0.319  -0.317  -0.309  -0.307  -0.303  -0.301  -0.300  -0.296
 -0.295  -0.293  -0.292  -0.291  -0.289  -0.284  -0.284  -0.281
 -0.273  -0.272  -0.264  -0.260  -0.255  -0.253  -0.249  -0.247
 -0.245  -0.242  -0.230  -0.226  -0.194  -0.192

          Ground-State Mulliken Net Atomic Charges

     Atom                 Charge (a.u.)
  ----------------------------------------
      1 C                     0.252030
      2 C                    -0.113052
      3 N                    -0.443289
      4 C                    -0.098312
      5 C                     0.066264
      6 C                     0.061518
      7 C                     0.027539
      8 C                     0.045576
      9 C                     0.220054
     10 N                    -0.507961
     11 N                    -0.529299
     12 C                     0.194989
     13 C                     0.284843
     14 S                     0.601100
     15 N                    -0.553017
     16 C                    -0.217377
     17 S                     0.334280
     18 C                    -0.113808
     19 C                    -0.202673
     20 S                     0.259557
     21 C                     0.157710
     22 C                     0.038717
     23 C                    -0.317228
     24 C                    -0.041924
     25 N                    -0.423489
     26 S                     0.303124
     27 C                     0.106980
     28 C                    -0.290225
     29 C                    -0.225731
     30 H                     0.100747
     31 H                     0.098065
     32 H                     0.116565
     33 H                     0.111830
     34 H                     0.144898
     35 H                     0.088884
     36 H                     0.116056
     37 H                     0.118973
     38 H                     0.110057
     39 C                    -0.178902
     40 H                     0.086410
     41 H                     0.090695
     42 H                     0.091632
     43 C                    -0.175180
     44 H                     0.094494
     45 C                    -0.173737
     46 H                     0.098396
     47 H                     0.088982
     48 H                     0.087747
     49 C                    -0.165537
     50 H                     0.099168
     51 C                    -0.319236
     52 H                     0.099598
     53 H                     0.096584
     54 H                     0.097889
     55 H                     0.102523
     56 C                     0.280562
     57 C                    -0.118705
     58 N                    -0.470906
     59 C                    -0.075665
     60 C                     0.110218
     61 C                     0.012495
     62 C                     0.008903
     63 C                     0.075498
     64 C                     0.200262
     65 N                    -0.507225
     66 N                    -0.544633
     67 C                     0.241564
     68 C                     0.302088
     69 S                     0.606432
     70 N                    -0.565113
     71 C                    -0.225233
     72 S                     0.327707
     73 C                    -0.123588
     74 C                    -0.251212
     75 S                     0.274116
     76 C                     0.153959
     77 C                     0.068431
     78 C                    -0.313593
     79 C                    -0.046389
     80 N                    -0.411699
     81 S                     0.245789
     82 C                     0.134093
     83 C                    -0.322378
     84 C                    -0.233975
     85 H                     0.086311
     86 H                     0.105328
     87 H                     0.106427
     88 H                     0.103955
     89 H                     0.130527
     90 H                     0.123739
     91 H                     0.122485
     92 H                     0.132402
     93 H                     0.101391
     94 C                    -0.175722
     95 H                     0.115991
     96 H                     0.095227
     97 H                     0.115290
     98 C                    -0.184474
     99 H                     0.089941
    100 C                    -0.171689
    101 H                     0.096895
    102 H                     0.088298
    103 H                     0.092655
    104 C                    -0.173841
    105 H                     0.091352
    106 C                    -0.318494
    107 H                     0.096123
    108 H                     0.094677
    109 H                     0.098227
    110 H                     0.100680
  ----------------------------------------
  Sum of atomic charges =     0.000000

                    Cartesian Multipole Moments
 -----------------------------------------------------------------
    Charge (ESU x 10^10)
                 0.0000
    Dipole Moment (Debye)
         X      -0.7745      Y       2.8905      Z      -2.3055
       Tot       3.7775
    Quadrupole Moments (Debye-Ang)
        XX    -433.7489     XY      21.4342     YY    -416.7111
        XZ      13.0839     YZ      -1.3655     ZZ    -433.3387

 Total job time:  95.21s(wall), 1046.16s(cpu)
        *  Thank you very much for using Q-Chem.  Have a nice day.  *
