 Q-Chem 4.4, Q-Chem, Inc., Pleasanton, CA (2016)
 Q-Chem 4.4.2 for Intel X86 Linux

User input:
--------------------------------------------------------------
$comment
SP
$end

$rem
MEM_STATIC 5000
MEM_TOTAL 20000
JOBTYPE SP
EXCHANGE B3LYP
BASIS 6-31g(d,p)
$end

$molecule
0 1
C           2.323000     19.230000     10.867000
C           3.662000     19.577000     10.754000
N           1.738000     18.394000     10.026000
C           4.456000     19.046000      9.744000
C           2.446000     17.848000      9.017000
C           3.830000     18.183000      8.770000
C           4.577000     17.637000      7.588000
C           5.826000     17.042000      7.759000
C           4.143000     17.737000      6.240000
N           6.632000     16.673000      6.748000
N           2.903000     18.234000      5.878000
C           4.944000     17.368000      5.163000
C           6.258000     16.895000      5.461000
S           2.830000     18.082000      4.253000
N           4.348000     17.546000      3.953000
C           7.256000     16.456000      4.502000
S           8.670000     15.639000      5.086000
C           7.531000     17.024000      3.248000
C           9.481000     15.646000      3.471000
S           6.598000     17.994000      2.190000
C           8.722000     16.515000      2.675000
C          10.874000     15.324000      3.262000
C           7.866000     17.891000      0.963000
C           8.874000     17.022000      1.347000
N          11.404000     15.434000      2.047000
S          12.014000     14.874000      4.539000
C          12.706000     15.188000      2.053000
C          13.215000     14.790000      3.249000
C           1.327000     19.895000     11.871000
H           4.110000     20.295000     11.435000
H           5.474000     19.414000      9.651000
H           1.881000     17.200000      8.349000
H           6.124000     17.032000      8.806000
H           7.668000     18.528000      0.111000
H           9.771000     16.774000      0.792000
H          13.203000     15.107000      1.095000
H          14.233000     14.466000      3.418000
H           1.580000     20.963000     11.872000
C           1.476000     19.369000     13.242000
H           0.283000     19.803000     11.547000
H           1.043000     20.061000     13.975000
H           2.557000     19.384000     13.428000
C           0.898000     17.897000     13.448000
H          -0.188000     17.963000     13.311000
C           0.874000     17.395000     14.870000
H           1.220000     17.143000     12.720000
H           0.533000     18.145000     15.593000
H           1.909000     17.220000     15.190000
C          -0.037000     16.127000     15.076000
H          -1.112000     16.245000     14.889000
C           0.004000     15.592000     16.567000
H           0.199000     15.379000     14.310000
H          -0.338000     14.551000     16.635000
H          -0.538000     16.215000     17.288000
H           1.045000     15.511000     16.903000
C           0.249000     14.535000     -4.178000
C           0.763000     14.896000     -5.439000
N           0.802000     14.992000     -3.035000
C           1.815000     15.752000     -5.544000
C           1.723000     15.898000     -3.104000
C           2.265000     16.360000     -4.382000
C           3.267000     17.475000     -4.489000
C           2.966000     18.596000     -5.342000
C           4.332000     17.647000     -3.537000
N           3.708000     19.764000     -5.299000
N           4.746000     16.708000     -2.666000
C           5.053000     18.871000     -3.537000
C           4.586000     19.991000     -4.356000
S           6.001000     17.349000     -1.863000
N           6.040000     18.806000     -2.631000
C           5.121000     21.360000     -4.407000
S           5.079000     22.438000     -5.852000
C           5.715000     22.054000     -3.376000
C           5.629000     23.810000     -4.913000
S           5.689000     21.689000     -1.665000
C           5.965000     23.440000     -3.635000
C           5.853000     25.085000     -5.546000
C           6.242000     23.337000     -1.353000
C           6.306000     24.160000     -2.467000
N           6.804000     25.863000     -5.135000
S           5.366000     25.210000     -7.225000
C           7.088000     26.835000     -6.036000
C           6.471000     26.584000     -7.243000
C          -0.740000     13.470000     -4.235000
H           0.396000     14.321000     -6.284000
H           2.151000     16.026000     -6.540000
H           1.994000     16.366000     -2.159000
H           2.246000     18.509000     -6.155000
H           6.511000     23.556000     -0.329000
H           6.641000     25.191000     -2.492000
H           7.696000     27.686000     -5.760000
H           6.450000     27.121000     -8.182000
H          -0.824000     12.922000     -5.181000
C          -2.136000     13.974000     -3.971000
H          -0.404000     12.689000     -3.542000
H          -2.455000     14.735000     -4.694000
H          -2.208000     14.401000     -2.963000
C          -3.106000     12.747000     -4.169000
H          -3.087000     12.308000     -5.174000
C          -4.536000     13.188000     -3.854000
H          -2.811000     11.957000     -3.468000
H          -4.800000     14.055000     -4.473000
H          -4.605000     13.538000     -2.816000
C          -5.629000     12.083000     -4.026000
H          -5.597000     11.696000     -5.052000
C          -6.971000     12.712000     -3.724000
H          -5.522000     11.227000     -3.348000
H          -7.814000     12.049000     -3.955000
H          -7.124000     13.686000     -4.204000
H          -7.093000     13.008000     -2.675000
$end

--------------------------------------------------------------

             Standard Nuclear Orientation (Angstroms)
    I     Atom           X                Y                Z
 ----------------------------------------------------------------
    1      C       9.1989616339    -0.4501730060     3.4526979687
    2      C       9.0110130842     0.8815837732     3.1103557077
    3      N       8.5369807662    -1.4302469431     2.8613956700
    4      C       8.1137538915     1.2440662568     2.1123429872
    5      C       7.6442650933    -1.1505686439     1.8906744039
    6      C       7.3266691297     0.2026406833     1.4948874402
    7      C       6.2637875533     0.5002107438     0.4775458979
    8      C       6.5343694903     1.3490366191    -0.5946234212
    9      C       4.9249805059     0.0328741693     0.5457530529
   10      N       5.6052512767     1.7960844264    -1.4576446279
   11      N       4.4854282389    -0.8711092082     1.4972050264
   12      C       3.9311080755     0.4691705182    -0.3257709503
   13      C       4.3026559264     1.4434186876    -1.3014356976
   14      S       2.9195641772    -1.1609974767     1.1323865343
   15      N       2.7143048907    -0.0925208474    -0.0914787842
   16      C       3.4362984107     2.0332285784    -2.3064008451
   17      S       4.1531549726     2.9660878410    -3.5806972258
   18      C       2.0949924794     2.4157489398    -2.1472104817
   19      C       2.5595821749     3.5314950731    -4.2185337256
   20      S       0.8797355779     1.9326765094    -1.0424278377
   21      C       1.6192924387     3.1812404010    -3.2397411651
   22      C       2.4040398555     4.5959912329    -5.1831416836
   23      C      -0.3158023057     2.8891091388    -1.9255403981
   24      C       0.2179443719     3.4200199250    -3.0882653103
   25      N       1.1859253306     4.9983775970    -5.5345776212
   26      S       3.7337933574     5.5207969082    -5.8968076329
   27      C       1.2277739452     6.0377702925    -6.3553501341
   28      C       2.4733500288     6.4206286484    -6.7424685902
   29      C      10.0665443108    -0.9305932856     4.6604867142
   30      H       9.5394663441     1.6712342795     3.6368328962
   31      H       7.9441080767     2.3035034092     1.9414330183
   32      H       7.1162440982    -2.0104297602     1.4817909370
   33      H       7.5616963296     1.7083873176    -0.5705476928
   34      H      -1.2716374038     2.9234873047    -1.4195024479
   35      H      -0.2872368869     4.0465785305    -3.8137680391
   36      H       0.2985303466     6.3483205703    -6.8151314510
   37      H       2.6923942903     7.1888807440    -7.4716251777
   38      H       9.8625252486    -0.2186029753     5.4704743810
   39      C      11.5112255953    -0.9077809513     4.3590010866
   40      H       9.7745784591    -1.9268563485     5.0148761200
   41      H      12.1029630613    -0.9040320460     5.2828380403
   42      H      11.6820324230     0.0727655601     3.8977684267
   43      C      11.9979126267    -2.0719601955     3.3837439816
   44      H      11.8598640605    -3.0152028076     3.9257374945
   45      C      13.4895357522    -2.1862571715     3.1922742646
   46      H      11.4237820505    -2.2017191073     2.4586922499
   47      H      14.0596748124    -2.0756065606     4.1219020903
   48      H      13.8283756863    -1.3203820185     2.6094383369
   49      C      13.9402221715    -3.5516354052     2.5497752136
   50      H      13.7431156232    -4.4661779131     3.1236035938
   51      C      15.5053176299    -3.6169238900     2.3106087033
   52      H      13.3283570691    -3.7583400056     1.6638574383
   53      H      15.7726846986    -4.3886506390     1.5769727749
   54      H      16.0992855607    -3.7422467866     3.2234231799
   55      H      15.8419571224    -2.7012411703     1.8092734772
   56      C      -4.6623324299    -5.8731797359    -2.1287042640
   57      C      -5.9731618601    -5.3746204786    -2.2621316676
   58      N      -3.6315924965    -5.0656766861    -1.8021755297
   59      C      -6.2475839196    -4.0632048316    -2.0268732270
   60      C      -3.8790863586    -3.8437868519    -1.4563865458
   61      C      -5.2260260749    -3.2759324688    -1.5179235275
   62      C      -5.5512043915    -1.8905306365    -1.0346029036
   63      C      -6.5991223481    -1.7260865053    -0.0600891356
   64      C      -4.6580713214    -0.7788966826    -1.2261656133
   65      N      -6.7849547988    -0.5319703446     0.6153291755
   66      N      -3.6279949873    -0.7585041039    -2.0923554820
   67      C      -4.8965845259     0.4181241057    -0.4993439821
   68      C      -5.9095586900     0.4385904350     0.5574031363
   69      S      -2.9718198458     0.7212226962    -1.9896044192
   70      N      -4.0029393354     1.3480431192    -0.8679615369
   71      C      -6.2241495522     1.5325330613     1.4886974614
   72      S      -7.8472392034     1.8495556896     2.2076895594
   73      C      -5.3487321937     2.4738802277     1.9836145865
   74      C      -7.1905900589     3.0530878454     3.2971514683
   75      S      -3.5993945260     2.4481568878     1.9595722441
   76      C      -5.8683977814     3.3036386311     3.0286149066
   77      C      -8.0561269463     3.7732462046     4.1964333120
   78      C      -3.6107649770     3.7203638029     3.1844874568
   79      C      -4.8613256246     4.0463010862     3.6867662181
   80      N      -7.8083100066     5.0091925188     4.4958151296
   81      S      -9.7242047082     3.2387255996     4.2567599475
   82      C      -8.8798869356     5.6181977184     5.0597978884
   83      C     -10.0120665072     4.8421286027     4.9316372654
   84      C      -4.5077683680    -7.2399614030    -2.6015814417
   85      H      -6.6904611292    -6.0430128696    -2.7291138624
   86      H      -7.2802466807    -3.7363887475    -2.1092556828
   87      H      -3.0424885468    -3.2995988142    -1.0211240033
   88      H      -7.3747969679    -2.4804762520     0.0670446289
   89      H      -2.6492854145     4.1565422155     3.4173037861
   90      H      -5.0845195495     4.8113915232     4.4220431013
   91      H      -8.7756359738     6.5712740360     5.5606154897
   92      H     -11.0357805937     4.9789603429     5.2538445651
   93      H      -5.3316970551    -7.6554629533    -3.1938448799
   94      C      -4.3327825411    -8.2186424333    -1.4684038734
   95      H      -3.6818160758    -7.2333891572    -3.3232916444
   96      H      -5.1845283755    -8.2222022670    -0.7769363318
   97      H      -3.4237053372    -7.9904430463    -0.8982454066
   98      C      -4.2860248313    -9.6561981509    -2.1140665372
   99      H      -5.1894381676    -9.9364590793    -2.6694089143
  100      C      -4.0487190035   -10.6888487260    -1.0113767650
  101      H      -3.4501692183    -9.6892258404    -2.8231367493
  102      H      -4.8189566311   -10.5853481924    -0.2364137745
  103      H      -3.0955850714   -10.4903160838    -0.5045972296
  104      C      -3.9985959200   -12.1769042391    -1.4893270412
  105      H      -4.9326129973   -12.4239151036    -2.0090064924
  106      C      -3.8104989742   -13.0470545143    -0.2665159203
  107      H      -3.1712250621   -12.4085414551    -2.1717277034
  108      H      -3.9043432315   -14.1176730234    -0.4868526244
  109      H      -4.4655206759   -12.7831627800     0.5724076298
  110      H      -2.8358676990   -12.9190143814     0.2199001587
 ----------------------------------------------------------------

    9   -5663.5142740374      9.13E-06 Convergence criterion met
 Total energy in the final basis set = -5663.5142740374

                    Orbital Energies (a.u.)
 --------------------------------------------------------------

 Alpha MOs
 -- Occupied --
-88.992 -88.987 -88.928 -88.923 -88.921 -88.921 -88.908 -88.907
-14.387 -14.383 -14.381 -14.378 -14.351 -14.347 -14.342 -14.338
-14.327 -14.326 -10.272 -10.266 -10.265 -10.264 -10.260 -10.260
-10.257 -10.255 -10.244 -10.244 -10.240 -10.238 -10.237 -10.234
-10.234 -10.232 -10.232 -10.230 -10.228 -10.228 -10.228 -10.228
-10.227 -10.226 -10.225 -10.224 -10.223 -10.222 -10.222 -10.218
-10.214 -10.212 -10.206 -10.202 -10.200 -10.199 -10.198 -10.189
-10.182 -10.182 -10.181 -10.181 -10.179 -10.179 -10.178 -10.175
-10.175 -10.173 -10.172 -10.168  -8.047  -8.042  -7.989  -7.985
 -7.980  -7.980  -7.969  -7.967  -6.012  -6.007  -6.006  -6.005
 -6.001  -5.999  -5.953  -5.949  -5.948  -5.946  -5.945  -5.944
 -5.944  -5.942  -5.941  -5.941  -5.937  -5.936  -5.934  -5.932
 -5.930  -5.928  -5.926  -5.923  -1.033  -1.033  -0.980  -0.975
 -0.959  -0.956  -0.949  -0.941  -0.912  -0.908  -0.897  -0.896
 -0.848  -0.843  -0.831  -0.830  -0.816  -0.810  -0.806  -0.804
 -0.804  -0.802  -0.798  -0.798  -0.787  -0.781  -0.768  -0.766
 -0.749  -0.748  -0.742  -0.739  -0.723  -0.720  -0.711  -0.711
 -0.697  -0.690  -0.674  -0.670  -0.650  -0.649  -0.645  -0.640
 -0.631  -0.631  -0.628  -0.625  -0.612  -0.606  -0.598  -0.598
 -0.592  -0.589  -0.584  -0.581  -0.580  -0.579  -0.576  -0.571
 -0.552  -0.549  -0.544  -0.538  -0.523  -0.520  -0.514  -0.512
 -0.507  -0.507  -0.504  -0.503  -0.489  -0.486  -0.478  -0.476
 -0.474  -0.472  -0.470  -0.467  -0.464  -0.458  -0.449  -0.446
 -0.442  -0.441  -0.439  -0.439  -0.434  -0.433  -0.432  -0.432
 -0.430  -0.429  -0.422  -0.421  -0.416  -0.414  -0.414  -0.413
 -0.412  -0.412  -0.409  -0.402  -0.401  -0.401  -0.398  -0.397
 -0.394  -0.391  -0.391  -0.389  -0.385  -0.385  -0.384  -0.383
 -0.381  -0.378  -0.377  -0.373  -0.369  -0.366  -0.359  -0.356
 -0.353  -0.350  -0.346  -0.345  -0.343  -0.341  -0.339  -0.338
 -0.335  -0.334  -0.331  -0.331  -0.329  -0.329  -0.327  -0.322
 -0.320  -0.308  -0.307  -0.304  -0.303  -0.301  -0.300  -0.299
 -0.296  -0.295  -0.292  -0.292  -0.291  -0.287  -0.282  -0.282
 -0.277  -0.273  -0.266  -0.259  -0.253  -0.252  -0.249  -0.249
 -0.244  -0.242  -0.236  -0.226  -0.194  -0.191

          Ground-State Mulliken Net Atomic Charges

     Atom                 Charge (a.u.)
  ----------------------------------------
      1 C                     0.277796
      2 C                    -0.113488
      3 N                    -0.471667
      4 C                    -0.073713
      5 C                     0.091282
      6 C                    -0.002084
      7 C                     0.020867
      8 C                     0.079857
      9 C                     0.210989
     10 N                    -0.533297
     11 N                    -0.545452
     12 C                     0.253551
     13 C                     0.293590
     14 S                     0.618817
     15 N                    -0.571481
     16 C                    -0.216154
     17 S                     0.321970
     18 C                    -0.136496
     19 C                    -0.211606
     20 S                     0.293131
     21 C                     0.129208
     22 C                     0.046740
     23 C                    -0.338749
     24 C                    -0.051272
     25 N                    -0.420573
     26 S                     0.270780
     27 C                     0.136730
     28 C                    -0.312563
     29 C                    -0.210460
     30 H                     0.090198
     31 H                     0.107230
     32 H                     0.114949
     33 H                     0.110173
     34 H                     0.153184
     35 H                     0.126544
     36 H                     0.113013
     37 H                     0.129025
     38 H                     0.094370
     39 C                    -0.181657
     40 H                     0.117103
     41 H                     0.091567
     42 H                     0.087578
     43 C                    -0.176958
     44 H                     0.095468
     45 C                    -0.169145
     46 H                     0.108125
     47 H                     0.089268
     48 H                     0.087214
     49 C                    -0.186815
     50 H                     0.096027
     51 C                    -0.328577
     52 H                     0.095131
     53 H                     0.100176
     54 H                     0.106541
     55 H                     0.102192
     56 C                     0.279815
     57 C                    -0.114794
     58 N                    -0.470451
     59 C                    -0.070856
     60 C                     0.110359
     61 C                     0.017349
     62 C                     0.000943
     63 C                     0.059151
     64 C                     0.196620
     65 N                    -0.497369
     66 N                    -0.543818
     67 C                     0.238289
     68 C                     0.299324
     69 S                     0.615175
     70 N                    -0.577411
     71 C                    -0.218359
     72 S                     0.313513
     73 C                    -0.124662
     74 C                    -0.239169
     75 S                     0.266076
     76 C                     0.150858
     77 C                     0.070556
     78 C                    -0.314497
     79 C                    -0.045351
     80 N                    -0.413735
     81 S                     0.255674
     82 C                     0.132298
     83 C                    -0.314776
     84 C                    -0.233950
     85 H                     0.086282
     86 H                     0.096430
     87 H                     0.106602
     88 H                     0.115198
     89 H                     0.130722
     90 H                     0.124383
     91 H                     0.120862
     92 H                     0.131564
     93 H                     0.101050
     94 C                    -0.175813
     95 H                     0.115878
     96 H                     0.096558
     97 H                     0.115206
     98 C                    -0.184533
     99 H                     0.089791
    100 C                    -0.172110
    101 H                     0.096635
    102 H                     0.088958
    103 H                     0.092699
    104 C                    -0.173529
    105 H                     0.091236
    106 C                    -0.318980
    107 H                     0.095950
    108 H                     0.094602
    109 H                     0.098612
    110 H                     0.100767
  ----------------------------------------
  Sum of atomic charges =     0.000000

                    Cartesian Multipole Moments
 -----------------------------------------------------------------
    Charge (ESU x 10^10)
                 0.0000
    Dipole Moment (Debye)
         X      -1.8848      Y       2.2273      Z       0.6901
       Tot       2.9983
    Quadrupole Moments (Debye-Ang)
        XX    -407.3011     XY      16.6821     YY    -414.6617
        XZ      -0.5486     YZ       6.4336     ZZ    -425.4527

 Total job time:  80.64s(wall), 877.94s(cpu)
        *  Thank you very much for using Q-Chem.  Have a nice day.  *
