 Q-Chem 4.4, Q-Chem, Inc., Pleasanton, CA (2016)
 Q-Chem 4.4.2 for Intel X86 Linux

User input:
--------------------------------------------------------------
$comment
SP
$end

$rem
MEM_STATIC 5000
MEM_TOTAL 20000
JOBTYPE SP
EXCHANGE B3LYP
BASIS 6-31g(d,p)
$end

$molecule
0 1
C         -21.650000    -13.269000     -3.833000
C         -21.188000    -12.256000     -3.038000
N         -22.944000    -13.624000     -3.807000
C         -22.017000    -11.747000     -2.011000
C         -23.726000    -12.999000     -2.853000
C         -23.336000    -12.107000     -1.936000
C         -24.358000    -11.366000     -1.040000
C         -25.618000    -11.915000     -0.733000
C         -24.153000    -10.150000     -0.339000
N         -26.605000    -11.348000      0.015000
N         -22.997000     -9.409000     -0.402000
C         -25.096000     -9.549000      0.442000
C         -26.389000    -10.189000      0.614000
S         -23.174000     -8.111000      0.528000
N         -24.727000     -8.357000      1.066000
C         -27.462000     -9.553000      1.384000
S         -27.359000     -7.944000      2.183000
C         -28.627000    -10.175000      1.693000
C         -29.032000     -8.121000      2.806000
S         -29.288000    -11.629000      1.067000
C         -29.508000     -9.380000      2.395000
C         -29.788000     -7.140000      3.496000
C         -30.758000    -11.264000      1.926000
C         -30.780000    -10.045000      2.603000
N         -30.817000     -7.452000      4.290000
S         -29.291000     -5.428000      3.475000
C         -31.315000     -6.300000      4.793000
C         -30.566000     -5.158000      4.637000
C         -20.803000    -13.896000     -4.992000
H         -20.140000    -11.988000     -3.128000
H         -21.527000    -11.176000     -1.228000
H         -24.745000    -13.360000     -2.980000
H         -25.972000    -12.873000     -1.109000
H         -31.520000    -12.029000      1.869000
H         -31.645000     -9.580000      3.061000
H         -32.222000     -6.397000      5.376000
H         -30.720000     -4.205000      5.124000
H         -19.758000    -13.700000     -4.721000
C         -21.245000    -13.384000     -6.352000
H         -20.854000    -14.992000     -4.996000
H         -21.060000    -12.306000     -6.446000
H         -22.339000    -13.449000     -6.414000
C         -20.547000    -14.134000     -7.480000
H         -19.486000    -13.859000     -7.423000
C         -21.054000    -13.579000     -8.861000
H         -20.729000    -15.214000     -7.533000
H         -20.750000    -12.526000     -8.834000
H         -22.138000    -13.416000     -8.818000
C         -20.581000    -14.309000    -10.106000
H         -19.620000    -14.748000     -9.810000
C         -20.281000    -13.477000    -11.429000
H         -21.353000    -15.072000    -10.264000
H         -19.624000    -14.040000    -12.104000
H         -19.642000    -12.620000    -11.185000
H         -21.139000    -13.078000    -11.984000
C         -20.182000    -11.778000      2.353000
C         -19.523000    -12.961000      1.945000
N         -21.521000    -11.694000      2.637000
C         -20.339000    -14.061000      1.566000
C         -22.251000    -12.834000      2.299000
C         -21.697000    -14.051000      1.748000
C         -22.452000    -15.285000      1.304000
C         -23.496000    -15.779000      2.150000
C         -22.411000    -15.802000     -0.031000
N         -24.226000    -16.851000      1.916000
N         -21.555000    -15.367000     -0.967000
C         -23.229000    -16.900000     -0.301000
C         -24.050000    -17.514000      0.730000
S         -21.938000    -16.444000     -2.102000
N         -23.127000    -17.353000     -1.512000
C         -24.679000    -18.822000      0.445000
S         -24.316000    -19.981000     -0.878000
C         -25.521000    -19.456000      1.403000
C         -25.196000    -21.234000     -0.036000
S         -26.188000    -18.805000      2.913000
C         -25.840000    -20.760000      1.055000
C         -25.208000    -22.587000     -0.489000
C         -26.778000    -20.495000      3.152000
C         -26.503000    -21.353000      2.076000
N         -26.130000    -23.446000     -0.008000
S         -24.250000    -23.156000     -1.790000
C         -25.872000    -24.695000     -0.549000
C         -24.912000    -24.729000     -1.545000
C         -19.373000    -10.585000      2.695000
H         -18.449000    -13.048000      1.807000
H         -19.877000    -14.982000      1.223000
H         -23.276000    -12.718000      2.647000
H         -23.821000    -15.302000      3.073000
H         -27.195000    -20.751000      4.117000
H         -26.670000    -22.423000      2.049000
H         -26.384000    -25.598000     -0.242000
H         -24.568000    -25.572000     -2.129000
H         -19.419000    -10.377000      3.771000
C         -19.620000     -9.415000      1.720000
H         -18.347000    -10.933000      2.521000
H         -20.676000     -9.134000      1.628000
H         -19.325000     -9.664000      0.693000
C         -18.849000     -8.115000      2.174000
H         -19.261000     -7.291000      1.578000
C         -17.336000     -8.104000      1.969000
H         -19.086000     -7.908000      3.225000
H         -17.075000     -7.891000      0.925000
H         -16.875000     -9.037000      2.315000
C         -16.605000     -7.082000      2.882000
H         -16.822000     -6.062000      2.541000
C         -15.049000     -7.181000      2.756000
H         -17.021000     -7.334000      3.866000
H         -14.638000     -6.767000      1.827000
H         -14.705000     -8.203000      2.962000
H         -14.629000     -6.562000      3.558000
$end

--------------------------------------------------------------

             Standard Nuclear Orientation (Angstroms)
    I     Atom           X                Y                Z
 ----------------------------------------------------------------
    1      C       1.4629996878    -3.9843709422     1.7780385549
    2      C       0.3416862822    -4.2754770245     1.0503356655
    3      N       1.5777841873    -2.8108761266     2.4190310950
    4      C      -0.5889878197    -3.2479435938     0.7691386444
    5      C       0.5688340673    -1.8931606982     2.1908139885
    6      C      -0.4888288413    -2.0283128149     1.3835122622
    7      C      -1.6271990084    -0.9796142004     1.3565756971
    8      C      -1.4127590257     0.3647260412     1.7171513599
    9      C      -2.9509391192    -1.1703234839     0.8838981237
   10      N      -2.3364430340     1.3647691070     1.7605531965
   11      N      -3.4379886279    -2.3678293313     0.4168344005
   12      C      -3.9096118247    -0.2000898337     0.8818226055
   13      C      -3.5732643212     1.1319804066     1.3545722557
   14      S      -4.9716811020    -2.1594917113    -0.0137649851
   15      N      -5.1603441664    -0.5549779069     0.3757355923
   16      C      -4.5823350828     2.1917808265     1.4401541942
   17      S      -6.3211062861     2.0125456384     1.0130237105
   18      C      -4.2847794213     3.4821597534     1.7333654714
   19      C      -6.6202806311     3.7356812068     1.4126304227
   20      S      -2.8353759696     4.1535084219     2.3590120167
   21      C      -5.3904681690     4.3035832576     1.7942409161
   22      C      -7.8761577414     4.3927107384     1.4455223445
   23      C      -3.6826890906     5.6629894421     2.5475153979
   24      C      -5.0385216697     5.6440518886     2.2217342037
   25      N      -7.9978923766     5.7181555409     1.3230570270
   26      S      -9.3922179558     3.4553156175     1.4808184299
   27      C      -9.3138786864     6.0205093314     1.3929084239
   28      C     -10.2133578730     4.9853939596     1.2981753256
   29      C       2.5481874847    -5.0559113433     2.1357921212
   30      H       0.2884631660    -5.2540846010     0.5837282169
   31      H      -1.2881517470    -3.4327719808    -0.0409467031
   32      H       0.7814127717    -1.0172593021     2.8010746202
   33      H      -0.4559404701     0.7588408648     2.0542385257
   34      H      -3.0719980082     6.4879890652     2.8874418955
   35      H      -5.7566303898     6.4323431512     2.4144276166
   36      H      -9.5514711544     7.0765334380     1.4105125576
   37      H     -11.2823199443     5.0608793937     1.1542446502
   38      H       2.4494775400    -5.8312059229     1.3656903996
   39      C       2.4207131506    -5.5267903327     3.5742396425
   40      H       3.5674439693    -4.6816934492     1.9779625089
   41      H       1.4705280651    -6.0530315751     3.7334987334
   42      H       2.3237379667    -4.6480967744     4.2249303864
   43      C       3.5872944845    -6.4242475778     3.9688869339
   44      H       3.4838440224    -7.3427217518     3.3770269898
   45      C       3.4155704172    -6.8658117764     5.4681423835
   46      H       4.5856158513    -5.9726768737     3.9267995509
   47      H       2.4703829720    -7.4212218700     5.4584304660
   48      H       3.0740221731    -6.0128532272     6.0675425089
   49      C       4.5634261610    -7.6443992323     6.0869175971
   50      H       5.0379284050    -8.1450668686     5.2336664393
   51      C       4.2449382002    -8.7980178615     7.1358611023
   52      H       5.2020779662    -6.8619270142     6.5146769917
   53      H       5.0887078748    -9.4947764198     7.2184640544
   54      H       3.4699492379    -9.4584373736     6.7289898987
   55      H       3.9052254678    -8.4972268013     8.1346153251
   56      C      -1.6218329445    -2.5681045503    -3.8007335445
   57      C      -0.2803330864    -2.9448298039    -4.0429941765
   58      N      -2.0057492000    -1.3642491790    -3.2678418538
   59      C       0.7355753055    -2.1331671030    -3.4697308868
   60      C      -0.9512280197    -0.5899827614    -2.7828257770
   61      C       0.4496384935    -0.9418052607    -2.8563100685
   62      C       1.6211407507    -0.1710274678    -2.2876264522
   63      C       1.6512043262     1.2479662986    -2.4753519765
   64      C       2.5276232759    -0.7079923747    -1.3174959866
   65      N       2.6096648994     2.0529992294    -2.0629016038
   66      N       2.5503909972    -2.0006955660    -0.9618879298
   67      C       3.5073910165     0.1586978375    -0.8311512009
   68      C       3.6283179170     1.5246847706    -1.3143223747
   69      S       3.8503052038    -1.9227584879    -0.0137361132
   70      N       4.3252076774    -0.3859693756     0.0153991733
   71      C       4.8400000619     2.2943968331    -0.9578118972
   72      S       6.3960398387     1.6976241245    -0.2884976606
   73      C       4.9989872170     3.6473944931    -1.3735094034
   74      C       7.1646150285     3.2130893410    -0.6959658868
   75      S       3.8111670442     4.7391704024    -2.1123589152
   76      C       6.2767400231     4.1325965985    -1.1385462503
   77      C       8.5706600490     3.4115956664    -0.5559850341
   78      C       5.2236797370     5.8534917270    -2.2686179254
   79      C       6.4067014870     5.3587401132    -1.6983150413
   80      N       9.0759220286     4.6619964277    -0.5790992724
   81      S       9.6637324813     2.1617196414    -0.1351185708
   82      C      10.4557083034     4.5655888186    -0.5007321319
   83      C      10.9531619095     3.3018263976    -0.2357482587
   84      C      -2.7144355802    -3.4208129283    -4.3239943806
   85      H       0.0180155113    -3.8599430236    -4.5466258965
   86      H       1.7796030885    -2.3975143532    -3.6092318534
   87      H      -1.3341939455     0.3804901248    -2.4718523429
   88      H       0.8644920871     1.8239208607    -2.9595453213
   89      H       5.0953551863     6.7489324432    -2.8622244731
   90      H       7.3899912338     5.8079433706    -1.7681413068
   91      H      11.1227465301     5.4098232178    -0.6196029999
   92      H      11.9800955941     2.9901852579    -0.1003672873
   93      H      -3.2517312445    -2.9137510143    -5.1347702957
   94      C      -3.5463643945    -4.0604360732    -3.1929282109
   95      H      -2.1682541968    -4.2350225069    -4.8167465074
   96      H      -3.9518303871    -3.3331793401    -2.4793064813
   97      H      -2.9456168943    -4.7331648745    -2.5681935465
   98      C      -4.7801908391    -4.8594258313    -3.7672492633
   99      H      -5.4328767036    -5.0714068923    -2.9110943754
  100      C      -4.4816568700    -6.1946335087    -4.4450493279
  101      H      -5.3396927064    -4.2091387504    -4.4511376846
  102      H      -4.3137269589    -6.9892396275    -3.7076032885
  103      H      -3.6411182247    -6.1130869343    -5.1447427907
  104      C      -5.6045862741    -6.6487484967    -5.4172751921
  105      H      -6.4886367730    -6.9527919427    -4.8430084438
  106      C      -5.2206896664    -7.9461792032    -6.2022019126
  107      H      -5.7424112579    -5.7459276057    -6.0261550757
  108      H      -5.2524950988    -8.8671572124    -5.6071003070
  109      H      -4.2721609919    -7.8116881428    -6.7383562824
  110      H      -5.9820513728    -8.0793332593    -6.9802529067
 ----------------------------------------------------------------

    9   -5663.4998597720      9.07E-06 Convergence criterion met
 Total energy in the final basis set = -5663.4998597720

                    Orbital Energies (a.u.)
 --------------------------------------------------------------

 Alpha MOs
 -- Occupied --
-88.989 -88.979 -88.928 -88.928 -88.924 -88.923 -88.913 -88.906
-14.387 -14.387 -14.387 -14.378 -14.347 -14.346 -14.345 -14.342
-14.337 -14.328 -10.267 -10.267 -10.263 -10.261 -10.254 -10.253
-10.252 -10.248 -10.245 -10.239 -10.238 -10.237 -10.236 -10.234
-10.234 -10.232 -10.231 -10.231 -10.229 -10.227 -10.226 -10.225
-10.224 -10.223 -10.220 -10.220 -10.220 -10.219 -10.215 -10.213
-10.206 -10.205 -10.205 -10.200 -10.197 -10.196 -10.193 -10.188
-10.186 -10.185 -10.183 -10.182 -10.181 -10.180 -10.179 -10.179
-10.176 -10.176 -10.175 -10.170  -8.043  -8.036  -7.990  -7.986
 -7.985  -7.981  -7.971  -7.966  -6.008  -6.003  -6.002  -6.001
 -5.995  -5.994  -5.954  -5.951  -5.950  -5.948  -5.947  -5.947
 -5.946  -5.945  -5.943  -5.942  -5.942  -5.938  -5.935  -5.932
 -5.931  -5.927  -5.927  -5.923  -1.063  -1.028  -0.968  -0.968
 -0.959  -0.953  -0.937  -0.932  -0.923  -0.913  -0.911  -0.889
 -0.842  -0.841  -0.834  -0.829  -0.812  -0.809  -0.805  -0.804
 -0.803  -0.802  -0.798  -0.793  -0.782  -0.780  -0.765  -0.762
 -0.750  -0.749  -0.740  -0.738  -0.722  -0.719  -0.706  -0.706
 -0.693  -0.689  -0.671  -0.669  -0.655  -0.651  -0.648  -0.642
 -0.638  -0.635  -0.624  -0.623  -0.609  -0.605  -0.596  -0.594
 -0.592  -0.588  -0.585  -0.581  -0.579  -0.579  -0.570  -0.564
 -0.558  -0.550  -0.538  -0.535  -0.519  -0.517  -0.513  -0.509
 -0.507  -0.501  -0.492  -0.489  -0.487  -0.487  -0.480  -0.478
 -0.471  -0.470  -0.468  -0.465  -0.464  -0.458  -0.446  -0.445
 -0.441  -0.440  -0.439  -0.434  -0.433  -0.432  -0.430  -0.429
 -0.427  -0.424  -0.423  -0.421  -0.416  -0.413  -0.411  -0.410
 -0.407  -0.407  -0.403  -0.402  -0.399  -0.398  -0.395  -0.392
 -0.392  -0.390  -0.389  -0.387  -0.385  -0.382  -0.379  -0.377
 -0.377  -0.375  -0.374  -0.373  -0.364  -0.362  -0.358  -0.355
 -0.354  -0.353  -0.352  -0.352  -0.347  -0.345  -0.344  -0.342
 -0.340  -0.336  -0.334  -0.333  -0.331  -0.329  -0.325  -0.325
 -0.318  -0.311  -0.309  -0.307  -0.304  -0.302  -0.301  -0.298
 -0.296  -0.296  -0.292  -0.291  -0.284  -0.283  -0.282  -0.280
 -0.272  -0.271  -0.267  -0.264  -0.257  -0.255  -0.254  -0.248
 -0.247  -0.246  -0.234  -0.227  -0.191  -0.191

          Ground-State Mulliken Net Atomic Charges

     Atom                 Charge (a.u.)
  ----------------------------------------
      1 C                     0.253395
      2 C                    -0.107241
      3 N                    -0.483933
      4 C                    -0.092751
      5 C                     0.014901
      6 C                     0.122233
      7 C                     0.077402
      8 C                     0.024624
      9 C                     0.219039
     10 N                    -0.542074
     11 N                    -0.559425
     12 C                     0.189604
     13 C                     0.336062
     14 S                     0.620100
     15 N                    -0.571311
     16 C                    -0.220006
     17 S                     0.332633
     18 C                    -0.105242
     19 C                    -0.226941
     20 S                     0.302821
     21 C                     0.136226
     22 C                     0.038442
     23 C                    -0.317678
     24 C                    -0.046219
     25 N                    -0.414554
     26 S                     0.263017
     27 C                     0.124784
     28 C                    -0.304769
     29 C                    -0.217850
     30 H                     0.085712
     31 H                     0.132443
     32 H                     0.099924
     33 H                     0.114668
     34 H                     0.127602
     35 H                     0.122450
     36 H                     0.106981
     37 H                     0.134347
     38 H                     0.086443
     39 C                    -0.172524
     40 H                     0.112189
     41 H                     0.093418
     42 H                     0.121680
     43 C                    -0.181309
     44 H                     0.096143
     45 C                    -0.183875
     46 H                     0.097154
     47 H                     0.083111
     48 H                     0.088895
     49 C                    -0.176682
     50 H                     0.095577
     51 C                    -0.329245
     52 H                     0.100340
     53 H                     0.103616
     54 H                     0.102527
     55 H                     0.107117
     56 C                     0.258337
     57 C                    -0.119840
     58 N                    -0.473504
     59 C                    -0.068483
     60 C                     0.050722
     61 C                     0.057458
     62 C                    -0.046350
     63 C                     0.067700
     64 C                     0.230645
     65 N                    -0.517677
     66 N                    -0.522036
     67 C                     0.198473
     68 C                     0.308526
     69 S                     0.599932
     70 N                    -0.535696
     71 C                    -0.222498
     72 S                     0.326180
     73 C                    -0.136632
     74 C                    -0.233455
     75 S                     0.295919
     76 C                     0.199558
     77 C                     0.061544
     78 C                    -0.319261
     79 C                    -0.059785
     80 N                    -0.446006
     81 S                     0.280970
     82 C                     0.122839
     83 C                    -0.307056
     84 C                    -0.217324
     85 H                     0.095089
     86 H                     0.099755
     87 H                     0.105444
     88 H                     0.114300
     89 H                     0.126299
     90 H                     0.126231
     91 H                     0.114981
     92 H                     0.135846
     93 H                     0.117629
     94 C                    -0.187517
     95 H                     0.096154
     96 H                     0.113209
     97 H                     0.094455
     98 C                    -0.182811
     99 H                     0.084473
    100 C                    -0.165783
    101 H                     0.091407
    102 H                     0.088617
    103 H                     0.089393
    104 C                    -0.177400
    105 H                     0.093661
    106 C                    -0.324450
    107 H                     0.094339
    108 H                     0.106985
    109 H                     0.100333
    110 H                     0.102174
  ----------------------------------------
  Sum of atomic charges =     0.000000

                    Cartesian Multipole Moments
 -----------------------------------------------------------------
    Charge (ESU x 10^10)
                 0.0000
    Dipole Moment (Debye)
         X       1.0171      Y      -2.3745      Z      -1.3486
       Tot       2.9140
    Quadrupole Moments (Debye-Ang)
        XX    -375.9019     XY      -1.1814     YY    -418.9049
        XZ      -7.3986     YZ       8.2194     ZZ    -449.3178

 Total job time:  86.42s(wall), 1027.27s(cpu)
        *  Thank you very much for using Q-Chem.  Have a nice day.  *
