 Q-Chem 4.4, Q-Chem, Inc., Pleasanton, CA (2016)
 Q-Chem 4.4.2 for Intel X86 Linux

User input:
--------------------------------------------------------------
$comment
SP
$end

$rem
MEM_STATIC 5000
MEM_TOTAL 20000
JOBTYPE SP
EXCHANGE B3LYP
BASIS 6-31g(d,p)
$end

$molecule
0 1
C          -0.289000    -18.867000     -6.135000
C           0.213000    -18.196000     -4.960000
N          -1.017000    -20.026000     -5.984000
C          -0.030000    -18.645000     -3.711000
C          -1.214000    -20.508000     -4.727000
C          -0.844000    -19.812000     -3.568000
C          -1.356000    -20.308000     -2.258000
C          -2.766000    -20.425000     -2.037000
C          -0.562000    -20.584000     -1.112000
N          -3.295000    -20.571000     -0.813000
N           0.744000    -20.313000     -1.116000
C          -1.091000    -20.780000      0.173000
C          -2.536000    -20.863000      0.273000
S           1.302000    -20.674000      0.375000
N          -0.144000    -20.871000      1.077000
C          -3.332000    -21.050000      1.526000
S          -5.015000    -20.426000      1.644000
C          -3.023000    -21.762000      2.612000
C          -5.217000    -21.129000      3.246000
S          -1.638000    -22.756000      2.977000
C          -4.086000    -21.786000      3.555000
C          -6.474000    -21.107000      4.000000
C          -2.469000    -23.194000      4.506000
C          -3.670000    -22.566000      4.642000
N          -7.523000    -21.099000      3.245000
S          -6.641000    -21.334000      5.761000
C          -8.556000    -21.221000      4.048000
C          -8.349000    -21.332000      5.398000
C          -0.158000    -18.269000     -7.498000
H           0.846000    -17.328000     -5.113000
H           0.295000    -18.016000     -2.888000
H          -1.590000    -21.527000     -4.645000
H          -3.435000    -20.054000     -2.812000
H          -2.033000    -23.984000      5.103000
H          -4.308000    -22.780000      5.492000
H          -9.508000    -21.296000      3.538000
H          -9.003000    -21.354000      6.259000
H           0.646000    -17.523000     -7.485000
C          -1.491000    -17.623000     -8.069000
H           0.234000    -19.047000     -8.164000
H          -1.687000    -16.709000     -7.495000
H          -2.317000    -18.320000     -7.879000
C          -1.288000    -17.264000     -9.559000
H          -0.295000    -16.797000     -9.564000
C          -2.406000    -16.382000    -10.140000
H          -1.212000    -18.187000    -10.147000
H          -2.223000    -15.366000     -9.770000
H          -3.410000    -16.739000     -9.883000
C          -2.554000    -16.418000    -11.665000
H          -2.889000    -17.435000    -11.904000
C          -1.332000    -16.118000    -12.505000
H          -3.371000    -15.755000    -11.974000
H          -1.108000    -15.075000    -12.250000
H          -1.288000    -16.263000    -13.592000
H          -0.581000    -16.792000    -12.077000
C           6.144000    -13.420000    -18.268000
C           6.697000    -12.594000    -17.231000
N           5.206000    -14.367000    -18.025000
C           6.166000    -12.711000    -15.945000
C           4.833000    -14.543000    -16.767000
C           5.167000    -13.669000    -15.672000
C           4.682000    -13.815000    -14.307000
C           5.452000    -13.848000    -13.158000
C           3.277000    -14.076000    -13.978000
N           5.017000    -13.958000    -11.920000
N           2.299000    -13.952000    -14.913000
C           2.760000    -14.156000    -12.669000
C           3.712000    -14.036000    -11.638000
S           0.885000    -14.159000    -14.073000
N           1.443000    -14.088000    -12.599000
C           3.330000    -13.861000    -10.195000
S           1.823000    -14.357000     -9.427000
C           4.145000    -13.552000     -9.152000
C           2.341000    -13.972000     -7.838000
S           5.810000    -13.050000     -9.174000
C           3.577000    -13.560000     -7.900000
C           1.586000    -14.194000     -6.633000
C           5.738000    -12.821000     -7.400000
C           4.526000    -13.185000     -6.902000
N           0.278000    -14.281000     -6.746000
S           2.290000    -14.524000     -5.055000
C          -0.278000    -14.525000     -5.501000
C           0.637000    -14.644000     -4.509000
C           6.604000    -13.304000    -19.725000
H           7.337000    -11.755000    -17.490000
H           6.406000    -11.926000    -15.234000
H           4.235000    -15.434000    -16.587000
H           6.514000    -13.624000    -13.248000
H           6.571000    -12.369000     -6.877000
H           4.315000    -13.063000     -5.846000
H          -1.358000    -14.579000     -5.457000
H           0.390000    -14.870000     -3.480000
H           5.878000    -12.628000    -20.194000
C           6.616000    -14.630000    -20.432000
H           7.558000    -12.770000    -19.808000
H           5.616000    -15.081000    -20.477000
H           7.315000    -15.220000    -19.826000
C           7.081000    -14.403000    -21.919000
H           6.266000    -13.935000    -22.486000
C           7.493000    -15.768000    -22.440000
H           7.927000    -13.714000    -21.808000
H           6.803000    -16.516000    -22.030000
H           8.421000    -16.136000    -21.986000
C           7.815000    -15.851000    -23.915000
H           7.158000    -16.593000    -24.385000
C           9.358000    -15.986000    -24.192000
H           7.638000    -14.862000    -24.355000
H           9.697000    -17.029000    -24.188000
H           9.967000    -15.311000    -23.578000
H           9.516000    -15.770000    -25.255000
$end

--------------------------------------------------------------

             Standard Nuclear Orientation (Angstroms)
    I     Atom           X                Y                Z
 ----------------------------------------------------------------
    1      C       1.7754055350    -1.0982106126    -0.8222377389
    2      C       2.3740750247     0.1784044127    -0.5144733495
    3      N       2.5581326344    -2.0895554393    -1.3705439694
    4      C       3.6843371919     0.4304154290    -0.7153576464
    5      C       3.8665157168    -1.8158152058    -1.6242800416
    6      C       4.4978807714    -0.6307178273    -1.2223853151
    7      C       5.9851802329    -0.5633858754    -1.3099451238
    8      C       6.7887151973    -1.5211061542    -0.6115659799
    9      C       6.7290298543     0.4642111831    -1.9507727339
   10      N       8.1019863990    -1.3456390466    -0.4021309185
   11      N       6.1074666786     1.5301231461    -2.4573138535
   12      C       8.1100187793     0.6473577136    -1.7810407759
   13      C       8.8135155031    -0.3814039023    -1.0383053605
   14      S       7.2705050047     2.5240024585    -3.0267976236
   15      N       8.5266057144     1.7484264195    -2.3610485607
   16      C      10.2736701724    -0.4026999450    -0.7125925729
   17      S      10.8738400657    -1.2618248276     0.7494230000
   18      C      11.2981232767     0.0402327283    -1.4447998415
   19      C      12.5483602719    -0.9192492670     0.3251105394
   20      S      11.3483409941     0.7576662317    -3.0329602078
   21      C      12.5514309202    -0.2551795955    -0.8433470091
   22      C      13.7046829253    -1.4293263260     1.0679350915
   23      C      13.1368130659     0.7342773224    -2.8878168061
   24      C      13.5537008984     0.2334175376    -1.6917294301
   25      N      13.4833315852    -2.5667409618     1.6404571700
   26      S      15.3558455951    -0.7568988311     1.0227454698
   27      C      14.6340259596    -2.9580400220     2.1400264869
   28      C      15.7432461428    -2.1716420434     1.9700888388
   29      C       0.3674876072    -1.4191695889    -0.4384585782
   30      H       1.7176010647     0.9636953986    -0.1540818856
   31      H       4.0659116534     1.3800637286    -0.3531918870
   32      H       4.4028609482    -2.5231232473    -2.2555566269
   33      H       6.2833806277    -2.2246112527     0.0483920106
   34      H      13.7128785145     0.9823610728    -3.7694108464
   35      H      14.6110607282     0.1074602523    -1.4880999808
   36      H      14.6088540452    -3.9394326162     2.5963859404
   37      H      16.7578671494    -2.2133781077     2.3420072626
   38      H      -0.1790857608    -0.4832026599    -0.2701598524
   39      C       0.2254207215    -2.3677021530     0.8265904228
   40      H      -0.1274121594    -1.8421162387    -1.3208951778
   41      H       0.5193276758    -1.7867120016     1.7094024901
   42      H       0.9404593083    -3.1928495915     0.7168793284
   43      C      -1.2480078335    -2.8138442188     0.9685606675
   44      H      -1.8021335805    -1.8818971042     0.7994978622
   45      C      -1.5589873925    -3.5018304392     2.3084769614
   46      H      -1.5020148990    -3.4926471742     0.1450584159
   47      H      -1.6269083753    -2.7041325492     3.0579499872
   48      H      -0.8174622664    -4.2613771975     2.5818690045
   49      C      -2.7977884452    -4.4041007496     2.3187355532
   50      H      -2.5546998361    -5.2448600318     1.6571716805
   51      C      -4.1121954169    -3.8119981629     1.8597880186
   52      H      -2.9313737083    -4.8391726209     3.3164361316
   53      H      -4.3040020101    -3.0308190682     2.6054551379
   54      H      -5.0199436887    -4.4034625215     1.6845938763
   55      H      -3.8459378174    -3.3688621448     0.8932486452
   56      C     -12.9537101075    -0.1033254653    -0.2509734077
   57      C     -12.5419542068     1.2123147535     0.1527615214
   58      N     -12.0707341369    -1.0994393669    -0.5035848297
   59      C     -11.1834588077     1.4316156610     0.3890735239
   60      C     -10.7829961020    -0.8083220224    -0.4053481500
   61      C     -10.2463392662     0.4017183771     0.1623301673
   62      C      -8.8299349457     0.6808833710     0.3510937947
   63      C      -8.1480252967     1.8067942889    -0.0749506112
   64      C      -7.8915809387    -0.2856803316     0.9304325267
   65      N      -6.8722605302     2.0740202160     0.1120883265
   66      N      -8.3322002896    -1.4094187009     1.5542527453
   67      C      -6.5303796585    -0.0271810022     1.1902000600
   68      C      -6.0712696181     1.2413918031     0.7857176643
   69      S      -6.9675669665    -2.0961669398     2.1976793143
   70      N      -5.9513207008    -0.9081785135     1.9855283624
   71      C      -4.7282677478     1.7852663881     1.1848973383
   72      S      -3.2989654612     0.8590972821     1.6389840711
   73      C      -4.2605328759     3.0500037889     1.0139634429
   74      C      -2.2635827361     2.2243978124     1.7125168845
   75      S      -5.1153653085     4.4737561091     0.4973360696
   76      C      -2.9494435491     3.2764571951     1.3603095586
   77      C      -0.8507682505     2.1916933173     1.9849497114
   78      C      -3.6314900062     5.4353094251     0.7770328837
   79      C      -2.5954867751     4.6457197770     1.1677879127
   80      N      -0.3852266578     1.1509666549     2.6417305270
   81      S       0.3177142633     3.3497196176     1.3618737106
   82      C       0.9871411449     1.2717056295     2.7856948072
   83      C       1.5010297079     2.3815186693     2.2028710246
   84      C     -14.4297476012    -0.4615623242    -0.4531729873
   85      H     -13.2835115977     1.9349043137     0.4822443944
   86      H     -10.9110280560     2.3360719929     0.9248778063
   87      H     -10.1106260424    -1.5654104905    -0.8036201104
   88      H      -8.7291167713     2.6309675670    -0.4862790758
   89      H      -3.6617347568     6.5145944667     0.6998898091
   90      H      -1.6389025482     5.0902629656     1.4165226514
   91      H       1.4840635695     0.4908777607     3.3466118627
   92      H       2.5556464008     2.6229833641     2.1827605272
   93      H     -14.7420945239    -0.9066886800     0.4998825867
   94      C     -14.6364764470    -1.4364121621    -1.5779840727
   95      H     -15.0554188393     0.4339116714    -0.5471028818
   96      H     -14.1273439003    -2.3914240038    -1.3931532526
   97      H     -14.2216518727    -0.9004031628    -2.4408582960
   98      C     -16.1743064872    -1.7542614744    -1.6918857063
   99      H     -16.4707504818    -2.4111814826    -0.8640481250
  100      C     -16.3731899802    -2.3643061788    -3.0676403410
  101      H     -16.6364371250    -0.7647529462    -1.5915555207
  102      H     -15.5092288068    -3.0030840987    -3.2895363978
  103      H     -16.2507554771    -1.6367525926    -3.8790585880
  104      C     -17.7472520964    -2.9245545317    -3.3579386077
  105      H     -17.6548545478    -3.9861300448    -3.6180022980
  106      C     -18.5763061112    -2.0179229785    -4.3410416884
  107      H     -18.3554334251    -2.8124853980    -2.4520655589
  108      H     -18.3926550252    -2.2612983942    -5.3945248091
  109      H     -18.5047898307    -0.9488385466    -4.1055721592
  110      H     -19.6206073448    -2.3455531922    -4.2803590988
 ----------------------------------------------------------------

    9   -5663.4909307348      6.97E-06 Convergence criterion met
 Total energy in the final basis set = -5663.4909307348

                    Orbital Energies (a.u.)
 --------------------------------------------------------------

 Alpha MOs
 -- Occupied --
-88.988 -88.986 -88.938 -88.932 -88.919 -88.913 -88.907 -88.906
-14.382 -14.379 -14.377 -14.375 -14.348 -14.348 -14.347 -14.342
-14.332 -14.328 -10.274 -10.270 -10.266 -10.266 -10.257 -10.255
-10.253 -10.250 -10.238 -10.237 -10.235 -10.234 -10.234 -10.233
-10.233 -10.232 -10.232 -10.231 -10.231 -10.229 -10.227 -10.226
-10.225 -10.225 -10.224 -10.223 -10.223 -10.222 -10.217 -10.213
-10.212 -10.206 -10.202 -10.202 -10.201 -10.200 -10.198 -10.192
-10.183 -10.183 -10.180 -10.176 -10.174 -10.174 -10.173 -10.172
-10.172 -10.172 -10.167 -10.166  -8.044  -8.042  -7.999  -7.993
 -7.979  -7.972  -7.967  -7.966  -6.009  -6.007  -6.004  -6.002
 -6.001  -5.999  -5.963  -5.960  -5.957  -5.956  -5.954  -5.950
 -5.944  -5.940  -5.937  -5.936  -5.933  -5.932  -5.930  -5.928
 -5.928  -5.926  -5.923  -5.922  -1.046  -1.045  -0.995  -0.978
 -0.966  -0.951  -0.942  -0.930  -0.924  -0.914  -0.905  -0.904
 -0.850  -0.841  -0.833  -0.826  -0.817  -0.816  -0.814  -0.808
 -0.807  -0.802  -0.801  -0.796  -0.785  -0.784  -0.773  -0.766
 -0.752  -0.747  -0.741  -0.739  -0.727  -0.719  -0.712  -0.710
 -0.697  -0.689  -0.679  -0.674  -0.656  -0.652  -0.643  -0.639
 -0.636  -0.632  -0.627  -0.617  -0.614  -0.614  -0.606  -0.604
 -0.596  -0.595  -0.585  -0.581  -0.576  -0.573  -0.569  -0.553
 -0.549  -0.545  -0.545  -0.544  -0.529  -0.528  -0.523  -0.521
 -0.512  -0.506  -0.504  -0.496  -0.489  -0.487  -0.479  -0.476
 -0.475  -0.473  -0.468  -0.467  -0.465  -0.461  -0.450  -0.448
 -0.447  -0.445  -0.441  -0.441  -0.440  -0.439  -0.435  -0.435
 -0.434  -0.431  -0.425  -0.423  -0.420  -0.417  -0.416  -0.416
 -0.413  -0.409  -0.405  -0.403  -0.403  -0.399  -0.398  -0.397
 -0.394  -0.392  -0.390  -0.389  -0.386  -0.385  -0.381  -0.381
 -0.379  -0.378  -0.371  -0.367  -0.366  -0.362  -0.357  -0.355
 -0.353  -0.349  -0.348  -0.345  -0.342  -0.340  -0.339  -0.338
 -0.337  -0.335  -0.334  -0.333  -0.329  -0.324  -0.314  -0.311
 -0.311  -0.308  -0.307  -0.304  -0.303  -0.303  -0.303  -0.301
 -0.299  -0.297  -0.297  -0.296  -0.292  -0.291  -0.286  -0.281
 -0.275  -0.270  -0.269  -0.260  -0.257  -0.255  -0.252  -0.247
 -0.245  -0.239  -0.233  -0.230  -0.201  -0.194

          Ground-State Mulliken Net Atomic Charges

     Atom                 Charge (a.u.)
  ----------------------------------------
      1 C                     0.258358
      2 C                    -0.119858
      3 N                    -0.484874
      4 C                    -0.033742
      5 C                     0.070070
      6 C                     0.017691
      7 C                    -0.019988
      8 C                     0.067020
      9 C                     0.205833
     10 N                    -0.485954
     11 N                    -0.531979
     12 C                     0.250677
     13 C                     0.269840
     14 S                     0.597950
     15 N                    -0.561236
     16 C                    -0.240493
     17 S                     0.328963
     18 C                    -0.095800
     19 C                    -0.223639
     20 S                     0.265199
     21 C                     0.159904
     22 C                     0.037473
     23 C                    -0.302872
     24 C                    -0.081777
     25 N                    -0.385027
     26 S                     0.271595
     27 C                     0.134474
     28 C                    -0.314465
     29 C                    -0.236150
     30 H                     0.094012
     31 H                     0.095655
     32 H                     0.108589
     33 H                     0.118128
     34 H                     0.130024
     35 H                     0.100833
     36 H                     0.105689
     37 H                     0.138162
     38 H                     0.103600
     39 C                    -0.178426
     40 H                     0.117825
     41 H                     0.099731
     42 H                     0.113776
     43 C                    -0.185835
     44 H                     0.116835
     45 C                    -0.172361
     46 H                     0.092248
     47 H                     0.102621
     48 H                     0.097366
     49 C                    -0.198321
     50 H                     0.087873
     51 C                    -0.319891
     52 H                     0.087740
     53 H                     0.114862
     54 H                     0.097918
     55 H                     0.108209
     56 C                     0.257401
     57 C                    -0.122895
     58 N                    -0.467247
     59 C                    -0.087561
     60 C                     0.107666
     61 C                     0.035646
     62 C                     0.047395
     63 C                     0.056332
     64 C                     0.167383
     65 N                    -0.510921
     66 N                    -0.534492
     67 C                     0.218164
     68 C                     0.302353
     69 S                     0.609504
     70 N                    -0.539290
     71 C                    -0.233465
     72 S                     0.337740
     73 C                    -0.120293
     74 C                    -0.244059
     75 S                     0.265304
     76 C                     0.188801
     77 C                     0.053818
     78 C                    -0.311223
     79 C                    -0.075734
     80 N                    -0.429546
     81 S                     0.278429
     82 C                     0.131436
     83 C                    -0.313920
     84 C                    -0.234513
     85 H                     0.093846
     86 H                     0.104201
     87 H                     0.104860
     88 H                     0.101869
     89 H                     0.130135
     90 H                     0.111909
     91 H                     0.123242
     92 H                     0.131321
     93 H                     0.115814
     94 C                    -0.170375
     95 H                     0.096160
     96 H                     0.125647
     97 H                     0.097844
     98 C                    -0.177696
     99 H                     0.097866
    100 C                    -0.177653
    101 H                     0.087856
    102 H                     0.092093
    103 H                     0.095289
    104 C                    -0.181060
    105 H                     0.095330
    106 C                    -0.331139
    107 H                     0.097532
    108 H                     0.103389
    109 H                     0.108014
    110 H                     0.097438
  ----------------------------------------
  Sum of atomic charges =     0.000000

                    Cartesian Multipole Moments
 -----------------------------------------------------------------
    Charge (ESU x 10^10)
                 0.0000
    Dipole Moment (Debye)
         X       2.0277      Y       4.4779      Z       0.4312
       Tot       4.9345
    Quadrupole Moments (Debye-Ang)
        XX    -355.1515     XY      -2.8844     YY    -433.3956
        XZ      -5.3134     YZ      -4.7691     ZZ    -444.7778

 Total job time:  83.59s(wall), 988.75s(cpu)
        *  Thank you very much for using Q-Chem.  Have a nice day.  *
