 Q-Chem 4.4, Q-Chem, Inc., Pleasanton, CA (2016)
 Q-Chem 4.4.2 for Intel X86 Linux

User input:
--------------------------------------------------------------
$comment
SP
$end

$rem
MEM_STATIC 5000
MEM_TOTAL 20000
JOBTYPE SP
EXCHANGE B3LYP
BASIS 6-31g(d,p)
$end

$molecule
0 1
C          10.039000     23.502000      2.700000
C          11.091000     23.724000      3.564000
N           8.955000     22.831000      3.147000
C          11.057000     23.390000      4.896000
C           8.930000     22.378000      4.415000
C           9.948000     22.666000      5.394000
C           9.978000     22.303000      6.812000
C          10.727000     22.965000      7.838000
C           9.333000     21.137000      7.309000
N          10.752000     22.554000      9.145000
N           8.676000     20.338000      6.495000
C           9.396000     20.738000      8.662000
C          10.089000     21.508000      9.653000
S           8.180000     19.114000      7.506000
N           8.760000     19.551000      8.919000
C          10.014000     21.319000     11.090000
S           8.906000     20.120000     11.926000
C          10.662000     22.031000     12.044000
C           9.396000     20.692000     13.564000
S          11.972000     23.101000     11.791000
C          10.309000     21.718000     13.379000
C           8.848000     20.167000     14.722000
C          11.840000     23.467000     13.553000
C          10.964000     22.590000     14.228000
N           8.738000     20.971000     15.786000
S           8.233000     18.541000     15.004000
C           8.189000     20.384000     16.849000
C           7.780000     19.065000     16.619000
C           9.939000     23.969000      1.240000
H          11.961000     24.261000      3.197000
H          11.905000     23.622000      5.534000
H           7.997000     21.844000      4.588000
H          11.202000     23.920000      7.618000
H          12.318000     24.353000     13.950000
H          10.691000     22.627000     15.276000
H           8.115000     20.946000     17.771000
H           7.245000     18.449000     17.329000
H          10.843000     24.556000      1.035000
C           8.781000     25.018000      1.138000
H          10.009000     23.147000      0.517000
H           8.796000     25.774000      1.932000
H           7.819000     24.526000      1.329000
C           8.685000     25.678000     -0.309000
H           7.937000     26.481000     -0.293000
C           8.590000     24.872000     -1.551000
H           9.604000     26.231000     -0.543000
H           7.865000     24.056000     -1.439000
H           9.596000     24.458000     -1.688000
C           8.299000     25.547000     -2.867000
H           7.301000     25.987000     -2.752000
C           8.234000     24.507000     -3.988000
H           8.996000     26.305000     -3.246000
H           9.244000     24.275000     -4.348000
H           7.765000     25.078000     -4.799000
H           7.716000     23.541000     -3.937000
C          12.008000     30.049000      6.049000
C          12.215000     28.938000      5.245000
N          11.090000     30.144000      7.078000
C          11.381000     27.819000      5.516000
C          10.361000     29.091000      7.255000
C          10.399000     27.911000      6.527000
C           9.476000     26.761000      6.872000
C           8.709000     26.164000      5.881000
C           9.249000     26.329000      8.222000
N           7.807000     25.176000      6.158000
N           9.949000     26.876000      9.230000
C           8.319000     25.387000      8.503000
C           7.579000     24.703000      7.454000
S           9.507000     25.879000     10.490000
N           8.242000     25.090000      9.797000
C           6.685000     23.555000      7.652000
S           6.581000     22.656000      9.052000
C           5.957000     22.896000      6.598000
C           5.590000     21.416000      8.254000
S           5.661000     23.421000      5.029000
C           5.333000     21.744000      6.996000
C           4.943000     20.313000      8.987000
C           4.548000     22.020000      4.806000
C           4.539000     21.228000      5.952000
N           5.206000     20.222000     10.264000
S           3.856000     19.039000      8.388000
C           4.846000     19.020000     10.780000
C           4.037000     18.234000      9.998000
C          12.879000     31.317000      5.862000
H          13.007000     28.866000      4.505000
H          11.457000     26.854000      5.024000
H           9.669000     29.134000      8.094000
H           8.667000     26.521000      4.853000
H           4.058000     21.911000      3.848000
H           3.848000     20.394000      5.918000
H           5.160000     18.820000     11.796000
H           3.564000     17.271000     10.137000
H          13.153000     31.751000      6.832000
C          12.425000     32.348000      4.769000
H          13.863000     30.906000      5.604000
H          11.334000     32.242000      4.817000
H          12.828000     32.080000      3.785000
C          12.645000     33.832000      5.257000
H          12.123000     33.945000      6.216000
C          12.211000     34.896000      4.277000
H          13.711000     33.891000      5.507000
H          12.509000     34.659000      3.248000
H          12.763000     35.812000      4.522000
C          10.691000     35.078000      4.374000
H          10.180000     34.137000      4.136000
C          10.134000     36.291000      3.563000
H          10.399000     35.244000      5.419000
H          10.271000     36.069000      2.498000
H          10.700000     37.185000      3.853000
H           9.074000     36.458000      3.789000
$end

--------------------------------------------------------------

             Standard Nuclear Orientation (Angstroms)
    I     Atom           X                Y                Z
 ----------------------------------------------------------------
    1      C       3.3328872450     3.1877654183    -2.1921048802
    2      C       3.0941729818     2.0020541213    -2.8551193753
    3      N       2.3490473937     3.7264714691    -1.4391367947
    4      C       1.9373116687     1.2757784869    -2.7097522360
    5      C       1.1546128448     3.1087709031    -1.3654474517
    6      C       0.8765082264     1.8198232622    -1.9476680286
    7      C      -0.3476456475     1.0222333227    -1.8544447399
    8      C      -0.4474416147    -0.3959992090    -2.0293111197
    9      C      -1.6288879020     1.6177003338    -1.6918799098
   10      N      -1.6297808287    -1.0865118417    -1.9739822183
   11      N      -1.7533718694     2.9258928669    -1.6158401945
   12      C      -2.8272396393     0.8717526910    -1.6559045288
   13      C      -2.8379954849    -0.5592447670    -1.7416983910
   14      S      -3.4005224698     3.1305738768    -1.5094748635
   15      N      -3.9563336937     1.6430429034    -1.5570509778
   16      C      -3.9733834354    -1.4237021501    -1.4772695071
   17      S      -5.5991627496    -0.8459967296    -0.8549680780
   18      C      -4.0078618277    -2.7763430028    -1.5556146661
   19      C      -6.2324032986    -2.5286893925    -0.7212526742
   20      S      -2.8350894203    -3.7755976806    -2.2979784377
   21      C      -5.2128324384    -3.3785788860    -1.1195403966
   22      C      -7.5011623577    -2.8021176136    -0.2391941113
   23      C      -3.8163449216    -5.1584634180    -1.6808528481
   24      C      -5.0616972581    -4.7519222761    -1.1555416469
   25      N      -7.6912616521    -3.9558910521     0.4114064659
   26      S      -8.9508480990    -1.8075200959    -0.3431750191
   27      C      -8.9382563750    -4.1271892823     0.8491279266
   28      C      -9.7814544418    -3.0386051840     0.5962570481
   29      C       4.6454308561     3.9858207304    -2.1870070737
   30      H       3.8883860517     1.5763342128    -3.4617050321
   31      H       1.8222557792     0.3306633481    -3.2327163999
   32      H       0.4839898411     3.6956659116    -0.7398333247
   33      H       0.4630862723    -0.9914075657    -2.0790891851
   34      H      -3.3781033225    -6.1471954083    -1.6428745379
   35      H      -5.8088838785    -5.3873841797    -0.6949959670
   36      H      -9.1932420094    -5.0595413698     1.3360631493
   37      H     -10.8031976802    -2.9527012047     0.9404114630
   38      H       5.3696604005     3.4036812049    -2.7704581341
   39      C       5.2296014815     3.9613221000    -0.7344529447
   40      H       4.5806747159     4.9287870683    -2.7437243520
   41      H       5.2154778950     2.9694962488    -0.2672495573
   42      H       4.5704789310     4.5242823661    -0.0616809161
   43      C       6.6691009325     4.6387052725    -0.6471696807
   44      H       7.0779076812     4.4942596658     0.3610869875
   45      C       6.9412380283     6.0067847667    -1.1526643875
   46      H       7.3923343788     4.0896966366    -1.2641371839
   47      H       6.1547414493     6.7067916202    -0.8437331067
   48      H       6.9372000977     5.9027145033    -2.2441560620
   49      C       8.2639672430     6.6684699786    -0.8615937689
   50      H       8.3028716323     6.7696568581     0.2297708191
   51      C       8.2947127003     8.0721708209    -1.4708102017
   52      H       9.1882364514     6.2002366602    -1.2228388241
   53      H       8.5723145961     8.0186595862    -2.5308091335
   54      H       9.1632441315     8.5170967509    -0.9693951342
   55      H       7.4845788488     8.8105895961    -1.4207916545
   56      C       5.9877129424    -3.7320927703    -0.4533023711
   57      C       5.8024223441    -2.6273150400    -1.2710551214
   58      N       5.1713798404    -4.1080763488     0.5968531485
   59      C       4.6736025095    -1.8188050737    -0.9657103728
   60      C       4.1734484882    -3.3168771032     0.8198234829
   61      C       3.8553662377    -2.1527940914     0.1360381192
   62      C       2.6369735422    -1.3398405980     0.5208495757
   63      C       2.7547721139     0.0247207131     0.7464042806
   64      C       1.3623526970    -1.9393718021     0.7975389980
   65      N       1.7006006548     0.7839089704     1.1692904648
   66      N       1.1850874231    -3.2583539745     0.6127795557
   67      C       0.3323060188    -1.1970415603     1.2656999242
   68      C       0.4342372353     0.2458947507     1.4186764890
   69      S      -0.4641648277    -3.3803117605     0.8178802910
   70      N      -0.7806896461    -1.8992001835     1.4575016914
   71      C      -0.6760850440     1.1479130526     1.7501752357
   72      S      -2.2886806301     0.7259966721     1.7269579243
   73      C      -0.5509231365     2.5749201950     1.9023794161
   74      C      -2.7965690375     2.4185996934     1.9103410692
   75      S       0.8399070355     3.5010015535     2.0839468966
   76      C      -1.7502437426     3.2225315850     2.0331982659
   77      C      -4.1964656182     2.8141035304     2.1477716450
   78      C      -0.1995916472     4.9361157300     2.4173967266
   79      C      -1.5444024639     4.5897248932     2.3071322469
   80      N      -5.0887737498     1.8593953084     2.1254689687
   81      S      -4.8833701991     4.4285095943     2.4398352642
   82      C      -6.3540222924     2.3386998510     2.0251032337
   83      C      -6.5203684806     3.6829223765     2.2469043777
   84      C       7.1701106363    -4.7001465921    -0.7106765959
   85      H       6.4120107707    -2.4118979584    -2.1440072570
   86      H       4.3509141932    -0.9585171337    -1.5443656335
   87      H       3.4944782201    -3.6282796250     1.6114432428
   88      H       3.7040894309     0.5583002974     0.7371059547
   89      H       0.2899502093     5.8799368019     2.6156277910
   90      H      -2.2365685716     5.3873168715     2.5499204583
   91      H      -7.1333520863     1.6064018121     1.8600679202
   92      H      -7.3803828631     4.3386395640     2.2757007659
   93      H       6.8587433535    -5.7438392568    -0.5761848234
   94      C       8.5576295665    -4.3264150690    -0.0791372329
   95      H       7.2472410440    -4.7118188584    -1.8050511472
   96      H       8.2426139061    -3.8273587002     0.8458108058
   97      H       9.1237892295    -3.6604832383    -0.7413207671
   98      C       9.3028446011    -5.6074489003     0.4616093577
   99      H       8.6226934970    -6.1161678419     1.1569750988
  100      C      10.6395262295    -5.3401481664     1.1117512975
  101      H       9.3751428222    -6.2772410578    -0.4035429024
  102      H      11.2383597877    -4.6149522508     0.5466820508
  103      H      11.2174539560    -6.2717372298     1.0678609830
  104      C      10.4107557665    -4.8535632488     2.5483556944
  105      H       9.8183143417    -3.9303858837     2.5467092557
  106      C      11.7120588155    -4.7359622385     3.4039954417
  107      H       9.7523412113    -5.5521285349     3.0806543085
  108      H      12.3155058757    -3.9244449986     2.9802391263
  109      H      12.2462847267    -5.6925456972     3.3470501840
  110      H      11.4716242579    -4.5301401588     4.4539447238
 ----------------------------------------------------------------

    9   -5663.4914600270      9.28E-06 Convergence criterion met
 Total energy in the final basis set = -5663.4914600270

                    Orbital Energies (a.u.)
 --------------------------------------------------------------

 Alpha MOs
 -- Occupied --
-88.979 -88.978 -88.932 -88.927 -88.924 -88.918 -88.911 -88.907
-14.385 -14.381 -14.380 -14.375 -14.346 -14.345 -14.339 -14.336
-14.325 -14.322 -10.270 -10.267 -10.267 -10.262 -10.252 -10.248
-10.248 -10.247 -10.244 -10.241 -10.240 -10.240 -10.237 -10.235
-10.233 -10.232 -10.231 -10.231 -10.228 -10.228 -10.227 -10.226
-10.226 -10.226 -10.224 -10.223 -10.219 -10.216 -10.213 -10.212
-10.208 -10.207 -10.207 -10.207 -10.204 -10.201 -10.196 -10.193
-10.191 -10.188 -10.182 -10.180 -10.180 -10.175 -10.175 -10.174
-10.174 -10.171 -10.171 -10.170  -8.034  -8.034  -7.992  -7.986
 -7.984  -7.976  -7.971  -7.967  -5.999  -5.999  -5.994  -5.994
 -5.992  -5.991  -5.956  -5.953  -5.950  -5.950  -5.948  -5.946
 -5.945  -5.943  -5.941  -5.941  -5.937  -5.935  -5.933  -5.932
 -5.932  -5.928  -5.927  -5.924  -1.040  -1.036  -0.972  -0.970
 -0.950  -0.943  -0.939  -0.934  -0.923  -0.913  -0.908  -0.904
 -0.854  -0.838  -0.829  -0.823  -0.807  -0.805  -0.804  -0.803
 -0.803  -0.797  -0.795  -0.793  -0.784  -0.783  -0.768  -0.761
 -0.753  -0.748  -0.743  -0.738  -0.732  -0.716  -0.711  -0.707
 -0.693  -0.692  -0.670  -0.668  -0.652  -0.650  -0.641  -0.638
 -0.638  -0.629  -0.623  -0.620  -0.613  -0.607  -0.603  -0.598
 -0.598  -0.593  -0.589  -0.587  -0.582  -0.581  -0.564  -0.560
 -0.557  -0.544  -0.538  -0.537  -0.522  -0.521  -0.515  -0.511
 -0.505  -0.502  -0.499  -0.496  -0.485  -0.484  -0.477  -0.476
 -0.472  -0.470  -0.467  -0.466  -0.463  -0.454  -0.448  -0.446
 -0.444  -0.443  -0.442  -0.438  -0.437  -0.437  -0.434  -0.430
 -0.429  -0.427  -0.426  -0.423  -0.420  -0.416  -0.415  -0.413
 -0.411  -0.409  -0.403  -0.402  -0.400  -0.396  -0.394  -0.393
 -0.392  -0.391  -0.389  -0.389  -0.387  -0.385  -0.382  -0.380
 -0.377  -0.375  -0.368  -0.367  -0.363  -0.360  -0.356  -0.355
 -0.352  -0.351  -0.349  -0.346  -0.345  -0.343  -0.341  -0.340
 -0.336  -0.335  -0.332  -0.329  -0.328  -0.327  -0.321  -0.318
 -0.315  -0.313  -0.307  -0.305  -0.305  -0.303  -0.299  -0.295
 -0.293  -0.292  -0.290  -0.286  -0.284  -0.281  -0.278  -0.273
 -0.271  -0.269  -0.265  -0.261  -0.254  -0.253  -0.252  -0.245
 -0.243  -0.241  -0.235  -0.227  -0.194  -0.191

          Ground-State Mulliken Net Atomic Charges

     Atom                 Charge (a.u.)
  ----------------------------------------
      1 C                     0.260707
      2 C                    -0.133955
      3 N                    -0.485159
      4 C                    -0.071741
      5 C                     0.112666
      6 C                     0.032070
      7 C                     0.049824
      8 C                     0.038804
      9 C                     0.250398
     10 N                    -0.568959
     11 N                    -0.566973
     12 C                     0.140856
     13 C                     0.346031
     14 S                     0.596102
     15 N                    -0.526450
     16 C                    -0.196920
     17 S                     0.309816
     18 C                    -0.118942
     19 C                    -0.216116
     20 S                     0.284122
     21 C                     0.204669
     22 C                     0.023349
     23 C                    -0.319614
     24 C                    -0.072721
     25 N                    -0.417735
     26 S                     0.272887
     27 C                     0.135582
     28 C                    -0.317845
     29 C                    -0.212036
     30 H                     0.076705
     31 H                     0.101954
     32 H                     0.133806
     33 H                     0.115408
     34 H                     0.127598
     35 H                     0.123340
     36 H                     0.116384
     37 H                     0.132034
     38 H                     0.091609
     39 C                    -0.181161
     40 H                     0.125490
     41 H                     0.097584
     42 H                     0.123511
     43 C                    -0.186977
     44 H                     0.081595
     45 C                    -0.154915
     46 H                     0.081224
     47 H                     0.089807
     48 H                     0.086300
     49 C                    -0.176916
     50 H                     0.094610
     51 C                    -0.323153
     52 H                     0.095849
     53 H                     0.101073
     54 H                     0.097169
     55 H                     0.105952
     56 C                     0.231115
     57 C                    -0.104711
     58 N                    -0.466633
     59 C                    -0.090694
     60 C                     0.110023
     61 C                     0.047145
     62 C                    -0.011819
     63 C                     0.067790
     64 C                     0.236046
     65 N                    -0.543322
     66 N                    -0.557450
     67 C                     0.217872
     68 C                     0.321582
     69 S                     0.607741
     70 N                    -0.564181
     71 C                    -0.210112
     72 S                     0.379671
     73 C                    -0.142325
     74 C                    -0.305293
     75 S                     0.297221
     76 C                     0.232868
     77 C                     0.067514
     78 C                    -0.310292
     79 C                    -0.096210
     80 N                    -0.416415
     81 S                     0.238187
     82 C                     0.133730
     83 C                    -0.320754
     84 C                    -0.232687
     85 H                     0.097334
     86 H                     0.094906
     87 H                     0.098789
     88 H                     0.122079
     89 H                     0.135986
     90 H                     0.119533
     91 H                     0.117700
     92 H                     0.139779
     93 H                     0.113512
     94 C                    -0.175520
     95 H                     0.087637
     96 H                     0.113753
     97 H                     0.095224
     98 C                    -0.186813
     99 H                     0.105387
    100 C                    -0.164287
    101 H                     0.083891
    102 H                     0.089333
    103 H                     0.088710
    104 C                    -0.180818
    105 H                     0.098432
    106 C                    -0.319163
    107 H                     0.093579
    108 H                     0.102238
    109 H                     0.103498
    110 H                     0.101096
  ----------------------------------------
  Sum of atomic charges =     0.000000

                    Cartesian Multipole Moments
 -----------------------------------------------------------------
    Charge (ESU x 10^10)
                 0.0000
    Dipole Moment (Debye)
         X      -1.9552      Y       1.7798      Z      -1.1840
       Tot       2.8969
    Quadrupole Moments (Debye-Ang)
        XX    -387.4957     XY       4.0873     YY    -431.0291
        XZ     -22.0178     YZ       8.6398     ZZ    -447.9725

 Total job time:  100.17s(wall), 1185.30s(cpu)
        *  Thank you very much for using Q-Chem.  Have a nice day.  *
