 Q-Chem 4.4, Q-Chem, Inc., Pleasanton, CA (2016)
 Q-Chem 4.4.2 for Intel X86 Linux

User input:
--------------------------------------------------------------
$comment
SP
$end

$rem
MEM_STATIC 5000
MEM_TOTAL 20000
JOBTYPE SP
EXCHANGE B3LYP
BASIS 6-31g(d,p)
$end

$molecule
0 1
C           3.290000      9.359000      2.509000
C           1.965000      9.161000      2.012000
N           3.851000     10.536000      2.572000
C           1.220000     10.286000      1.574000
C           3.179000     11.581000      2.194000
C           1.845000     11.524000      1.744000
C           1.135000     12.821000      1.506000
C           1.903000     13.893000      0.802000
C          -0.132000     13.128000      2.000000
N           1.370000     15.099000      0.609000
N          -0.992000     12.349000      2.608000
C          -0.649000     14.358000      1.820000
C           0.156000     15.348000      1.125000
S          -2.367000     13.132000      2.834000
N          -1.862000     14.594000      2.331000
C          -0.377000     16.736000      0.861000
S          -1.768000     17.547000      1.489000
C           0.304000     17.683000      0.004000
C          -1.468000     19.047000      0.722000
S           1.608000     17.495000     -1.105000
C          -0.364000     18.869000     -0.090000
C          -2.295000     20.237000      0.875000
C           1.395000     19.195000     -1.548000
C           0.259000     19.784000     -0.967000
N          -1.820000     21.448000      0.585000
S          -3.919000     20.072000      1.435000
C          -2.842000     22.333000      0.667000
C          -4.007000     21.781000      1.157000
C           4.299000      8.199000      2.636000
H           1.512000      8.175000      1.972000
H           0.194000     10.287000      1.219000
H           3.658000     12.547000      2.350000
H           2.869000     13.717000      0.331000
H           2.066000     19.661000     -2.257000
H          -0.039000     20.799000     -1.202000
H          -2.636000     23.359000      0.391000
H          -4.970000     22.274000      1.136000
H           3.766000      7.271000      2.393000
C           4.684000      8.056000      4.122000
H           5.187000      8.268000      1.996000
H           3.883000      8.404000      4.786000
H           5.495000      8.748000      4.382000
C           4.906000      6.533000      4.536000
H           3.941000      6.024000      4.420000
C           5.434000      6.248000      6.006000
H           5.523000      6.063000      3.761000
H           4.868000      6.660000      6.851000
H           6.455000      6.642000      6.088000
C           5.534000      4.721000      6.339000
H           6.249000      4.231000      5.666000
C           4.171000      3.875000      6.190000
H           5.871000      4.518000      7.363000
H           4.186000      2.854000      6.591000
H           3.952000      3.745000      5.123000
H           3.322000      4.358000      6.689000
C           6.489000     15.038000      7.522000
C           5.834000     13.924000      7.159000
N           6.956000     15.883000      6.567000
C           5.665000     13.528000      5.821000
C           6.905000     15.534000      5.237000
C           6.311000     14.291000      4.816000
C           6.436000     13.725000      3.447000
C           6.757000     12.398000      3.209000
C           6.034000     14.455000      2.339000
N           6.779000     11.829000      1.993000
N           5.656000     15.793000      2.383000
C           6.117000     13.977000      1.085000
C           6.540000     12.620000      0.925000
S           5.325000     16.240000      0.874000
N           5.630000     14.813000      0.078000
C           6.659000     11.978000     -0.433000
S           6.695000     12.845000     -2.051000
C           7.072000     10.646000     -0.696000
C           7.068000     11.325000     -2.980000
S           7.460000      9.396000      0.456000
C           7.255000     10.282000     -2.015000
C           7.216000     11.261000     -4.375000
C           7.889000      8.293000     -0.856000
C           7.785000      8.944000     -2.089000
N           7.290000     10.097000     -4.930000
S           6.902000     12.562000     -5.554000
C           7.466000     10.209000     -6.285000
C           7.311000     11.472000     -6.788000
C           6.552000     15.562000      8.986000
H           5.297000     13.356000      7.913000
H           4.993000     12.690000      5.658000
H           7.554000     16.090000      4.563000
H           7.034000     11.786000      4.066000
H           8.062000      7.240000     -0.674000
H           7.982000      8.538000     -3.074000
H           7.598000      9.278000     -6.820000
H           7.372000     11.847000     -7.801000
H           7.113000     16.499000      9.085000
C           6.816000     14.469000     10.001000
H           5.541000     15.876000      9.273000
H           7.550000     13.816000      9.515000
H           5.927000     13.858000     10.200000
C           7.368000     15.092000     11.300000
H           7.702000     14.277000     11.954000
C           6.457000     16.142000     11.965000
H           8.269000     15.618000     10.964000
H           6.203000     16.978000     11.301000
H           6.988000     16.657000     12.775000
C           5.244000     15.486000     12.549000
H           4.558000     15.467000     11.693000
C           4.701000     16.317000     13.717000
H           5.476000     14.457000     12.849000
H           3.829000     15.931000     14.261000
H           4.459000     17.299000     13.293000
H           5.433000     16.392000     14.531000
$end

--------------------------------------------------------------

             Standard Nuclear Orientation (Angstroms)
    I     Atom           X                Y                Z
 ----------------------------------------------------------------
    1      C      -3.1338140640     0.0796034115    -3.0054613270
    2      C      -2.4117133440    -0.4565487921    -4.1158438579
    3      N      -2.5913838463     0.2587694398    -1.8317117825
    4      C      -1.0469405738    -0.8039662524    -3.9449918933
    5      C      -1.3381204532    -0.0348596292    -1.6596483130
    6      C      -0.5047450229    -0.5116064562    -2.6909110609
    7      C       0.9580914335    -0.6436890103    -2.3983077447
    8      C       1.3327573671    -1.2341121743    -1.0770772858
    9      C       1.9730243052    -0.1463267951    -3.2144670997
   10      N       2.6101846436    -1.3265057572    -0.7090868251
   11      N       1.8876735923     0.3734088110    -4.4139232913
   12      C       3.2579176302    -0.2233212273    -2.8198660345
   13      C       3.5454838827    -0.8115540071    -1.5227778158
   14      S       3.3527353853     0.6451009718    -4.9923412305
   15      N       4.1828879624     0.2854926050    -3.6406731791
   16      C       4.9668402366    -0.9581691450    -1.0343322030
   17      S       6.4400791752    -0.2839374145    -1.6359671453
   18      C       5.3099515963    -1.7137889913     0.1515565956
   19      C       7.4456149937    -0.9065926724    -0.3992427833
   20      S       4.3988096099    -2.8121055691     1.1154870783
   21      C       6.6523256817    -1.7117936857     0.3958593457
   22      C       8.8780112659    -0.6610894636    -0.2924387858
   23      C       5.8661624263    -3.1030752213     2.0609131059
   24      C       7.0090239804    -2.4912470894     1.5182236873
   25      N       9.5220655653    -0.8318563881     0.8618050000
   26      S       9.7542828397    -0.1470273403    -1.6874618187
   27      C      10.8487514257    -0.6880970579     0.6301352289
   28      C      11.1391656974    -0.2706829987    -0.6518374908
   29      C      -4.6756380842     0.1188294654    -2.9730575123
   30      H      -2.8776860621    -0.5936193246    -5.0869700573
   31      H      -0.3710217315    -1.1754405500    -4.7090878066
   32      H      -0.9108799636     0.2163641071    -0.6894497774
   33      H       0.6090584366    -1.7020169385    -0.4112710154
   34      H       5.8375881705    -3.7550453460     2.9235813321
   35      H       7.9923444736    -2.6386116465     1.9490583365
   36      H      11.5214742833    -0.8664107730     1.4589513580
   37      H      12.1332013760    -0.2639315924    -1.0792792858
   38      H      -5.0341620666    -0.2165349389    -3.9545427493
   39      C      -5.1179912083     1.5923346193    -2.8731762081
   40      H      -5.1515410213    -0.4965503466    -2.1999281043
   41      H      -4.3787313490     2.2708946795    -3.3166309466
   42      H      -5.1190117549     1.9281605459    -1.8284729462
   43      C      -6.4534534291     1.8706096627    -3.6973804650
   44      H      -6.2221013965     1.6920229818    -4.7548988027
   45      C      -7.0951274846     3.3178478316    -3.5762809651
   46      H      -7.1625568934     1.0672363948    -3.4650495173
   47      H      -6.4671917504     4.1865708265    -3.8111044561
   48      H      -7.4485236535     3.4531555498    -2.5461334178
   49      C      -8.3511101221     3.5129563784    -4.4911898508
   50      H      -9.1440470965     2.8110645962    -4.2033480876
   51      C      -8.1227972570     3.2639902226    -6.0664914375
   52      H      -8.7818853265     4.5201531614    -4.4333853209
   53      H      -8.9399483076     3.5711177869    -6.7308737218
   54      H      -8.0205027874     2.1859104388    -6.2415052122
   55      H      -7.2395874455     3.7896288439    -6.4495520968
   56      C      -1.1061532446     5.6417050509     2.7012389415
   57      C      -1.5226878838     5.1678645081     1.5164334577
   58      N      -0.6991531078     4.7754985361     3.6646579378
   59      C      -1.6407036462     3.7967405741     1.2305795834
   60      C      -0.8568009379     3.4186743818     3.4988949270
   61      C      -1.4079155955     2.8764778855     2.2834026014
   62      C      -1.8421838794     1.4642767174     2.1183543705
   63      C      -3.0520975362     1.1128180596     1.5411197951
   64      C      -0.9603078895     0.4200002062     2.3506242709
   65      N      -3.4319333970    -0.1491215770     1.2839543375
   66      N       0.3057633028     0.5782771346     2.9047687917
   67      C      -1.3069379713    -0.8704647534     2.2008351709
   68      C      -2.6095112955    -1.1451744292     1.6775615053
   69      S       0.9484893086    -0.8896584271     3.0408550443
   70      N      -0.2953556733    -1.8060735559     2.4276642319
   71      C      -3.0989635215    -2.5534082225     1.4589223007
   72      S      -2.3613722740    -4.0853916231     2.1516668509
   73      C      -4.3699302661    -2.9285919580     0.9511401634
   74      C      -3.7122242508    -5.1414607692     1.5413498058
   75      S      -5.6448044682    -1.8878235118     0.3752540546
   76      C      -4.6889842438    -4.2716978903     0.9552649565
   77      C      -3.7741117599    -6.5337014885     1.7141523394
   78      C      -6.6887043815    -3.2865240477     0.0997476448
   79      C      -6.0502432375    -4.4571687737     0.5203000114
   80      N      -4.6827547017    -7.1904053518     1.0726657532
   81      S      -2.5056862755    -7.5954341492     2.3812794244
   82      C      -4.6296764875    -8.5263905004     1.3757686828
   83      C      -3.5314123475    -8.9156426558     2.0930563785
   84      C      -0.8296053387     7.1480117210     2.9776489110
   85      H      -1.6605457283     5.8577701649     0.6890675173
   86      H      -1.8461392554     3.5467334885     0.1934249818
   87      H      -0.8042740021     2.8093148601     4.3991920415
   88      H      -3.7489355904     1.9156439828     1.3053036316
   89      H      -7.6183823612    -3.1975760846    -0.4476545053
   90      H      -6.4300322365    -5.4712536077     0.4847716325
   91      H      -5.3975415704    -9.1410649457     0.9252483828
   92      H      -3.2230275795    -9.8893031037     2.4499865775
   93      H      -0.4735985535     7.3412979220     3.9966634415
   94      C      -1.8968009919     8.0643918886     2.4155894601
   95      H       0.0395462935     7.4444004604     2.3778029680
   96      H      -2.8379833742     7.5342820675     2.6013858565
   97      H      -1.8106937473     8.1915681003     1.3294703351
   98      C      -1.8464429707     9.4239799217     3.1430634801
   99      H      -2.7236531522    10.0072984071     2.8368954835
  100      C      -0.4979600978    10.1651472788     3.0599317162
  101      H      -1.9974630436     9.1529042521     4.1942931976
  102      H       0.3449400201     9.5751820455     3.4417280162
  103      H      -0.4885272390    11.0276724618     3.7376096116
  104      C      -0.2623046018    10.6659002067     1.6683592271
  105      H       0.2107324558     9.7997412484     1.1890914512
  106      C       0.6538405544    11.8945825521     1.6938885642
  107      H      -1.2180876002    10.8755574723     1.1731949203
  108      H       0.8817072750    12.3859564617     0.7389307438
  109      H       1.5871645121    11.5570228053     2.1603902332
  110      H       0.1969308001    12.7248005063     2.2470762583
 ----------------------------------------------------------------

   10   -5663.4900484005      5.23E-06 Convergence criterion met
 Total energy in the final basis set = -5663.4900484005

                    Orbital Energies (a.u.)
 --------------------------------------------------------------

 Alpha MOs
 -- Occupied --
-88.992 -88.988 -88.931 -88.924 -88.923 -88.921 -88.908 -88.904
-14.383 -14.383 -14.376 -14.372 -14.350 -14.348 -14.343 -14.338
-14.324 -14.320 -10.270 -10.265 -10.264 -10.264 -10.249 -10.248
-10.248 -10.246 -10.246 -10.245 -10.244 -10.243 -10.235 -10.233
-10.229 -10.228 -10.228 -10.228 -10.227 -10.227 -10.226 -10.224
-10.224 -10.222 -10.222 -10.219 -10.217 -10.214 -10.213 -10.209
-10.209 -10.208 -10.207 -10.202 -10.199 -10.194 -10.192 -10.188
-10.184 -10.183 -10.183 -10.181 -10.179 -10.178 -10.177 -10.177
-10.175 -10.173 -10.173 -10.172  -8.048  -8.043  -7.993  -7.984
 -7.983  -7.980  -7.967  -7.964  -6.013  -6.007  -6.007  -6.006
 -6.002  -6.001  -5.956  -5.954  -5.950  -5.948  -5.947  -5.945
 -5.944  -5.944  -5.941  -5.941  -5.940  -5.937  -5.932  -5.928
 -5.928  -5.924  -5.924  -5.920  -1.056  -1.026  -0.979  -0.975
 -0.959  -0.956  -0.954  -0.924  -0.917  -0.908  -0.899  -0.885
 -0.849  -0.836  -0.833  -0.832  -0.815  -0.814  -0.814  -0.810
 -0.802  -0.793  -0.791  -0.788  -0.784  -0.775  -0.765  -0.759
 -0.747  -0.744  -0.734  -0.733  -0.719  -0.716  -0.703  -0.703
 -0.689  -0.686  -0.677  -0.669  -0.654  -0.653  -0.646  -0.638
 -0.636  -0.630  -0.628  -0.623  -0.611  -0.609  -0.597  -0.596
 -0.591  -0.588  -0.585  -0.580  -0.578  -0.576  -0.562  -0.554
 -0.554  -0.548  -0.537  -0.532  -0.524  -0.522  -0.514  -0.511
 -0.505  -0.503  -0.501  -0.490  -0.488  -0.480  -0.479  -0.475
 -0.473  -0.468  -0.466  -0.463  -0.461  -0.455  -0.454  -0.447
 -0.445  -0.438  -0.437  -0.436  -0.435  -0.431  -0.430  -0.427
 -0.425  -0.423  -0.422  -0.417  -0.416  -0.414  -0.412  -0.410
 -0.408  -0.408  -0.405  -0.404  -0.399  -0.398  -0.394  -0.392
 -0.391  -0.389  -0.389  -0.388  -0.387  -0.386  -0.384  -0.381
 -0.379  -0.375  -0.374  -0.369  -0.367  -0.361  -0.355  -0.352
 -0.350  -0.350  -0.345  -0.344  -0.344  -0.341  -0.338  -0.337
 -0.336  -0.334  -0.332  -0.331  -0.328  -0.323  -0.320  -0.319
 -0.312  -0.312  -0.307  -0.305  -0.304  -0.302  -0.301  -0.299
 -0.298  -0.296  -0.294  -0.288  -0.286  -0.285  -0.278  -0.273
 -0.273  -0.272  -0.261  -0.260  -0.251  -0.250  -0.249  -0.248
 -0.241  -0.239  -0.228  -0.224  -0.189  -0.188

          Ground-State Mulliken Net Atomic Charges

     Atom                 Charge (a.u.)
  ----------------------------------------
      1 C                     0.261470
      2 C                    -0.143787
      3 N                    -0.451984
      4 C                    -0.050074
      5 C                     0.084397
      6 C                     0.030739
      7 C                    -0.055819
      8 C                     0.064829
      9 C                     0.310621
     10 N                    -0.518251
     11 N                    -0.563137
     12 C                     0.200714
     13 C                     0.307647
     14 S                     0.600651
     15 N                    -0.566747
     16 C                    -0.238057
     17 S                     0.326299
     18 C                    -0.114766
     19 C                    -0.228930
     20 S                     0.282609
     21 C                     0.145777
     22 C                     0.059522
     23 C                    -0.323634
     24 C                    -0.048266
     25 N                    -0.422025
     26 S                     0.287921
     27 C                     0.125391
     28 C                    -0.311051
     29 C                    -0.218696
     30 H                     0.091991
     31 H                     0.111914
     32 H                     0.090474
     33 H                     0.136879
     34 H                     0.122424
     35 H                     0.122416
     36 H                     0.115788
     37 H                     0.125093
     38 H                     0.087214
     39 C                    -0.179478
     40 H                     0.141379
     41 H                     0.093513
     42 H                     0.106501
     43 C                    -0.187891
     44 H                     0.098366
     45 C                    -0.178364
     46 H                     0.091728
     47 H                     0.094784
     48 H                     0.096929
     49 C                    -0.184479
     50 H                     0.093912
     51 C                    -0.327672
     52 H                     0.092809
     53 H                     0.098432
     54 H                     0.103530
     55 H                     0.099893
     56 C                     0.277418
     57 C                    -0.110504
     58 N                    -0.498542
     59 C                    -0.083135
     60 C                     0.099059
     61 C                     0.002727
     62 C                     0.016293
     63 C                     0.079497
     64 C                     0.220222
     65 N                    -0.508656
     66 N                    -0.532248
     67 C                     0.206360
     68 C                     0.289619
     69 S                     0.642912
     70 N                    -0.571988
     71 C                    -0.218805
     72 S                     0.307507
     73 C                    -0.143082
     74 C                    -0.240113
     75 S                     0.292718
     76 C                     0.182842
     77 C                     0.071440
     78 C                    -0.319515
     79 C                    -0.066174
     80 N                    -0.426406
     81 S                     0.264342
     82 C                     0.119303
     83 C                    -0.308935
     84 C                    -0.217607
     85 H                     0.083202
     86 H                     0.115606
     87 H                     0.113858
     88 H                     0.112586
     89 H                     0.133779
     90 H                     0.118495
     91 H                     0.111098
     92 H                     0.142302
     93 H                     0.119688
     94 C                    -0.189596
     95 H                     0.116328
     96 H                     0.098816
     97 H                     0.096333
     98 C                    -0.191607
     99 H                     0.089766
    100 C                    -0.175865
    101 H                     0.093778
    102 H                     0.097472
    103 H                     0.089515
    104 C                    -0.164848
    105 H                     0.095405
    106 C                    -0.321422
    107 H                     0.093811
    108 H                     0.095878
    109 H                     0.104058
    110 H                     0.103567
  ----------------------------------------
  Sum of atomic charges =     0.000000

                    Cartesian Multipole Moments
 -----------------------------------------------------------------
    Charge (ESU x 10^10)
                 0.0000
    Dipole Moment (Debye)
         X       1.6392      Y      -1.7041      Z      -3.2257
       Tot       3.9995
    Quadrupole Moments (Debye-Ang)
        XX    -402.4939     XY      -0.0281     YY    -409.0009
        XZ      -1.6759     YZ     -15.8461     ZZ    -435.5892

 Total job time:  94.91s(wall), 1134.80s(cpu)
        *  Thank you very much for using Q-Chem.  Have a nice day.  *
