 Q-Chem 4.4, Q-Chem, Inc., Pleasanton, CA (2016)
 Q-Chem 4.4.2 for Intel X86 Linux

User input:
--------------------------------------------------------------
$comment
SP
$end

$rem
MEM_STATIC 5000
MEM_TOTAL 20000
JOBTYPE SP
EXCHANGE B3LYP
BASIS 6-31g(d,p)
$end

$molecule
0 1
C           6.864000      5.760000     -7.193000
C           5.725000      5.082000     -7.635000
N           7.214000      6.898000     -7.780000
C           4.832000      5.642000     -8.566000
C           6.396000      7.419000     -8.743000
C           5.171000      6.867000     -9.149000
C           4.243000      7.501000    -10.184000
C           4.396000      8.942000    -10.326000
C           3.558000      6.753000    -11.176000
N           3.693000      9.623000    -11.284000
N           3.345000      5.417000    -11.190000
C           2.805000      7.475000    -12.085000
C           2.904000      8.915000    -12.180000
S           2.259000      5.144000    -12.303000
N           2.085000      6.682000    -12.870000
C           1.982000      9.723000    -12.922000
S           0.366000      9.224000    -13.379000
C           2.200000     10.987000    -13.358000
C          -0.013000     10.751000    -14.076000
S           3.606000     11.983000    -13.137000
C           1.074000     11.529000    -13.964000
C          -1.342000     11.232000    -14.514000
C           2.593000     13.202000    -13.994000
C           1.302000     12.885000    -14.321000
N          -1.313000     12.227000    -15.333000
S          -2.809000     10.349000    -14.352000
C          -2.575000     12.562000    -15.795000
C          -3.512000     11.677000    -15.323000
C           7.715000      5.326000     -6.006000
H           5.464000      4.174000     -7.099000
H           3.900000      5.116000     -8.752000
H           6.670000      8.324000     -9.285000
H           4.966000      9.539000     -9.615000
H           3.044000     14.176000    -14.129000
H           0.600000     13.585000    -14.760000
H          -2.673000     13.325000    -16.556000
H          -4.562000     11.648000    -15.582000
H           7.598000      4.237000     -5.936000
C           7.531000      6.006000     -4.643000
H           8.747000      5.599000     -6.258000
H           7.985000      7.004000     -4.639000
H           8.020000      5.425000     -3.851000
C           6.099000      6.169000     -4.109000
H           6.031000      6.860000     -3.260000
C           5.454000      4.885000     -3.544000
H           5.454000      6.624000     -4.871000
H           5.765000      4.584000     -2.536000
H           5.734000      4.037000     -4.182000
C           3.937000      4.957000     -3.451000
H           3.643000      5.917000     -3.008000
C           3.303000      3.737000     -2.774000
H           3.577000      5.045000     -4.483000
H           2.212000      3.692000     -2.875000
H           3.583000      3.723000     -1.713000
H           3.730000      2.801000     -3.153000
C           6.489000     15.038000      7.522000
C           5.834000     13.924000      7.159000
N           6.956000     15.883000      6.567000
C           5.665000     13.528000      5.821000
C           6.905000     15.534000      5.237000
C           6.311000     14.291000      4.816000
C           6.436000     13.725000      3.447000
C           6.757000     12.398000      3.209000
C           6.034000     14.455000      2.339000
N           6.779000     11.829000      1.993000
N           5.656000     15.793000      2.383000
C           6.117000     13.977000      1.085000
C           6.540000     12.620000      0.925000
S           5.325000     16.240000      0.874000
N           5.630000     14.813000      0.078000
C           6.659000     11.978000     -0.433000
S           6.695000     12.845000     -2.051000
C           7.072000     10.646000     -0.696000
C           7.068000     11.325000     -2.980000
S           7.460000      9.396000      0.456000
C           7.255000     10.282000     -2.015000
C           7.216000     11.261000     -4.375000
C           7.889000      8.293000     -0.856000
C           7.785000      8.944000     -2.089000
N           7.290000     10.097000     -4.930000
S           6.902000     12.562000     -5.554000
C           7.466000     10.209000     -6.285000
C           7.311000     11.472000     -6.788000
C           6.552000     15.562000      8.986000
H           5.297000     13.356000      7.913000
H           4.993000     12.690000      5.658000
H           7.554000     16.090000      4.563000
H           7.034000     11.786000      4.066000
H           8.062000      7.240000     -0.674000
H           7.982000      8.538000     -3.074000
H           7.598000      9.278000     -6.820000
H           7.372000     11.847000     -7.801000
H           7.113000     16.499000      9.085000
C           6.816000     14.469000     10.001000
H           5.541000     15.876000      9.273000
H           7.550000     13.816000      9.515000
H           5.927000     13.858000     10.200000
C           7.368000     15.092000     11.300000
H           7.702000     14.277000     11.954000
C           6.457000     16.142000     11.965000
H           8.269000     15.618000     10.964000
H           6.203000     16.978000     11.301000
H           6.988000     16.657000     12.775000
C           5.244000     15.486000     12.549000
H           4.558000     15.467000     11.693000
C           4.701000     16.317000     13.717000
H           5.476000     14.457000     12.849000
H           3.829000     15.931000     14.261000
H           4.459000     17.299000     13.293000
H           5.433000     16.392000     14.531000
$end

--------------------------------------------------------------

             Standard Nuclear Orientation (Angstroms)
    I     Atom           X                Y                Z
 ----------------------------------------------------------------
    1      C       3.4699040672     5.0736248706    -0.6729556495
    2      C       4.3182482044     5.0705323428     0.4373018256
    3      N       3.6594817323     4.1848978417    -1.6406010272
    4      C       5.2634895274     4.0526592563     0.6569907446
    5      C       4.6270019648     3.2333496539    -1.4781367359
    6      C       5.4303732863     3.0833205615    -0.3369747004
    7      C       6.4633072477     1.9727550730    -0.1524300523
    8      C       6.2052999626     0.7749446337    -0.9390280389
    9      C       7.7406309250     2.1871327777     0.4266031273
   10      N       7.1018268590    -0.2604162157    -0.9402261562
   11      N       8.1334049171     3.2475432748     1.1693811351
   12      C       8.5925753551     1.0975424291     0.4660690620
   13      C       8.3031730765    -0.1200435489    -0.2592975401
   14      S       9.5005376518     2.8429111505     1.8475514158
   15      N       9.6944484815     1.3572298246     1.1602679312
   16      C       9.0161194660    -1.3469719277    -0.0596323227
   17      S       9.9453736848    -1.7358710686     1.3737378511
   18      C       9.0632566958    -2.3919474713    -0.9205157033
   19      C      10.3119976896    -3.3244011381     0.8229765077
   20      S       8.2820967157    -2.5625384263    -2.4627156941
   21      C       9.7614651476    -3.4697350376    -0.3915970709
   22      C      10.9144939891    -4.4276233819     1.6035819713
   23      C       9.0228676896    -4.2037452190    -2.3973121176
   24      C       9.7092375710    -4.5813508069    -1.2746325526
   25      N      11.4323363636    -5.3709661470     0.8939548138
   26      S      11.3216712025    -4.3423739917     3.2724022907
   27      C      12.0778804803    -6.3175941986     1.6720814907
   28      C      12.0705987271    -5.9428072661     2.9924828431
   29      C       2.2625079974     5.9899007522    -0.8283880768
   30      H       4.0991124547     5.7958440900     1.2156227058
   31      H       5.7853030438     4.0444500099     1.6096392959
   32      H       4.8494969877     2.5162086316    -2.2681175705
   33      H       5.2563635263     0.6060685650    -1.4467981771
   34      H       8.8042808692    -4.8513796511    -3.2358176002
   35      H      10.1126450266    -5.5754871279    -1.1181704168
   36      H      12.6280347554    -7.1131871266     1.1870493615
   37      H      12.5657694535    -6.4484951784     3.8107173371
   38      H       2.4929085521     6.8903394984    -0.2447480774
   39      C       0.8552582093     5.4599595840    -0.5236990681
   40      H       2.1919196072     6.2180001980    -1.8989229534
   41      H       0.4992952397     4.8081984585    -1.3303178130
   42      H       0.1399820768     6.2874931445    -0.4370142348
   43      C       0.6459783547     4.6917953239     0.7910155823
   44      H      -0.3074970550     4.1510239729     0.8278529144
   45      C       0.5818203561     5.5641435883     2.0633356116
   46      H       1.4004688552     3.9027033203     0.8995139452
   47      H      -0.3643741912     6.0864387890     2.2512441049
   48      H       1.3262622522     6.3664092230     1.9813349124
   49      C       0.8296264075     4.7859006104     3.3471003986
   50      H       0.2442008510     3.8578393631     3.3308449650
   51      C       0.6417464863     5.6201226496     4.6188942987
   52      H       1.8624179519     4.4230684272     3.2833631828
   53      H       1.0017907368     5.1262006805     5.5293426642
   54      H      -0.4179843370     5.8834161315     4.7282749389
   55      H       1.1300873863     6.5979737941     4.5328925291
   56      C     -12.5762971341    -1.5638152777     0.4301985940
   57      C     -11.8072069299    -0.9467996814     1.3410125222
   58      N     -11.9954147577    -2.1819444443    -0.6302876143
   59      C     -10.4114709631    -0.8303943173     1.2227251513
   60      C     -10.6462780142    -2.0491447293    -0.8658641051
   61      C      -9.8049611990    -1.2969688172     0.0294254647
   62      C      -8.4064969930    -0.8952294235    -0.2756078519
   63      C      -7.9295274835     0.3880956071    -0.0606870460
   64      C      -7.4510340106    -1.8458278136    -0.6006019903
   65      N      -6.6502678254     0.7600609068    -0.2281311948
   66      N      -7.7349699319    -3.1874241512    -0.8341906448
   67      C      -6.1727069438    -1.5281482572    -0.8705068064
   68      C      -5.7854364679    -0.1612768631    -0.7041873226
   69      S      -6.3489251454    -3.9017875022    -1.2279111708
   70      N      -5.3186506658    -2.6006056236    -1.1360949670
   71      C      -4.3771486636     0.3050140967    -0.9683599953
   72      S      -3.0777429100    -0.6116820623    -1.8860319625
   73      C      -3.8968403602     1.6339509741    -0.8372390217
   74      C      -1.9152159222     0.7883675437    -1.8550141682
   75      S      -4.7619781352     3.0357094429    -0.2656116734
   76      C      -2.6088072137     1.8929863981    -1.2610517900
   77      C      -0.6216566484     0.7609207840    -2.4008860218
   78      C      -3.3552299956     4.0569963429    -0.5818817157
   79      C      -2.3320290415     3.3039929517    -1.1657924113
   80      N       0.1707182641     1.7490768596    -2.1477327714
   81      S       0.2390569664    -0.6528431580    -3.0654773169
   82      C       1.3766579535     1.5861190750    -2.7791591139
   83      C       1.5738785308     0.3561612779    -3.3452959005
   84      C     -14.0975028766    -1.8285321565     0.6243610597
   85      H     -12.2511552546    -0.6256614938     2.2787167130
   86      H      -9.8947324848    -0.4398707114     2.0950035807
   87      H     -10.3006839622    -2.2974121818    -1.8676330521
   88      H      -8.6489458291     1.1483826349     0.2395176830
   89      H      -3.3065699793     5.0771847880    -0.2231203198
   90      H      -1.3510534841     3.6431888626    -1.4764418757
   91      H       2.0791631669     2.4012533542    -2.6675682000
   92      H       2.4199155793    -0.0531732725    -3.8811891160
   93      H     -14.5526616127    -2.3654721237    -0.2164819677
   94      C     -14.8436960634    -0.6379959592     1.1903904678
   95      H     -14.2097305466    -2.5540883419     1.4392593183
   96      H     -14.3960679091     0.2283852512     0.6900169736
   97      H     -14.6730401896    -0.5090799776     2.2662623201
   98      C     -16.3479633085    -0.7732182060     0.8755428868
   99      H     -16.8395508527     0.1687727346     1.1484746626
  100      C     -17.0208412552    -2.0503692937     1.4147704527
  101      H     -16.3715467042    -0.8374697073    -0.2183897291
  102      H     -16.5436543764    -2.9734836317     1.0619807111
  103      H     -18.0335678728    -2.1555399744     1.0065916611
  104      C     -17.1258073308    -1.9947602172     2.9076370755
  105      H     -16.1562622975    -2.4009183492     3.2218201437
  106      C     -18.3033784133    -2.8495323886     3.3896379890
  107      H     -17.2078036175    -0.9542244784     3.2441292526
  108      H     -18.5167821437    -2.8704045593     4.4663641382
  109      H     -18.0908047363    -3.8675979096     3.0417600984
  110      H     -19.2579563058    -2.4747877190     2.9992631951
 ----------------------------------------------------------------

   10   -5663.4971360705      4.92E-06 Convergence criterion met
 Total energy in the final basis set = -5663.4971360705

                    Orbital Energies (a.u.)
 --------------------------------------------------------------

 Alpha MOs
 -- Occupied --
-88.995 -88.990 -88.933 -88.923 -88.920 -88.919 -88.910 -88.905
-14.386 -14.385 -14.384 -14.379 -14.357 -14.351 -14.341 -14.337
-14.335 -14.327 -10.271 -10.268 -10.267 -10.263 -10.260 -10.257
-10.250 -10.250 -10.248 -10.247 -10.247 -10.237 -10.236 -10.236
-10.234 -10.234 -10.233 -10.232 -10.230 -10.230 -10.228 -10.225
-10.224 -10.223 -10.222 -10.221 -10.219 -10.217 -10.216 -10.216
-10.211 -10.210 -10.210 -10.200 -10.198 -10.195 -10.191 -10.191
-10.188 -10.183 -10.181 -10.180 -10.179 -10.176 -10.174 -10.173
-10.173 -10.172 -10.171 -10.169  -8.051  -8.045  -7.994  -7.982
 -7.981  -7.981  -7.970  -7.964  -6.016  -6.010  -6.010  -6.009
 -6.005  -6.004  -5.958  -5.955  -5.951  -5.946  -5.945  -5.945
 -5.942  -5.942  -5.942  -5.938  -5.938  -5.937  -5.934  -5.931
 -5.929  -5.926  -5.925  -5.921  -1.052  -1.028  -0.980  -0.977
 -0.959  -0.950  -0.943  -0.927  -0.921  -0.910  -0.900  -0.887
 -0.846  -0.837  -0.835  -0.832  -0.816  -0.812  -0.812  -0.807
 -0.805  -0.805  -0.800  -0.790  -0.785  -0.783  -0.768  -0.766
 -0.754  -0.748  -0.742  -0.735  -0.723  -0.717  -0.713  -0.705
 -0.697  -0.690  -0.679  -0.670  -0.656  -0.655  -0.652  -0.641
 -0.638  -0.637  -0.629  -0.625  -0.612  -0.612  -0.599  -0.598
 -0.592  -0.588  -0.586  -0.579  -0.577  -0.577  -0.562  -0.559
 -0.555  -0.548  -0.541  -0.534  -0.530  -0.522  -0.514  -0.510
 -0.508  -0.507  -0.501  -0.493  -0.488  -0.482  -0.481  -0.477
 -0.477  -0.468  -0.467  -0.465  -0.463  -0.457  -0.456  -0.452
 -0.449  -0.446  -0.444  -0.438  -0.434  -0.431  -0.431  -0.430
 -0.428  -0.424  -0.424  -0.421  -0.418  -0.416  -0.415  -0.412
 -0.411  -0.408  -0.407  -0.404  -0.400  -0.399  -0.397  -0.396
 -0.394  -0.393  -0.391  -0.390  -0.390  -0.388  -0.387  -0.385
 -0.383  -0.376  -0.371  -0.369  -0.369  -0.367  -0.363  -0.360
 -0.352  -0.350  -0.347  -0.346  -0.344  -0.343  -0.339  -0.337
 -0.337  -0.335  -0.333  -0.332  -0.329  -0.328  -0.322  -0.317
 -0.313  -0.313  -0.311  -0.309  -0.304  -0.304  -0.302  -0.302
 -0.297  -0.296  -0.293  -0.288  -0.286  -0.281  -0.278  -0.275
 -0.275  -0.274  -0.267  -0.263  -0.260  -0.256  -0.250  -0.249
 -0.245  -0.242  -0.233  -0.231  -0.197  -0.189

          Ground-State Mulliken Net Atomic Charges

     Atom                 Charge (a.u.)
  ----------------------------------------
      1 C                     0.288640
      2 C                    -0.129153
      3 N                    -0.505050
      4 C                    -0.067235
      5 C                     0.073385
      6 C                     0.051992
      7 C                    -0.016038
      8 C                     0.064323
      9 C                     0.233460
     10 N                    -0.492871
     11 N                    -0.530993
     12 C                     0.207954
     13 C                     0.257490
     14 S                     0.611779
     15 N                    -0.564964
     16 C                    -0.205661
     17 S                     0.304609
     18 C                    -0.082351
     19 C                    -0.224634
     20 S                     0.274111
     21 C                     0.138861
     22 C                     0.070253
     23 C                    -0.306917
     24 C                    -0.032377
     25 N                    -0.425637
     26 S                     0.269960
     27 C                     0.130467
     28 C                    -0.315746
     29 C                    -0.222452
     30 H                     0.087733
     31 H                     0.118436
     32 H                     0.093324
     33 H                     0.126824
     34 H                     0.111365
     35 H                     0.128252
     36 H                     0.124875
     37 H                     0.128191
     38 H                     0.095345
     39 C                    -0.191477
     40 H                     0.122726
     41 H                     0.121109
     42 H                     0.095524
     43 C                    -0.188632
     44 H                     0.103618
     45 C                    -0.172539
     46 H                     0.097929
     47 H                     0.084351
     48 H                     0.078993
     49 C                    -0.174200
     50 H                     0.095564
     51 C                    -0.322783
     52 H                     0.088841
     53 H                     0.101748
     54 H                     0.102132
     55 H                     0.100011
     56 C                     0.277483
     57 C                    -0.110423
     58 N                    -0.498153
     59 C                    -0.080082
     60 C                     0.098831
     61 C                     0.003758
     62 C                     0.012674
     63 C                     0.064715
     64 C                     0.235304
     65 N                    -0.523641
     66 N                    -0.534081
     67 C                     0.203076
     68 C                     0.295192
     69 S                     0.622990
     70 N                    -0.560669
     71 C                    -0.218420
     72 S                     0.309279
     73 C                    -0.145519
     74 C                    -0.239813
     75 S                     0.290385
     76 C                     0.183464
     77 C                     0.075233
     78 C                    -0.326482
     79 C                    -0.062241
     80 N                    -0.434177
     81 S                     0.262440
     82 C                     0.105712
     83 C                    -0.316112
     84 C                    -0.217675
     85 H                     0.083566
     86 H                     0.106877
     87 H                     0.114485
     88 H                     0.112392
     89 H                     0.135336
     90 H                     0.126775
     91 H                     0.140672
     92 H                     0.141826
     93 H                     0.120074
     94 C                    -0.189474
     95 H                     0.116345
     96 H                     0.098824
     97 H                     0.096385
     98 C                    -0.191390
     99 H                     0.090153
    100 C                    -0.176134
    101 H                     0.093886
    102 H                     0.097153
    103 H                     0.089989
    104 C                    -0.164962
    105 H                     0.095036
    106 C                    -0.321335
    107 H                     0.094032
    108 H                     0.096214
    109 H                     0.103946
    110 H                     0.103813
  ----------------------------------------
  Sum of atomic charges =     0.000000

                    Cartesian Multipole Moments
 -----------------------------------------------------------------
    Charge (ESU x 10^10)
                 0.0000
    Dipole Moment (Debye)
         X       3.3526      Y      -0.6258      Z       3.5192
       Tot       4.9007
    Quadrupole Moments (Debye-Ang)
        XX    -403.7079     XY     -26.8047     YY    -417.6757
        XZ       4.3193     YZ       4.6691     ZZ    -434.2376

 Total job time:  90.64s(wall), 1075.86s(cpu)
        *  Thank you very much for using Q-Chem.  Have a nice day.  *
