 Q-Chem 4.4, Q-Chem, Inc., Pleasanton, CA (2016)
 Q-Chem 4.4.2 for Intel X86 Linux

User input:
--------------------------------------------------------------
$comment
SP
$end

$rem
MEM_STATIC 5000
MEM_TOTAL 20000
JOBTYPE SP
EXCHANGE B3LYP
BASIS 6-31g(d,p)
$end

$molecule
0 1
C           8.125000     20.703000     -3.017000
C           8.636000     21.252000     -1.781000
N           6.938000     20.142000     -3.097000
C           7.894000     21.067000     -0.640000
C           6.247000     19.852000     -1.957000
C           6.725000     20.264000     -0.692000
C           6.013000     19.836000      0.589000
C           4.572000     19.713000      0.613000
C           6.647000     19.532000      1.821000
N           3.789000     19.277000      1.613000
N           7.924000     19.655000      2.114000
C           5.869000     18.980000      2.856000
C           4.392000     18.939000      2.738000
S           8.040000     19.145000      3.611000
N           6.556000     18.612000      3.950000
C           3.439000     18.439000      3.769000
S           3.940000     17.464000      5.234000
C           2.066000     18.696000      3.816000
C           2.296000     17.523000      5.860000
S           1.022000     19.697000      2.766000
C           1.477000     18.217000      4.957000
C           1.937000     16.886000      7.077000
C          -0.295000     19.401000      3.898000
C           0.074000     18.588000      4.964000
N           0.917000     17.408000      7.767000
S           2.807000     15.579000      7.819000
C           0.775000     16.646000      8.941000
C           1.659000     15.613000      9.119000
C           8.915000     20.849000     -4.291000
H           9.576000     21.794000     -1.813000
H           8.276000     21.475000      0.291000
H           5.336000     19.257000     -2.002000
H           4.009000     20.109000     -0.231000
H          -1.255000     19.863000      3.710000
H          -0.558000     18.286000      5.791000
H          -0.024000     16.903000      9.624000
H           1.735000     14.844000      9.877000
H           8.264000     21.315000     -5.041000
C           9.473000     19.504000     -4.876000
H           9.716000     21.583000     -4.139000
H           8.648000     18.786000     -4.962000
H          10.131000     19.047000     -4.127000
C          10.175000     19.688000     -6.156000
H           9.619000     20.260000     -6.910000
C          10.526000     18.268000     -6.717000
H          11.090000     20.229000     -5.883000
H           9.611000     17.721000     -6.976000
H          11.090000     17.769000     -5.919000
C          11.281000     18.424000     -8.091000
H          10.546000     18.894000     -8.757000
C          11.704000     17.061000     -8.721000
H          12.140000     19.099000     -7.995000
H          10.879000     16.361000     -8.903000
H          12.475000     16.540000     -8.140000
H          12.106000     17.399000     -9.685000
C           6.489000     15.038000      7.522000
C           5.834000     13.924000      7.159000
N           6.956000     15.883000      6.567000
C           5.665000     13.528000      5.821000
C           6.905000     15.534000      5.237000
C           6.311000     14.291000      4.816000
C           6.436000     13.725000      3.447000
C           6.757000     12.398000      3.209000
C           6.034000     14.455000      2.339000
N           6.779000     11.829000      1.993000
N           5.656000     15.793000      2.383000
C           6.117000     13.977000      1.085000
C           6.540000     12.620000      0.925000
S           5.325000     16.240000      0.874000
N           5.630000     14.813000      0.078000
C           6.659000     11.978000     -0.433000
S           6.695000     12.845000     -2.051000
C           7.072000     10.646000     -0.696000
C           7.068000     11.325000     -2.980000
S           7.460000      9.396000      0.456000
C           7.255000     10.282000     -2.015000
C           7.216000     11.261000     -4.375000
C           7.889000      8.293000     -0.856000
C           7.785000      8.944000     -2.089000
N           7.290000     10.097000     -4.930000
S           6.902000     12.562000     -5.554000
C           7.466000     10.209000     -6.285000
C           7.311000     11.472000     -6.788000
C           6.552000     15.562000      8.986000
H           5.297000     13.356000      7.913000
H           4.993000     12.690000      5.658000
H           7.554000     16.090000      4.563000
H           7.034000     11.786000      4.066000
H           8.062000      7.240000     -0.674000
H           7.982000      8.538000     -3.074000
H           7.598000      9.278000     -6.820000
H           7.372000     11.847000     -7.801000
H           7.113000     16.499000      9.085000
C           6.816000     14.469000     10.001000
H           5.541000     15.876000      9.273000
H           7.550000     13.816000      9.515000
H           5.927000     13.858000     10.200000
C           7.368000     15.092000     11.300000
H           7.702000     14.277000     11.954000
C           6.457000     16.142000     11.965000
H           8.269000     15.618000     10.964000
H           6.203000     16.978000     11.301000
H           6.988000     16.657000     12.775000
C           5.244000     15.486000     12.549000
H           4.558000     15.467000     11.693000
C           4.701000     16.317000     13.717000
H           5.476000     14.457000     12.849000
H           3.829000     15.931000     14.261000
H           4.459000     17.299000     13.293000
H           5.433000     16.392000     14.531000
$end

--------------------------------------------------------------

             Standard Nuclear Orientation (Angstroms)
    I     Atom           X                Y                Z
 ----------------------------------------------------------------
    1      C       4.8189752701     5.1957292800     1.0764881018
    2      C       3.7594728887     5.5361243503     1.9994203311
    3      N       4.5754056739     4.7405165729    -0.1332826381
    4      C       2.4673608853     5.2572431773     1.6261351024
    5      C       3.3111932366     4.3541849173    -0.4704706646
    6      C       2.2279429744     4.5577927468     0.4147218124
    7      C       0.8383017825     4.0179243140     0.0852852737
    8      C       0.3711468329     4.0007642657    -1.2835309250
    9      C      -0.0908562745     3.5066154745     1.0273174259
   10      N      -0.7752788160     3.4955860868    -1.7669440396
   11      N       0.0254113768     3.4939464957     2.3380532232
   12      C      -1.2567864836     2.8817715419     0.5462874816
   13      C      -1.6099051588     2.9671899905    -0.8907737175
   14      S      -1.2967714941     2.7825440398     2.8482531855
   15      N      -2.0324589334     2.3215680582     1.4890140100
   16      C      -2.8329198036     2.4073366564    -1.5326221598
   17      S      -3.9550662625     1.2118592535    -0.7205432820
   18      C      -3.3391888704     2.7576146961    -2.7873667262
   19      C      -5.0728516705     1.3098326316    -2.0766590584
   20      S      -2.7832266821     3.9642503861    -3.9829307592
   21      C      -4.5525859299     2.1767389687    -3.0490802438
   22      C      -6.2687154659     0.5455398846    -2.1154582840
   23      C      -4.2378778116     3.6197901510    -4.9150607061
   24      C      -5.0423624743     2.6472363143    -4.3315973721
   25      N      -7.2963983517     1.0460283933    -2.8099819616
   26      S      -6.5580970273    -0.9096558963    -1.2130301421
   27      C      -8.3700503282     0.1476986763    -2.6708447885
   28      C      -8.1513902777    -0.9628811013    -1.8968749313
   29      C       6.2557067868     5.4501339178     1.4500825737
   30      H       4.0322230793     6.0058658914     2.9392810750
   31      H       1.6689513513     5.5083956465     2.3179541924
   32      H       3.1256765824     3.8401161273    -1.4124302445
   33      H       0.9475909761     4.5462015222    -2.0294071540
   34      H      -4.4126135381     4.1730314274    -5.8281759868
   35      H      -5.9915379726     2.2861824608    -4.7100983475
   36      H      -9.2938226170     0.3707063207    -3.1883883606
   37      H      -8.7629706894    -1.8291921979    -1.6796757507
   38      H       6.7084278076     6.0588489895     0.6576391129
   39      C       7.1223030611     4.1568029573     1.6473639058
   40      H       6.2911826903     6.0955929287     2.3364149749
   41      H       7.0153480266     3.5201893983     0.7603301989
   42      H       6.6718217831     3.5565929927     2.4471317576
   43      C       8.5328731460     4.4561311670     1.9402028691
   44      H       9.0086239038     5.1630477465     1.2482735619
   45      C       9.3188707241     3.1009449918     1.9406904447
   46      H       8.5102492961     4.8862697576     2.9496105936
   47      H       9.3289116034     2.6630182274     0.9348901018
   48      H       8.7966832564     2.4597397618     2.6618541581
   49      C      10.8377494056     3.3811187632     2.2517325781
   50      H      11.1842182477     3.9889100298     1.4060197913
   51      C      11.7057895806     2.0860500157     2.3055953087
   52      H      10.9504766372     3.9713680196     3.1691312845
   53      H      11.6874931531     1.4799681437     1.3912217498
   54      H      11.4561119023     1.4364473281     3.1536049815
   55      H      12.7074629834     2.5180400626     2.4287983670
   56      C      -5.0544615508    -1.6798392960     2.1162208074
   57      C      -4.8056912878    -2.6837621279     1.2606260998
   58      N      -4.0926904646    -0.7528102633     2.3606641548
   59      C      -3.5572315322    -2.8849387884     0.6470324312
   60      C      -2.8191617993    -0.9174072516     1.8663620507
   61      C      -2.4831181292    -2.0456819433     1.0361832316
   62      C      -1.0947129950    -2.4327125504     0.6719298958
   63      C      -0.6322937425    -3.7366137685     0.7533181534
   64      C      -0.2525819460    -1.5341522812     0.0350839655
   65      N       0.5794987190    -4.1392259669     0.3381513823
   66      N      -0.5513155297    -0.1893748087    -0.1582959598
   67      C       1.0050477009    -1.8463367869    -0.3237997280
   68      C       1.4293691319    -3.1978564000    -0.1254967816
   69      S       0.7204387861     0.4774078941    -0.8825147027
   70      N       1.7141129275    -0.8500716527    -0.9981855870
   71      C       2.8133009224    -3.6610125853    -0.5006076283
   72      S       4.2611383414    -2.5920631148    -0.8639570988
   73      C       3.3289894146    -4.9734064385    -0.3404522249
   74      C       5.4113194935    -3.9988826539    -0.9664856391
   75      S       2.4943076816    -6.3906963718     0.2381181248
   76      C       4.6679230153    -5.1717598206    -0.6118536778
   77      C       6.7800081557    -3.8880346871    -1.2604738603
   78      C       3.9805355623    -7.3387269331     0.1182901592
   79      C       5.0431613281    -6.5239044561    -0.2839495861
   80      N       7.4461958283    -4.9703211207    -1.4912271063
   81      S       7.6583863896    -2.4222811358    -1.7716061381
   82      C       8.7679919018    -4.6929255096    -1.7267091970
   83      C       9.0633987821    -3.3663226143    -1.8850207046
   84      C      -6.4684767001    -1.3609645538     2.6825432037
   85      H      -5.6286037274    -3.3051176545     0.9196841309
   86      H      -3.5307375114    -3.6413564812    -0.1324079712
   87      H      -2.0349077723    -0.3268921509     2.3363094275
   88      H      -1.2895563859    -4.4759032735     1.2084871829
   89      H       3.9719146069    -8.4165182702     0.2190548007
   90      H       6.0759613708    -6.8091435183    -0.4446752818
   91      H       9.4098093681    -5.5519145241    -1.8702996317
   92      H       9.9992890689    -2.8658001632    -2.0950246259
   93      H      -6.4800090869    -0.4899194169     3.3486050429
   94      C      -7.2294517603    -2.5956439411     3.1196401817
   95      H      -7.0920180903    -1.0132337483     1.8498575357
   96      H      -6.4713812447    -3.2313266149     3.5914427163
   97      H      -7.6363831405    -3.1595536946     2.2713149836
   98      C      -8.3429370066    -2.1935348757     4.1089292728
   99      H      -8.7698979188    -3.1107693284     4.5330546532
  100      C      -9.3666645202    -1.1760248664     3.5692058631
  101      H      -7.7943144861    -1.6963463387     4.9171309114
  102      H      -8.9070515536    -0.2426812083     3.2200160339
  103      H     -10.0147112715    -0.8141855479     4.3769147931
  104      C     -10.2347324505    -1.8113178816     2.5272740740
  105      H      -9.6434008795    -1.6652639556     1.6147565542
  106      C     -11.5934492633    -1.1044907505     2.4646799115
  107      H     -10.3383462946    -2.8854558971     2.7226114616
  108      H     -12.3433378080    -1.4930842742     1.7632683034
  109      H     -11.3712800700    -0.0595999812     2.2166715852
  110      H     -12.1363388708    -1.1930579053     3.4141385642
 ----------------------------------------------------------------

   10   -5663.5239036908      6.45E-06 Convergence criterion met
 Total energy in the final basis set = -5663.5239036908

                    Orbital Energies (a.u.)
 --------------------------------------------------------------

 Alpha MOs
 -- Occupied --
-88.990 -88.986 -88.926 -88.924 -88.922 -88.921 -88.908 -88.905
-14.389 -14.385 -14.381 -14.378 -14.351 -14.350 -14.345 -14.340
-14.329 -14.327 -10.268 -10.266 -10.266 -10.266 -10.259 -10.256
-10.250 -10.249 -10.248 -10.247 -10.243 -10.240 -10.239 -10.237
-10.232 -10.231 -10.230 -10.230 -10.229 -10.229 -10.229 -10.229
-10.229 -10.228 -10.226 -10.223 -10.222 -10.218 -10.218 -10.217
-10.213 -10.211 -10.207 -10.206 -10.198 -10.195 -10.195 -10.193
-10.185 -10.183 -10.182 -10.181 -10.180 -10.179 -10.177 -10.177
-10.176 -10.175 -10.174 -10.173  -8.045  -8.042  -7.988  -7.984
 -7.981  -7.979  -7.967  -7.964  -6.009  -6.007  -6.004  -6.003
 -6.002  -6.000  -5.952  -5.948  -5.948  -5.946  -5.945  -5.945
 -5.943  -5.942  -5.941  -5.940  -5.938  -5.936  -5.932  -5.929
 -5.928  -5.925  -5.923  -5.921  -1.059  -1.028  -0.980  -0.965
 -0.963  -0.960  -0.939  -0.929  -0.921  -0.902  -0.900  -0.887
 -0.836  -0.836  -0.833  -0.832  -0.818  -0.815  -0.809  -0.808
 -0.806  -0.800  -0.792  -0.792  -0.787  -0.779  -0.768  -0.762
 -0.751  -0.748  -0.736  -0.735  -0.722  -0.717  -0.707  -0.706
 -0.692  -0.688  -0.671  -0.670  -0.657  -0.653  -0.649  -0.642
 -0.639  -0.630  -0.627  -0.626  -0.614  -0.604  -0.601  -0.593
 -0.591  -0.590  -0.588  -0.579  -0.578  -0.575  -0.572  -0.558
 -0.552  -0.550  -0.536  -0.535  -0.524  -0.524  -0.515  -0.513
 -0.510  -0.503  -0.495  -0.490  -0.490  -0.484  -0.480  -0.479
 -0.476  -0.470  -0.469  -0.469  -0.464  -0.463  -0.459  -0.448
 -0.446  -0.441  -0.440  -0.437  -0.437  -0.433  -0.432  -0.430
 -0.427  -0.426  -0.426  -0.423  -0.418  -0.414  -0.412  -0.411
 -0.409  -0.408  -0.404  -0.403  -0.399  -0.397  -0.394  -0.391
 -0.390  -0.389  -0.388  -0.387  -0.386  -0.384  -0.384  -0.382
 -0.379  -0.376  -0.373  -0.372  -0.371  -0.366  -0.355  -0.354
 -0.350  -0.349  -0.349  -0.348  -0.346  -0.345  -0.344  -0.342
 -0.338  -0.335  -0.334  -0.332  -0.329  -0.329  -0.326  -0.324
 -0.321  -0.318  -0.316  -0.309  -0.305  -0.304  -0.301  -0.299
 -0.294  -0.292  -0.290  -0.288  -0.285  -0.282  -0.280  -0.278
 -0.276  -0.276  -0.265  -0.264  -0.253  -0.252  -0.250  -0.246
 -0.246  -0.243  -0.231  -0.229  -0.191  -0.189

          Ground-State Mulliken Net Atomic Charges

     Atom                 Charge (a.u.)
  ----------------------------------------
      1 C                     0.280938
      2 C                    -0.121898
      3 N                    -0.486442
      4 C                    -0.060500
      5 C                     0.069154
      6 C                     0.031333
      7 C                     0.021963
      8 C                     0.030238
      9 C                     0.229526
     10 N                    -0.492731
     11 N                    -0.540641
     12 C                     0.185615
     13 C                     0.287956
     14 S                     0.595816
     15 N                    -0.530133
     16 C                    -0.236622
     17 S                     0.354596
     18 C                    -0.112287
     19 C                    -0.233440
     20 S                     0.280564
     21 C                     0.170341
     22 C                     0.034664
     23 C                    -0.314079
     24 C                    -0.057158
     25 N                    -0.427039
     26 S                     0.285540
     27 C                     0.116513
     28 C                    -0.315626
     29 C                    -0.226568
     30 H                     0.092659
     31 H                     0.114099
     32 H                     0.107066
     33 H                     0.113217
     34 H                     0.132191
     35 H                     0.117204
     36 H                     0.112125
     37 H                     0.138760
     38 H                     0.115912
     39 C                    -0.173197
     40 H                     0.086233
     41 H                     0.112576
     42 H                     0.091217
     43 C                    -0.167380
     44 H                     0.091237
     45 C                    -0.172923
     46 H                     0.090508
     47 H                     0.095304
     48 H                     0.090944
     49 C                    -0.181681
     50 H                     0.093870
     51 C                    -0.317859
     52 H                     0.093241
     53 H                     0.101008
     54 H                     0.104974
     55 H                     0.099816
     56 C                     0.278710
     57 C                    -0.108597
     58 N                    -0.498271
     59 C                    -0.083099
     60 C                     0.110720
     61 C                     0.010411
     62 C                     0.013674
     63 C                     0.064996
     64 C                     0.243242
     65 N                    -0.522969
     66 N                    -0.554515
     67 C                     0.197304
     68 C                     0.295247
     69 S                     0.639602
     70 N                    -0.563309
     71 C                    -0.216151
     72 S                     0.311795
     73 C                    -0.144547
     74 C                    -0.239389
     75 S                     0.291035
     76 C                     0.181851
     77 C                     0.070529
     78 C                    -0.317951
     79 C                    -0.065815
     80 N                    -0.425787
     81 S                     0.268243
     82 C                     0.119547
     83 C                    -0.308565
     84 C                    -0.223651
     85 H                     0.081997
     86 H                     0.108947
     87 H                     0.107082
     88 H                     0.111585
     89 H                     0.134964
     90 H                     0.118886
     91 H                     0.111969
     92 H                     0.143292
     93 H                     0.120219
     94 C                    -0.188897
     95 H                     0.123346
     96 H                     0.099175
     97 H                     0.091816
     98 C                    -0.191139
     99 H                     0.090370
    100 C                    -0.177353
    101 H                     0.094396
    102 H                     0.099854
    103 H                     0.090934
    104 C                    -0.165907
    105 H                     0.091383
    106 C                    -0.321515
    107 H                     0.093708
    108 H                     0.094961
    109 H                     0.106072
    110 H                     0.104848
  ----------------------------------------
  Sum of atomic charges =     0.000000

                    Cartesian Multipole Moments
 -----------------------------------------------------------------
    Charge (ESU x 10^10)
                 0.0000
    Dipole Moment (Debye)
         X      -0.6248      Y      -1.1229      Z       1.3284
       Tot       1.8483
    Quadrupole Moments (Debye-Ang)
        XX    -386.8272     XY      16.7729     YY    -433.3968
        XZ       2.4900     YZ       6.6585     ZZ    -442.8671

 Total job time:  97.74s(wall), 1163.22s(cpu)
        *  Thank you very much for using Q-Chem.  Have a nice day.  *
