 Q-Chem 4.4, Q-Chem, Inc., Pleasanton, CA (2016)
 Q-Chem 4.4.2 for Intel X86 Linux

User input:
--------------------------------------------------------------
$comment
SP
$end

$rem
MEM_STATIC 5000
MEM_TOTAL 20000
JOBTYPE SP
EXCHANGE B3LYP
BASIS 6-31g(d,p)
$end

$molecule
0 1
C          14.826000     19.510000     15.868000
C          13.479000     19.827000     15.432000
N          15.799000     19.362000     14.915000
C          13.128000     19.741000     14.103000
C          15.398000     19.372000     13.617000
C          14.075000     19.570000     13.089000
C          13.729000     19.617000     11.607000
C          12.434000     19.149000     11.173000
C          14.494000     20.247000     10.573000
N          12.044000     19.020000      9.898000
N          15.663000     20.793000     10.741000
C          14.109000     20.064000      9.222000
C          12.888000     19.449000      8.914000
S          16.181000     21.210000      9.244000
N          15.007000     20.548000      8.310000
C          12.400000     19.165000      7.534000
S          12.729000     20.165000      6.182000
C          11.517000     18.189000      7.223000
C          11.784000     19.166000      5.093000
S          10.713000     17.024000      8.193000
C          11.194000     18.154000      5.816000
C          11.835000     19.177000      3.639000
C          10.099000     16.341000      6.649000
C          10.305000     17.131000      5.478000
N          11.530000     18.094000      2.928000
S          12.334000     20.579000      2.636000
C          11.650000     18.297000      1.589000
C          11.928000     19.557000      1.305000
C          15.102000     19.412000     17.398000
H          12.697000     19.942000     16.176000
H          12.051000     19.781000     13.969000
H          16.229000     19.068000     12.982000
H          11.629000     18.787000     11.810000
H           9.486000     15.465000      6.816000
H           9.913000     16.842000      4.510000
H          11.496000     17.464000      0.916000
H          12.027000     20.011000      0.328000
H          15.757000     20.227000     17.729000
C          15.678000     18.022000     17.767000
H          14.126000     19.512000     17.888000
H          16.742000     18.095000     17.507000
H          15.098000     17.344000     17.130000
C          15.583000     17.622000     19.192000
H          15.950000     18.476000     19.775000
C          16.529000     16.346000     19.386000
H          14.528000     17.388000     19.384000
H          17.553000     16.739000     19.378000
H          16.338000     15.591000     18.614000
C          16.287000     15.791000     20.818000
H          17.186000     15.363000     21.277000
C          15.278000     14.671000     20.607000
H          16.004000     16.603000     21.499000
H          15.622000     13.932000     19.873000
H          14.365000     15.115000     20.191000
H          14.951000     14.190000     21.537000
C           6.489000     15.038000      7.522000
C           5.834000     13.924000      7.159000
N           6.956000     15.883000      6.567000
C           5.665000     13.528000      5.821000
C           6.905000     15.534000      5.237000
C           6.311000     14.291000      4.816000
C           6.436000     13.725000      3.447000
C           6.757000     12.398000      3.209000
C           6.034000     14.455000      2.339000
N           6.779000     11.829000      1.993000
N           5.656000     15.793000      2.383000
C           6.117000     13.977000      1.085000
C           6.540000     12.620000      0.925000
S           5.325000     16.240000      0.874000
N           5.630000     14.813000      0.078000
C           6.659000     11.978000     -0.433000
S           6.695000     12.845000     -2.051000
C           7.072000     10.646000     -0.696000
C           7.068000     11.325000     -2.980000
S           7.460000      9.396000      0.456000
C           7.255000     10.282000     -2.015000
C           7.216000     11.261000     -4.375000
C           7.889000      8.293000     -0.856000
C           7.785000      8.944000     -2.089000
N           7.290000     10.097000     -4.930000
S           6.902000     12.562000     -5.554000
C           7.466000     10.209000     -6.285000
C           7.311000     11.472000     -6.788000
C           6.552000     15.562000      8.986000
H           5.297000     13.356000      7.913000
H           4.993000     12.690000      5.658000
H           7.554000     16.090000      4.563000
H           7.034000     11.786000      4.066000
H           8.062000      7.240000     -0.674000
H           7.982000      8.538000     -3.074000
H           7.598000      9.278000     -6.820000
H           7.372000     11.847000     -7.801000
H           7.113000     16.499000      9.085000
C           6.816000     14.469000     10.001000
H           5.541000     15.876000      9.273000
H           7.550000     13.816000      9.515000
H           5.927000     13.858000     10.200000
C           7.368000     15.092000     11.300000
H           7.702000     14.277000     11.954000
C           6.457000     16.142000     11.965000
H           8.269000     15.618000     10.964000
H           6.203000     16.978000     11.301000
H           6.988000     16.657000     12.775000
C           5.244000     15.486000     12.549000
H           4.558000     15.467000     11.693000
C           4.701000     16.317000     13.717000
H           5.476000     14.457000     12.849000
H           3.829000     15.931000     14.261000
H           4.459000     17.299000     13.293000
H           5.433000     16.392000     14.531000
$end

--------------------------------------------------------------

             Standard Nuclear Orientation (Angstroms)
    I     Atom           X                Y                Z
 ----------------------------------------------------------------
    1      C     -11.3031112739     0.2827884849     0.5412499972
    2      C     -10.5228640973    -0.1119457470    -0.6165035300
    3      N     -10.7940907559     1.2488230331     1.3686056425
    4      C      -9.2107129605     0.2838017730    -0.7524494544
    5      C      -9.5214753814     1.6591713854     1.1282531130
    6      C      -8.6315081376     1.2501338983     0.0751796877
    7      C      -7.2321736849     1.8081556084    -0.1455551314
    8      C      -6.2160310078     0.9525028880    -0.7109907880
    9      C      -6.8296545374     3.1762102506    -0.0125670416
   10      N      -4.9219504151     1.2710578579    -0.8460616982
   11      N      -7.5934145328     4.1371337200     0.4189393375
   12      C      -5.4538789530     3.5017581284    -0.1029834159
   13      C      -4.5266115682     2.5359852194    -0.5169736154
   14      S      -6.6269382948     5.4535507984     0.5461861722
   15      N      -5.1592644416     4.7977764925     0.2225049704
   16      C      -3.0539061550     2.7508280518    -0.6074242834
   17      S      -2.3331037674     4.2463407640    -1.0317244668
   18      C      -2.1327771183     1.7638643121    -0.5273625936
   19      C      -0.7067075602     3.5944145912    -0.9494162523
   20      S      -2.2898938578     0.0694169992    -0.3066735953
   21      C      -0.7802377888     2.2471261762    -0.6766888566
   22      C       0.5309749136     4.3546643220    -0.8657476131
   23      C      -0.4969613410     0.0403658392    -0.1972660070
   24      C       0.1819489567     1.2405669921    -0.5665558664
   25      N       1.6167273106     3.8470537438    -0.2870350477
   26      S       0.7536608232     6.0304466831    -1.4680585493
   27      C       2.6658915786     4.7117621781    -0.2950139149
   28      C       2.3948483366     5.8084540088    -0.9800997411
   29      C     -12.7010458792    -0.3730859951     0.7468892587
   30      H     -10.9116632940    -0.8799194225    -1.2778178413
   31      H      -8.7029713753    -0.2720432737    -1.5352136378
   32      H      -9.1836613645     2.2841649868     1.9537630694
   33      H      -6.3471647598    -0.0745799949    -1.0467625718
   34      H      -0.1244157858    -0.9592945201    -0.0158191129
   35      H       1.2630641204     1.3052117931    -0.6014851160
   36      H       3.5800633335     4.4324716788     0.2117610052
   37      H       3.0558630126     6.6376609151    -1.1943927757
   38      H     -13.5010974222     0.3661261879     0.6192417869
   39      C     -12.7819902901    -1.0799564105     2.1230503024
   40      H     -12.7918468999    -1.1408256463    -0.0309327020
   41      H     -12.9803139416    -0.2653844978     2.8316865478
   42      H     -11.7897351184    -1.5362602917     2.2182839213
   43      C     -13.8505625709    -2.0956470335     2.2848397925
   44      H     -14.7736292717    -1.6304295534     1.9168526159
   45      C     -13.9561766786    -2.4217637067     3.8479205888
   46      H     -13.5439284894    -2.9717491486     1.6991217513
   47      H     -14.4627580218    -1.5562663763     4.2921938312
   48      H     -12.9678336657    -2.6252847028     4.2771609562
   49      C     -14.9248033778    -3.6262938744     4.0154986084
   50      H     -15.5202887583    -3.5817776473     4.9349992703
   51      C     -13.9958433660    -4.8288147503     4.1048229579
   52      H     -15.6748275940    -3.6268382930     3.2150878521
   53      H     -13.2467100873    -4.7195772810     4.8985984337
   54      H     -13.4376151392    -4.8931091745     3.1624809426
   55      H     -14.5215981096    -5.7886252842     4.1792251666
   56      C       0.5295746552    -3.3791460707    -1.8541305600
   57      C       1.4553197603    -4.2895414663    -1.5135924209
   58      N       0.9051489726    -2.0949830645    -2.0865274309
   59      C       2.8084431756    -3.9738761467    -1.3013816083
   60      C       2.1916014245    -1.6829455113    -1.8246741442
   61      C       3.1869658022    -2.6085570051    -1.3475796899
   62      C       4.5121844845    -2.2071058875    -0.8064933343
   63      C       5.0326160621    -2.7261513125     0.3683925409
   64      C       5.3845935413    -1.4412830178    -1.5645076943
   65      N       6.2648865937    -2.4645477487     0.8331224757
   66      N       5.0501516094    -0.8531952448    -2.7799768899
   67      C       6.5970730224    -1.0671792425    -1.1197281162
   68      C       7.0213891867    -1.5824447472     0.1453549848
   69      S       6.3362145060    -0.0224495579    -3.2722723598
   70      N       7.3791396715    -0.3363332135    -2.0165836443
   71      C       8.3642244694    -1.2376225890     0.7355922953
   72      S       9.4692840811     0.1307368980     0.2089571569
   73      C       8.8733971202    -1.6920612480     1.9798554173
   74      C      10.6324208630    -0.1343502922     1.5835158527
   75      S       8.1384591911    -2.8135424798     3.0944378894
   76      C      10.0673022847    -1.1541992759     2.4169377404
   77      C      11.8070796036     0.6079601544     1.7864371277
   78      C       9.4759601130    -2.5936711570     4.2279024390
   79      C      10.3706366680    -1.6359952798     3.7407507417
   80      N      12.6417245054     0.1999770566     2.6838303970
   81      S      12.5209101188     1.8192609151     0.6889698331
   82      C      13.7135287581     1.0493646467     2.7803776166
   83      C      13.7940502576     1.9964731318     1.7961495914
   84      C      -0.9348797732    -3.7410735993    -2.2365213172
   85      H       1.1895456559    -5.3425580914    -1.5189880304
   86      H       3.4767808266    -4.8212038389    -1.1758524629
   87      H       2.3498719904    -0.6098683283    -1.7348477156
   88      H       4.3861065593    -3.3685293609     0.9642934604
   89      H       9.5981482656    -3.2390060913     5.0884109387
   90      H      11.2835013829    -1.2820104176     4.2046933349
   91      H      14.4327109724     0.8121009716     3.5529660524
   92      H      14.5264319067     2.7712971737     1.6123567079
   93      H      -1.5384612346    -2.8667208453    -2.5079760668
   94      C      -1.5558951921    -4.7707693062    -1.3153065753
   95      H      -0.9066590948    -4.2950512761    -3.1827762125
   96      H      -1.1964656821    -4.4965252623    -0.3168269151
   97      H      -1.1941975736    -5.7864482488    -1.5173316192
   98      C      -3.0934884181    -4.6947580824    -1.4166148439
   99      H      -3.5189348460    -5.3289880518    -0.6290586981
  100      C      -3.6716406978    -4.9159747996    -2.8278019701
  101      H      -3.3130856817    -3.6569552161    -1.1407249154
  102      H      -3.2744651274    -4.2155394241    -3.5734224172
  103      H      -4.7420557583    -4.6771097011    -2.8488034694
  104      C      -3.5072081514    -6.3459584550    -3.2411658329
  105      H      -2.5011661532    -6.3447887825    -3.6788542262
  106      C      -4.5879342267    -6.7329846955    -4.2569787288
  107      H      -3.5173440614    -6.9994577743    -2.3605405420
  108      H      -4.6054100133    -7.7691388612    -4.6194634067
  109      H      -4.4511498552    -6.0532720069    -5.1066520170
  110      H      -5.5931973802    -6.6505837840    -3.8248895228
 ----------------------------------------------------------------

   10   -5663.4889443129      6.71E-06 Convergence criterion met
 Total energy in the final basis set = -5663.4889443129

                    Orbital Energies (a.u.)
 --------------------------------------------------------------

 Alpha MOs
 -- Occupied --
-88.993 -88.987 -88.927 -88.925 -88.918 -88.915 -88.907 -88.903
-14.391 -14.389 -14.382 -14.379 -14.354 -14.349 -14.342 -14.333
-14.332 -14.331 -10.271 -10.268 -10.266 -10.259 -10.257 -10.255
-10.253 -10.252 -10.250 -10.250 -10.241 -10.240 -10.237 -10.234
-10.234 -10.232 -10.231 -10.231 -10.229 -10.229 -10.228 -10.228
-10.225 -10.223 -10.221 -10.219 -10.218 -10.218 -10.218 -10.215
-10.215 -10.213 -10.208 -10.201 -10.197 -10.197 -10.195 -10.193
-10.190 -10.186 -10.183 -10.181 -10.180 -10.179 -10.178 -10.176
-10.176 -10.175 -10.174 -10.170  -8.048  -8.042  -7.987  -7.984
 -7.979  -7.975  -7.967  -7.963  -6.013  -6.008  -6.007  -6.007
 -6.002  -6.000  -5.951  -5.949  -5.948  -5.945  -5.944  -5.943
 -5.941  -5.940  -5.940  -5.936  -5.936  -5.932  -5.931  -5.927
 -5.927  -5.924  -5.923  -5.919  -1.042  -1.031  -0.983  -0.963
 -0.962  -0.955  -0.932  -0.927  -0.913  -0.906  -0.903  -0.890
 -0.839  -0.837  -0.835  -0.826  -0.818  -0.817  -0.809  -0.808
 -0.807  -0.799  -0.794  -0.793  -0.788  -0.781  -0.770  -0.766
 -0.752  -0.747  -0.739  -0.738  -0.720  -0.712  -0.707  -0.705
 -0.693  -0.689  -0.675  -0.674  -0.658  -0.651  -0.644  -0.641
 -0.639  -0.634  -0.629  -0.616  -0.616  -0.607  -0.601  -0.595
 -0.592  -0.589  -0.582  -0.580  -0.576  -0.574  -0.569  -0.558
 -0.552  -0.545  -0.539  -0.538  -0.526  -0.519  -0.515  -0.511
 -0.508  -0.503  -0.501  -0.492  -0.488  -0.486  -0.480  -0.478
 -0.472  -0.472  -0.470  -0.468  -0.466  -0.460  -0.459  -0.450
 -0.443  -0.442  -0.440  -0.439  -0.435  -0.435  -0.433  -0.428
 -0.427  -0.421  -0.420  -0.419  -0.419  -0.415  -0.413  -0.412
 -0.408  -0.405  -0.403  -0.401  -0.399  -0.399  -0.397  -0.396
 -0.393  -0.391  -0.390  -0.387  -0.386  -0.385  -0.382  -0.380
 -0.379  -0.378  -0.374  -0.371  -0.371  -0.370  -0.355  -0.353
 -0.351  -0.349  -0.348  -0.347  -0.347  -0.346  -0.343  -0.341
 -0.336  -0.336  -0.334  -0.332  -0.332  -0.328  -0.324  -0.321
 -0.316  -0.315  -0.308  -0.307  -0.307  -0.306  -0.302  -0.299
 -0.297  -0.294  -0.290  -0.287  -0.283  -0.283  -0.280  -0.279
 -0.277  -0.270  -0.267  -0.262  -0.255  -0.252  -0.249  -0.248
 -0.245  -0.235  -0.233  -0.221  -0.192  -0.188

          Ground-State Mulliken Net Atomic Charges

     Atom                 Charge (a.u.)
  ----------------------------------------
      1 C                     0.266483
      2 C                    -0.127504
      3 N                    -0.479164
      4 C                    -0.071520
      5 C                     0.069407
      6 C                     0.048094
      7 C                     0.016188
      8 C                     0.058186
      9 C                     0.252688
     10 N                    -0.507553
     11 N                    -0.538453
     12 C                     0.195313
     13 C                     0.275452
     14 S                     0.600722
     15 N                    -0.542044
     16 C                    -0.224635
     17 S                     0.308392
     18 C                    -0.073824
     19 C                    -0.241027
     20 S                     0.271977
     21 C                     0.149452
     22 C                     0.064610
     23 C                    -0.285323
     24 C                    -0.056416
     25 N                    -0.443352
     26 S                     0.247994
     27 C                     0.141909
     28 C                    -0.307970
     29 C                    -0.236067
     30 H                     0.084243
     31 H                     0.096372
     32 H                     0.108368
     33 H                     0.111581
     34 H                     0.123566
     35 H                     0.122813
     36 H                     0.115475
     37 H                     0.121461
     38 H                     0.117111
     39 C                    -0.165077
     40 H                     0.093515
     41 H                     0.113597
     42 H                     0.094723
     43 C                    -0.175556
     44 H                     0.093633
     45 C                    -0.177550
     46 H                     0.091704
     47 H                     0.092639
     48 H                     0.100861
     49 C                    -0.171564
     50 H                     0.087590
     51 C                    -0.316559
     52 H                     0.095467
     53 H                     0.107019
     54 H                     0.099260
     55 H                     0.092394
     56 C                     0.268180
     57 C                    -0.108686
     58 N                    -0.491399
     59 C                    -0.081565
     60 C                     0.096562
     61 C                     0.006457
     62 C                     0.012713
     63 C                     0.065301
     64 C                     0.235825
     65 N                    -0.522619
     66 N                    -0.532282
     67 C                     0.203263
     68 C                     0.295232
     69 S                     0.625046
     70 N                    -0.561229
     71 C                    -0.216832
     72 S                     0.308951
     73 C                    -0.144756
     74 C                    -0.238200
     75 S                     0.292713
     76 C                     0.182077
     77 C                     0.070687
     78 C                    -0.317513
     79 C                    -0.065318
     80 N                    -0.425370
     81 S                     0.266482
     82 C                     0.119644
     83 C                    -0.308065
     84 C                    -0.224873
     85 H                     0.085856
     86 H                     0.108787
     87 H                     0.115267
     88 H                     0.113117
     89 H                     0.136053
     90 H                     0.119370
     91 H                     0.112852
     92 H                     0.143855
     93 H                     0.130356
     94 C                    -0.188920
     95 H                     0.118125
     96 H                     0.095888
     97 H                     0.097068
     98 C                    -0.195369
     99 H                     0.090549
    100 C                    -0.175705
    101 H                     0.099002
    102 H                     0.098950
    103 H                     0.088491
    104 C                    -0.164935
    105 H                     0.095055
    106 C                    -0.321190
    107 H                     0.094037
    108 H                     0.096625
    109 H                     0.104334
    110 H                     0.102953
  ----------------------------------------
  Sum of atomic charges =     0.000000

                    Cartesian Multipole Moments
 -----------------------------------------------------------------
    Charge (ESU x 10^10)
                 0.0000
    Dipole Moment (Debye)
         X       2.1124      Y      -1.2629      Z      -0.9132
       Tot       2.6251
    Quadrupole Moments (Debye-Ang)
        XX    -389.9911     XY      39.4028     YY    -417.6540
        XZ      16.5208     YZ      -1.8840     ZZ    -445.2399

 Total job time:  89.84s(wall), 1049.71s(cpu)
        *  Thank you very much for using Q-Chem.  Have a nice day.  *
