 Q-Chem 4.4, Q-Chem, Inc., Pleasanton, CA (2016)
 Q-Chem 4.4.2 for Intel X86 Linux

User input:
--------------------------------------------------------------
$comment
SP
$end

$rem
MEM_STATIC 5000
MEM_TOTAL 20000
JOBTYPE SP
EXCHANGE B3LYP
BASIS 6-31g(d,p)
$end

$molecule
0 1
C           1.880000     11.032000     -2.572000
C           3.006000     11.068000     -1.751000
N           1.122000      9.939000     -2.619000
C           3.482000      9.897000     -1.191000
C           1.547000      8.778000     -2.122000
C           2.832000      8.663000     -1.417000
C           3.239000      7.383000     -0.718000
C           4.575000      7.169000     -0.433000
C           2.335000      6.403000     -0.130000
N           5.014000      6.146000      0.324000
N           1.030000      6.479000     -0.260000
C           2.771000      5.314000      0.600000
C           4.175000      5.127000      0.737000
S           0.434000      5.148000      0.465000
N           1.821000      4.447000      1.006000
C           4.800000      3.973000      1.409000
S           3.861000      2.687000      2.163000
C           6.190000      3.658000      1.536000
C           5.315000      1.733000      2.552000
S           7.578000      4.620000      1.090000
C           6.472000      2.485000      2.311000
C           5.374000      0.494000      3.211000
C           8.547000      3.353000      1.916000
C           7.832000      2.346000      2.588000
N           4.278000     -0.293000      3.122000
S           6.731000     -0.269000      4.066000
C           4.423000     -1.436000      3.875000
C           5.656000     -1.560000      4.406000
C           1.367000     12.350000     -3.102000
H           3.556000     11.992000     -1.598000
H           4.369000      9.994000     -0.572000
H           0.856000      7.954000     -2.295000
H           5.195000      8.018000     -0.717000
H           9.617000      3.441000      1.787000
H           8.397000      1.574000      3.098000
H           3.607000     -2.132000      4.017000
H           6.006000     -2.204000      5.202000
H           0.442000     12.147000     -3.656000
C           2.275000     13.065000     -4.138000
H           1.114000     13.000000     -2.255000
H           3.195000     13.482000     -3.711000
H           1.734000     13.965000     -4.458000
C           2.643000     12.118000     -5.303000
H           3.175000     11.246000     -4.903000
C           3.393000     12.910000     -6.435000
H           1.636000     11.825000     -5.623000
H           4.275000     13.414000     -6.020000
H           2.777000     13.788000     -6.667000
C           3.776000     11.975000     -7.630000
H           4.516000     11.269000     -7.233000
C           4.470000     12.839000     -8.766000
H           2.907000     11.528000     -8.129000
H           3.947000     13.749000     -9.086000
H           4.610000     12.234000     -9.671000
H           5.427000     13.290000     -8.477000
C           6.489000     15.038000      7.522000
C           5.834000     13.924000      7.159000
N           6.956000     15.883000      6.567000
C           5.665000     13.528000      5.821000
C           6.905000     15.534000      5.237000
C           6.311000     14.291000      4.816000
C           6.436000     13.725000      3.447000
C           6.757000     12.398000      3.209000
C           6.034000     14.455000      2.339000
N           6.779000     11.829000      1.993000
N           5.656000     15.793000      2.383000
C           6.117000     13.977000      1.085000
C           6.540000     12.620000      0.925000
S           5.325000     16.240000      0.874000
N           5.630000     14.813000      0.078000
C           6.659000     11.978000     -0.433000
S           6.695000     12.845000     -2.051000
C           7.072000     10.646000     -0.696000
C           7.068000     11.325000     -2.980000
S           7.460000      9.396000      0.456000
C           7.255000     10.282000     -2.015000
C           7.216000     11.261000     -4.375000
C           7.889000      8.293000     -0.856000
C           7.785000      8.944000     -2.089000
N           7.290000     10.097000     -4.930000
S           6.902000     12.562000     -5.554000
C           7.466000     10.209000     -6.285000
C           7.311000     11.472000     -6.788000
C           6.552000     15.562000      8.986000
H           5.297000     13.356000      7.913000
H           4.993000     12.690000      5.658000
H           7.554000     16.090000      4.563000
H           7.034000     11.786000      4.066000
H           8.062000      7.240000     -0.674000
H           7.982000      8.538000     -3.074000
H           7.598000      9.278000     -6.820000
H           7.372000     11.847000     -7.801000
H           7.113000     16.499000      9.085000
C           6.816000     14.469000     10.001000
H           5.541000     15.876000      9.273000
H           7.550000     13.816000      9.515000
H           5.927000     13.858000     10.200000
C           7.368000     15.092000     11.300000
H           7.702000     14.277000     11.954000
C           6.457000     16.142000     11.965000
H           8.269000     15.618000     10.964000
H           6.203000     16.978000     11.301000
H           6.988000     16.657000     12.775000
C           5.244000     15.486000     12.549000
H           4.558000     15.467000     11.693000
C           4.701000     16.317000     13.717000
H           5.476000     14.457000     12.849000
H           3.829000     15.931000     14.261000
H           4.459000     17.299000     13.293000
H           5.433000     16.392000     14.531000
$end

--------------------------------------------------------------

             Standard Nuclear Orientation (Angstroms)
    I     Atom           X                Y                Z
 ----------------------------------------------------------------
    1      C       0.8631464305     4.0169896666    -3.1267330198
    2      C       0.3091112585     3.2632689915    -2.0932132221
    3      N       1.9034911822     3.5484350143    -3.8119784761
    4      C       0.9895036386     2.1612104784    -1.6095291902
    5      C       2.6118544329     2.5086152727    -3.3731716735
    6      C       2.2296962771     1.7690906923    -2.1613410174
    7      C       2.9414461340     0.4962657015    -1.7539362014
    8      C       2.8490274161     0.0651404532    -0.4433993645
    9      C       3.5822257873    -0.4531169319    -2.6547325441
   10      N       3.3074234848    -1.1294247613    -0.0248471066
   11      N       3.7129190957    -0.2270074548    -3.9421698293
   12      C       4.1112037175    -1.6576653901    -2.2326397091
   13      C       4.0625928304    -1.9517097220    -0.8411912147
   14      S       4.5564241985    -1.4897701167    -4.5306692781
   15      N       4.7502111474    -2.3905741766    -3.1672729073
   16      C       4.6574634276    -3.1502059414    -0.2217876429
   17      S       5.4822485961    -4.3952403260    -1.1564810724
   18      C       4.7254132244    -3.4995946784     1.1641287815
   19      C       5.9629181472    -5.2971328048     0.3033475954
   20      S       3.9805768719    -2.7096291355     2.5323675213
   21      C       5.3197035947    -4.7764285439     1.4335582449
   22      C       6.6943381515    -6.4945817677     0.3667806979
   23      C       4.5612362346    -4.1178066655     3.4844162325
   24      C       5.1643179840    -5.1641153688     2.7644242178
   25      N       7.5262781236    -6.7525395320    -0.6675498463
   26      S       6.7877516012    -7.6952413223     1.6722819661
   27      C       8.1195059496    -7.9873060429    -0.5337013870
   28      C       7.8371825164    -8.5786207075     0.6445458054
   29      C       0.0449848806     5.1697553899    -3.6586501800
   30      H      -0.6177892420     3.5671705151    -1.6155267913
   31      H       0.5078375282     1.6260725951    -0.7965321398
   32      H       3.4768517929     2.2807096277    -3.9946413704
   33      H       2.1977872864     0.7031113125     0.1521982146
   34      H       4.4423189942    -4.0243972870     4.5551255198
   35      H       5.5173294542    -6.0264325565     3.3185911327
   36      H       8.7296615617    -8.4142782627    -1.3184566690
   37      H       7.9588777046    -9.6098210231     0.9489603094
   38      H       0.5892506582     5.5975288399    -4.5098461849
   39      C      -0.1444871225     6.3703733381    -2.6934549136
   40      H      -0.9118132008     4.7843963065    -4.0327541874
   41      H      -0.8090273216     6.1604623807    -1.8467308063
   42      H      -0.7049207981     7.1325466031    -3.2503094811
   43      C       1.2151028047     6.8724536279    -2.1559713209
   44      H       1.7124075505     6.0561221085    -1.6177345326
   45      C       1.0231706735     8.2038228979    -1.3424567704
   46      H       1.7282569849     7.0580719743    -3.1070321059
   47      H       0.2935662926     8.0504645235    -0.5372712910
   48      H       0.4452818213     8.8834874222    -1.9814126443
   49      C       2.3859009082     8.7369216748    -0.7877397238
   50      H       2.7209256373     7.9950837938    -0.0521583284
   51      C       2.1396302245    10.1114145107    -0.0335857645
   52      H       3.1070749972     8.9906553267    -1.5748217826
   53      H       1.5687804828    10.8776021905    -0.5731374410
   54      H       3.0980145073    10.5760183043     0.2315422829
   55      H       1.5109981703    10.0353203363     0.8618484414
   56      C      -8.0868746516    -2.9106316510     0.2026721089
   57      C      -6.8810648628    -3.1238435380    -0.3471946425
   58      N      -8.3843259134    -1.6883389760     0.7142015447
   59      C      -5.8553321163    -2.1629114490    -0.3573362950
   60      C      -7.4149003365    -0.7173633867     0.8177508362
   61      C      -6.0752481384    -0.9494720219     0.3417428851
   62      C      -4.9172913616    -0.0649471355     0.6365204763
   63      C      -3.6886942324    -0.5501782049     1.0557028989
   64      C      -4.9520223370     1.2812921650     0.3069730517
   65      N      -2.5941775793     0.2071382737     1.2329204132
   66      N      -6.0875107016     1.9423547215    -0.1498928700
   67      C      -3.9229866956     2.1138119164     0.5433742199
   68      C      -2.7177633400     1.5403523749     1.0577270339
   69      S      -5.6856412660     3.4863833405    -0.3521985303
   70      N      -4.0908181610     3.4316987146     0.1131173360
   71      C      -1.4992863680     2.3773058594     1.3498087577
   72      S      -1.4413685769     4.2063334709     1.4988474308
   73      C      -0.2631557824     1.9057176845     1.8631777953
   74      C       0.2930503899     4.2151051640     2.0504667788
   75      S       0.1985474418     0.2593239705     2.2043022175
   76      C       0.6901616098     2.8460493730     2.1988983119
   77      C       1.0296358477     5.3746637446     2.3418269709
   78      C       1.7596457449     0.8054397229     2.8261733240
   79      C       1.8253438341     2.2019784501     2.8097616059
   80      N       2.3010298023     5.2590570682     2.5382690966
   81      S       0.5300787249     7.0658007289     2.0739904885
   82      C       2.8633605732     6.4716154134     2.8432795284
   83      C       2.0430619503     7.5525287156     2.6673829610
   84      C      -9.2750104940    -3.9090805712     0.0874593765
   85      H      -6.7146319619    -4.0289393523    -0.9239187156
   86      H      -4.9851881613    -2.4076098527    -0.9601374138
   87      H      -7.6222022236     0.1063094253     1.4983403060
   88      H      -3.6176511028    -1.6134452175     1.2796183599
   89      H       2.5576449742     0.1059855217     3.0402365167
   90      H       2.6466672578     2.8328069699     3.1281217986
   91      H       3.9184115187     6.4533183508     3.0819062661
   92      H       2.2198816049     8.6105087402     2.8085498030
   93      H     -10.1872483432    -3.5527679725     0.5807690547
   94      C      -8.8675692430    -5.3509356645     0.3102047848
   95      H      -9.5868735829    -3.9384930943    -0.9637125016
   96      H      -8.1367606856    -5.3057009887     1.1258233700
   97      H      -8.3516824717    -5.7797161206    -0.5576956470
   98      C     -10.1077040287    -6.1856906761     0.6916281507
   99      H      -9.7663453424    -7.1802767509     1.0043097573
  100      C     -11.2517453971    -6.1738268687    -0.3406870131
  101      H     -10.4832529357    -5.6827120025     1.5901538724
  102      H     -11.6142286259    -5.1646550040    -0.5741094976
  103      H     -12.1527112795    -6.6411740718     0.0754056094
  104      C     -10.8567472292    -6.9378919631    -1.5666323541
  105      H     -10.3441086376    -6.1709988148    -2.1605764370
  106      C     -12.1004066606    -7.4910839515    -2.2715606075
  107      H     -10.1442407751    -7.7301796104    -1.3072487834
  108      H     -11.9520958772    -8.1039160892    -3.1703134559
  109      H     -12.7095570469    -6.6152817545    -2.5256675113
  110      H     -12.6448991749    -8.1961691420    -1.6309142338
 ----------------------------------------------------------------

    9   -5663.5035917724      9.39E-06 Convergence criterion met
 Total energy in the final basis set = -5663.5035917724

                    Orbital Energies (a.u.)
 --------------------------------------------------------------

 Alpha MOs
 -- Occupied --
-88.996 -88.982 -88.931 -88.928 -88.926 -88.922 -88.918 -88.911
-14.391 -14.386 -14.385 -14.377 -14.357 -14.345 -14.345 -14.338
-14.330 -14.317 -10.273 -10.270 -10.265 -10.263 -10.256 -10.256
-10.254 -10.253 -10.250 -10.249 -10.243 -10.241 -10.237 -10.236
-10.235 -10.234 -10.234 -10.234 -10.233 -10.227 -10.226 -10.226
-10.225 -10.221 -10.221 -10.221 -10.220 -10.217 -10.217 -10.217
-10.215 -10.214 -10.214 -10.211 -10.200 -10.200 -10.194 -10.186
-10.186 -10.184 -10.182 -10.180 -10.178 -10.178 -10.177 -10.177
-10.176 -10.176 -10.174 -10.174  -8.051  -8.038  -7.989  -7.988
 -7.987  -7.980  -7.977  -7.970  -6.016  -6.010  -6.009  -6.003
 -5.998  -5.996  -5.953  -5.953  -5.951  -5.950  -5.949  -5.948
 -5.946  -5.945  -5.945  -5.944  -5.941  -5.941  -5.938  -5.937
 -5.935  -5.933  -5.931  -5.926  -1.042  -1.034  -0.985  -0.965
 -0.960  -0.943  -0.933  -0.930  -0.910  -0.907  -0.904  -0.893
 -0.841  -0.840  -0.839  -0.820  -0.818  -0.817  -0.810  -0.805
 -0.805  -0.800  -0.795  -0.793  -0.789  -0.776  -0.771  -0.762
 -0.753  -0.748  -0.741  -0.738  -0.723  -0.718  -0.708  -0.706
 -0.695  -0.690  -0.676  -0.672  -0.659  -0.650  -0.646  -0.642
 -0.636  -0.633  -0.629  -0.617  -0.617  -0.608  -0.602  -0.597
 -0.595  -0.591  -0.590  -0.582  -0.581  -0.578  -0.568  -0.557
 -0.555  -0.541  -0.540  -0.538  -0.528  -0.526  -0.518  -0.516
 -0.511  -0.501  -0.495  -0.495  -0.486  -0.481  -0.480  -0.474
 -0.472  -0.471  -0.469  -0.467  -0.462  -0.459  -0.458  -0.451
 -0.443  -0.441  -0.440  -0.437  -0.437  -0.436  -0.434  -0.431
 -0.430  -0.427  -0.425  -0.421  -0.421  -0.416  -0.415  -0.413
 -0.408  -0.406  -0.402  -0.400  -0.399  -0.396  -0.396  -0.393
 -0.392  -0.392  -0.391  -0.390  -0.387  -0.386  -0.382  -0.382
 -0.379  -0.376  -0.374  -0.371  -0.371  -0.363  -0.360  -0.357
 -0.352  -0.350  -0.349  -0.348  -0.347  -0.345  -0.343  -0.342
 -0.338  -0.336  -0.334  -0.333  -0.332  -0.328  -0.326  -0.324
 -0.315  -0.315  -0.312  -0.310  -0.309  -0.307  -0.303  -0.299
 -0.295  -0.292  -0.291  -0.289  -0.285  -0.284  -0.281  -0.279
 -0.276  -0.268  -0.267  -0.259  -0.256  -0.256  -0.254  -0.248
 -0.239  -0.235  -0.233  -0.227  -0.196  -0.189

          Ground-State Mulliken Net Atomic Charges

     Atom                 Charge (a.u.)
  ----------------------------------------
      1 C                     0.280633
      2 C                    -0.116211
      3 N                    -0.481829
      4 C                    -0.076512
      5 C                     0.087008
      6 C                    -0.003005
      7 C                     0.057916
      8 C                     0.079429
      9 C                     0.233735
     10 N                    -0.553454
     11 N                    -0.544509
     12 C                     0.212675
     13 C                     0.297106
     14 S                     0.590503
     15 N                    -0.564039
     16 C                    -0.224088
     17 S                     0.372834
     18 C                    -0.131539
     19 C                    -0.208093
     20 S                     0.295608
     21 C                     0.130085
     22 C                     0.038988
     23 C                    -0.313263
     24 C                    -0.086469
     25 N                    -0.439924
     26 S                     0.271764
     27 C                     0.132081
     28 C                    -0.312771
     29 C                    -0.241985
     30 H                     0.103076
     31 H                     0.110680
     32 H                     0.120847
     33 H                     0.114591
     34 H                     0.126450
     35 H                     0.128455
     36 H                     0.117776
     37 H                     0.131535
     38 H                     0.111493
     39 C                    -0.195385
     40 H                     0.108796
     41 H                     0.093372
     42 H                     0.090616
     43 C                    -0.175598
     44 H                     0.106661
     45 C                    -0.175488
     46 H                     0.099268
     47 H                     0.095639
     48 H                     0.087361
     49 C                    -0.174946
     50 H                     0.110642
     51 C                    -0.333920
     52 H                     0.104622
     53 H                     0.104180
     54 H                     0.096170
     55 H                     0.087266
     56 C                     0.278732
     57 C                    -0.110621
     58 N                    -0.497090
     59 C                    -0.080310
     60 C                     0.098948
     61 C                     0.002411
     62 C                     0.014366
     63 C                     0.065674
     64 C                     0.235712
     65 N                    -0.522564
     66 N                    -0.532857
     67 C                     0.204283
     68 C                     0.296349
     69 S                     0.626045
     70 N                    -0.563514
     71 C                    -0.225429
     72 S                     0.307040
     73 C                    -0.161413
     74 C                    -0.236034
     75 S                     0.291427
     76 C                     0.188396
     77 C                     0.071114
     78 C                    -0.322944
     79 C                    -0.065500
     80 N                    -0.425267
     81 S                     0.271425
     82 C                     0.116784
     83 C                    -0.308173
     84 C                    -0.218168
     85 H                     0.085380
     86 H                     0.108735
     87 H                     0.114510
     88 H                     0.115702
     89 H                     0.155650
     90 H                     0.122562
     91 H                     0.115801
     92 H                     0.150809
     93 H                     0.120506
     94 C                    -0.189895
     95 H                     0.117197
     96 H                     0.098909
     97 H                     0.096898
     98 C                    -0.191181
     99 H                     0.090712
    100 C                    -0.176984
    101 H                     0.093907
    102 H                     0.097129
    103 H                     0.090525
    104 C                    -0.165335
    105 H                     0.095098
    106 C                    -0.321390
    107 H                     0.094442
    108 H                     0.096699
    109 H                     0.103963
    110 H                     0.103996
  ----------------------------------------
  Sum of atomic charges =     0.000000

                    Cartesian Multipole Moments
 -----------------------------------------------------------------
    Charge (ESU x 10^10)
                 0.0000
    Dipole Moment (Debye)
         X      -0.3670      Y      -0.7642      Z       2.3662
       Tot       2.5135
    Quadrupole Moments (Debye-Ang)
        XX    -447.6761     XY      -5.9156     YY    -383.9019
        XZ      22.2716     YZ       4.0270     ZZ    -443.7292

 Total job time:  88.35s(wall), 1058.30s(cpu)
        *  Thank you very much for using Q-Chem.  Have a nice day.  *
