 Q-Chem 4.4, Q-Chem, Inc., Pleasanton, CA (2016)
 Q-Chem 4.4.2 for Intel X86 Linux

User input:
--------------------------------------------------------------
$comment
SP
$end

$rem
MEM_STATIC 5000
MEM_TOTAL 20000
JOBTYPE SP
EXCHANGE B3LYP
BASIS 6-31g(d,p)
$end

$molecule
0 1
C          10.309000     11.800000      8.060000
C          11.325000     11.210000      7.278000
N           9.310000     12.515000      7.580000
C          11.335000     11.524000      5.905000
C           9.247000     12.660000      6.276000
C          10.203000     12.181000      5.359000
C          10.039000     12.448000      3.896000
C           9.885000     13.751000      3.433000
C          10.290000     11.475000      2.948000
N           9.753000     14.122000      2.180000
N          10.559000     10.207000      3.227000
C          10.228000     11.856000      1.626000
C           9.861000     13.222000      1.227000
S          10.657000      9.623000      1.753000
N          10.404000     10.852000      0.745000
C           9.781000     13.676000     -0.166000
S          10.060000     12.778000     -1.611000
C           9.482000     14.974000     -0.528000
C           9.816000     14.167000     -2.758000
S           9.156000     16.287000      0.514000
C           9.607000     15.292000     -1.890000
C           9.928000     14.324000     -4.204000
C           9.171000     17.353000     -0.871000
C           9.451000     16.678000     -2.075000
N           9.388000     15.362000     -4.813000
S          10.486000     12.979000     -5.130000
C           9.291000     15.058000     -6.132000
C           9.855000     13.899000     -6.480000
C          10.365000     11.506000      9.541000
H          12.091000     10.649000      7.805000
H          12.103000     11.114000      5.256000
H           8.324000     13.179000      6.024000
H           9.770000     14.587000      4.121000
H           9.147000     18.411000     -0.644000
H           9.505000     17.154000     -3.048000
H           8.893000     15.735000     -6.878000
H           9.852000     13.486000     -7.480000
H           9.423000     11.688000     10.073000
C          11.491000     12.239000     10.307000
H          10.472000     10.421000      9.666000
H          12.405000     12.344000      9.709000
H          11.504000     11.781000     11.304000
C          10.921000     13.622000     10.656000
H          10.877000     14.319000      9.810000
C          11.779000     14.289000     11.809000
H           9.899000     13.595000     11.054000
H          12.781000     14.418000     11.381000
H          11.879000     13.585000     12.645000
C          11.084000     15.535000     12.413000
H          10.859000     16.159000     11.539000
C          11.870000     16.466000     13.293000
H          10.151000     15.170000     12.859000
H          11.330000     17.399000     13.501000
H          12.852000     16.750000     12.895000
H          12.084000     16.068000     14.293000
C           6.489000     15.038000      7.522000
C           5.834000     13.924000      7.159000
N           6.956000     15.883000      6.567000
C           5.665000     13.528000      5.821000
C           6.905000     15.534000      5.237000
C           6.311000     14.291000      4.816000
C           6.436000     13.725000      3.447000
C           6.757000     12.398000      3.209000
C           6.034000     14.455000      2.339000
N           6.779000     11.829000      1.993000
N           5.656000     15.793000      2.383000
C           6.117000     13.977000      1.085000
C           6.540000     12.620000      0.925000
S           5.325000     16.240000      0.874000
N           5.630000     14.813000      0.078000
C           6.659000     11.978000     -0.433000
S           6.695000     12.845000     -2.051000
C           7.072000     10.646000     -0.696000
C           7.068000     11.325000     -2.980000
S           7.460000      9.396000      0.456000
C           7.255000     10.282000     -2.015000
C           7.216000     11.261000     -4.375000
C           7.889000      8.293000     -0.856000
C           7.785000      8.944000     -2.089000
N           7.290000     10.097000     -4.930000
S           6.902000     12.562000     -5.554000
C           7.466000     10.209000     -6.285000
C           7.311000     11.472000     -6.788000
C           6.552000     15.562000      8.986000
H           5.297000     13.356000      7.913000
H           4.993000     12.690000      5.658000
H           7.554000     16.090000      4.563000
H           7.034000     11.786000      4.066000
H           8.062000      7.240000     -0.674000
H           7.982000      8.538000     -3.074000
H           7.598000      9.278000     -6.820000
H           7.372000     11.847000     -7.801000
H           7.113000     16.499000      9.085000
C           6.816000     14.469000     10.001000
H           5.541000     15.876000      9.273000
H           7.550000     13.816000      9.515000
H           5.927000     13.858000     10.200000
C           7.368000     15.092000     11.300000
H           7.702000     14.277000     11.954000
C           6.457000     16.142000     11.965000
H           8.269000     15.618000     10.964000
H           6.203000     16.978000     11.301000
H           6.988000     16.657000     12.775000
C           5.244000     15.486000     12.549000
H           4.558000     15.467000     11.693000
C           4.701000     16.317000     13.717000
H           5.476000     14.457000     12.849000
H           3.829000     15.931000     14.261000
H           4.459000     17.299000     13.293000
H           5.433000     16.392000     14.531000
$end

--------------------------------------------------------------

             Standard Nuclear Orientation (Angstroms)
    I     Atom           X                Y                Z
 ----------------------------------------------------------------
    1      C       5.4691309270     2.8742561823     0.0879255896
    2      C       4.6302485400     3.8820603291     0.6099285995
    3      N       5.0748085066     1.6554447070    -0.2261355771
    4      C       3.3124548040     3.5074279914     0.9368770372
    5      C       3.8014728395     1.3757641670    -0.0654959974
    6      C       2.8428975538     2.2465252056     0.4887373786
    7      C       1.4269509772     1.7937756373     0.6580510543
    8      C       1.1416283087     0.6306349659     1.3662803628
    9      C       0.3603128422     2.6191357757     0.3588893408
   10      N      -0.0517482590     0.1361998954     1.6038941854
   11      N       0.4698078923     3.8070495457    -0.2198141317
   12      C      -0.8990117475     2.1528595447     0.6644659337
   13      C      -1.1156698363     0.8163744048     1.2360538476
   14      S      -1.0678258499     4.1819560440    -0.3556949338
   15      N      -1.9045916786     2.9633139010     0.2808962028
   16      C      -2.4357657290     0.2748121960     1.5781389367
   17      S      -3.9842637363     1.0098329567     1.3932919655
   18      C      -2.6239029832    -0.9630978429     2.1590280044
   19      C      -4.9370272443    -0.3426068941     2.1466936830
   20      S      -1.4194197430    -2.0922619561     2.5951673507
   21      C      -3.9285097291    -1.2695662426     2.5783981974
   22      C      -6.3467685057    -0.5386982539     2.4665166876
   23      C      -2.6476041924    -3.0559363166     3.3811067154
   24      C      -3.9272410761    -2.4720188324     3.3089207226
   25      N      -6.8183522601    -1.7435903392     2.7229710218
   26      S      -7.4371119650     0.7686212238     2.1837943433
   27      C      -8.1676229086    -1.6926735705     2.5870953438
   28      C      -8.6601377893    -0.4714396585     2.3668731278
   29      C       6.8976266338     3.2840206308    -0.1848859064
   30      H       5.0883617868     4.8421455345     0.8280447416
   31      H       2.6258458951     4.2353071842     1.3586412924
   32      H       3.6077621831     0.3796370481    -0.4591975908
   33      H       1.9342638967    -0.0293857148     1.7149442779
   34      H      -2.2803774098    -3.8798203401     3.9792944835
   35      H      -4.8262179680    -2.9080416263     3.7307567937
   36      H      -8.8214669818    -2.5405376463     2.7509960359
   37      H      -9.7066312509    -0.2463292889     2.2095366843
   38      H       7.4349210878     2.6176196611    -0.8709882437
   39      C       7.7725260614     3.4704624281     1.0767445656
   40      H       6.8767636843     4.2141649555    -0.7668612259
   41      H       7.2081240897     3.8877960892     1.9201353585
   42      H       8.6987276857     3.9356017336     0.7165529808
   43      C       8.2961512857     2.0696416769     1.4273267206
   44      H       7.5513147535     1.4124994651     1.8929914646
   45      C       9.5414915851     2.1820407269     2.4004433591
   46      H       8.6712809835     1.5055378964     0.5643773393
   47      H       9.1500919981     2.6508501354     3.3119547972
   48      H      10.2763283946     2.8779083380     1.9758316174
   49      C      10.2973785865     0.8374208093     2.5453195755
   50      H       9.5122024024     0.1243680347     2.8262663685
   51      C      11.3067555279     0.6717519963     3.6465321048
   52      H      10.6758318865     0.5979579876     1.5442897774
   53      H      11.6304503587    -0.3708960105     3.7625484420
   54      H      10.9656789509     1.0094750939     4.6329366252
   55      H      12.2470790572     1.2127919954     3.4814037316
   56      C       5.3147109931    -2.0556600851    -0.9311760151
   57      C       4.7948614975    -1.6157275790    -2.0878980612
   58      N       4.4896168069    -2.5276575288     0.0386574743
   59      C       3.4132634180    -1.5383434972    -2.3345140596
   60      C       3.1240785189    -2.4143596783    -0.0869242962
   61      C       2.5302953912    -1.8414645969    -1.2677455455
   62      C       1.0995283999    -1.4539655196    -1.3812897298
   63      C       0.6896411470    -0.2383878452    -1.9056725646
   64      C       0.0941213383    -2.3812493027    -1.1544209879
   65      N      -0.5915129955     0.1034957059    -2.1170033495
   66      N       0.3124202870    -3.6592155879    -0.6502268359
   67      C      -1.2114801204    -2.0773281428    -1.2589473459
   68      C      -1.5465836891    -0.7682698218    -1.7280421236
   69      S      -1.1273643286    -4.3598906241    -0.5001410119
   70      N      -2.1038185279    -3.1299619002    -1.0449185177
   71      C      -2.9767938509    -0.3236404724    -1.8932469501
   72      S      -4.4623419249    -1.1408540983    -1.1888196581
   73      C      -3.4107246784     0.9496132516    -2.3454537514
   74      C      -5.5820739507     0.1907037663    -1.7233510824
   75      S      -2.4320700913     2.2812590341    -2.9014238130
   76      C      -4.7638283613     1.2186818369    -2.2958702891
   77      C      -6.9705457867     0.1952385583    -1.5132311260
   78      C      -3.8741654503     3.2819587171    -3.1037975262
   79      C      -5.0095375901     2.5865508050    -2.6768971396
   80      N      -7.6762730847     1.1009431668    -2.1048772558
   81      S      -7.9679465285    -1.1339244687    -0.8653457903
   82      C      -9.0009520348     0.9881806107    -1.7701306575
   83      C      -9.3313145737    -0.1480424104    -1.0830638200
   84      C       6.8367940917    -2.2860672342    -0.7031045650
   85      H       5.4571098087    -1.4237651941    -2.9269967545
   86      H       3.1285287408    -1.3061563339    -3.3569681098
   87      H       2.5411751568    -2.5206834269     0.8260554029
   88      H       1.4603840662     0.4953339853    -2.1366046498
   89      H      -3.8332360638     4.2328281888    -3.6195823972
   90      H      -6.0371835058     2.9297698808    -2.6730842625
   91      H      -9.6545574528     1.7481669730    -2.1771081589
   92      H     -10.2834367115    -0.5043277001    -0.7128757233
   93      H       7.0697846600    -2.6700857339     0.2972634608
   94      C       7.6990047812    -1.1668932610    -1.2495589042
   95      H       7.1481088939    -3.1222451276    -1.3410509770
   96      H       7.1405969821    -0.2529205478    -1.0167593998
   97      H       7.8002349780    -1.2102821648    -2.3409400705
   98      C       9.0784051443    -1.1925525368    -0.5590299476
   99      H       9.6215149622    -0.2843127474    -0.8482171031
  100      C       9.8650075396    -2.5091186802    -0.7092173689
  101      H       8.8301612621    -1.0884120178     0.5034683946
  102      H       9.3160394282    -3.3859781291    -0.3430759762
  103      H      10.7450474521    -2.5104600933    -0.0543784932
  104      C      10.3366775514    -2.6774481185    -2.1205832323
  105      H       9.4756010339    -3.1650174773    -2.5944147966
  106      C      11.5976866993    -3.5480856326    -2.1590572227
  107      H      10.4986493749    -1.6978888965    -2.5863018802
  108      H      12.0713287810    -3.7242279639    -3.1337125759
  109      H      11.3063713044    -4.5089210551    -1.7179284075
  110      H      12.4254042974    -3.0805268129    -1.6110450624
 ----------------------------------------------------------------

   10   -5663.4796655642      3.36E-06 Convergence criterion met
 Total energy in the final basis set = -5663.4796655642

                    Orbital Energies (a.u.)
 --------------------------------------------------------------

 Alpha MOs
 -- Occupied --
-88.987 -88.981 -88.927 -88.925 -88.922 -88.921 -88.905 -88.904
-14.387 -14.382 -14.381 -14.375 -14.351 -14.343 -14.343 -14.338
-14.325 -14.323 -10.272 -10.266 -10.264 -10.263 -10.250 -10.248
-10.247 -10.246 -10.246 -10.245 -10.244 -10.238 -10.234 -10.230
-10.229 -10.229 -10.228 -10.228 -10.226 -10.223 -10.222 -10.222
-10.222 -10.220 -10.219 -10.216 -10.215 -10.214 -10.213 -10.212
-10.212 -10.210 -10.209 -10.206 -10.198 -10.195 -10.193 -10.188
-10.184 -10.179 -10.178 -10.174 -10.173 -10.173 -10.172 -10.172
-10.171 -10.171 -10.170 -10.168  -8.042  -8.038  -7.988  -7.983
 -7.982  -7.979  -7.965  -7.964  -6.006  -6.003  -6.001  -6.000
 -5.997  -5.996  -5.952  -5.949  -5.948  -5.946  -5.945  -5.944
 -5.943  -5.943  -5.940  -5.940  -5.939  -5.936  -5.929  -5.929
 -5.925  -5.925  -5.921  -5.921  -1.060  -1.024  -0.980  -0.979
 -0.973  -0.958  -0.950  -0.925  -0.925  -0.910  -0.899  -0.883
 -0.843  -0.837  -0.833  -0.832  -0.815  -0.811  -0.810  -0.808
 -0.803  -0.802  -0.797  -0.789  -0.783  -0.782  -0.768  -0.764
 -0.751  -0.747  -0.740  -0.735  -0.717  -0.716  -0.706  -0.702
 -0.691  -0.689  -0.673  -0.669  -0.653  -0.652  -0.645  -0.639
 -0.635  -0.634  -0.627  -0.623  -0.611  -0.609  -0.597  -0.596
 -0.592  -0.590  -0.585  -0.579  -0.576  -0.574  -0.567  -0.550
 -0.550  -0.549  -0.541  -0.533  -0.524  -0.522  -0.512  -0.510
 -0.508  -0.505  -0.498  -0.491  -0.488  -0.483  -0.482  -0.479
 -0.474  -0.471  -0.467  -0.463  -0.461  -0.460  -0.453  -0.450
 -0.445  -0.442  -0.442  -0.436  -0.435  -0.433  -0.431  -0.430
 -0.425  -0.425  -0.422  -0.421  -0.417  -0.415  -0.415  -0.412
 -0.408  -0.404  -0.404  -0.402  -0.401  -0.399  -0.397  -0.392
 -0.390  -0.388  -0.386  -0.384  -0.383  -0.381  -0.380  -0.377
 -0.376  -0.374  -0.373  -0.369  -0.366  -0.365  -0.358  -0.353
 -0.350  -0.349  -0.348  -0.344  -0.343  -0.342  -0.341  -0.340
 -0.339  -0.334  -0.330  -0.328  -0.325  -0.323  -0.319  -0.317
 -0.316  -0.309  -0.308  -0.304  -0.304  -0.301  -0.298  -0.295
 -0.295  -0.293  -0.291  -0.289  -0.286  -0.283  -0.279  -0.275
 -0.274  -0.269  -0.266  -0.261  -0.252  -0.250  -0.247  -0.246
 -0.242  -0.238  -0.231  -0.227  -0.192  -0.188

          Ground-State Mulliken Net Atomic Charges

     Atom                 Charge (a.u.)
  ----------------------------------------
      1 C                     0.285283
      2 C                    -0.112986
      3 N                    -0.470711
      4 C                    -0.060260
      5 C                     0.074351
      6 C                     0.015398
      7 C                    -0.005461
      8 C                     0.062797
      9 C                     0.246824
     10 N                    -0.524140
     11 N                    -0.527541
     12 C                     0.161387
     13 C                     0.337296
     14 S                     0.598461
     15 N                    -0.523129
     16 C                    -0.202743
     17 S                     0.334493
     18 C                    -0.133160
     19 C                    -0.238877
     20 S                     0.292125
     21 C                     0.159780
     22 C                     0.063238
     23 C                    -0.321932
     24 C                    -0.072579
     25 N                    -0.435395
     26 S                     0.270046
     27 C                     0.140530
     28 C                    -0.296578
     29 C                    -0.246858
     30 H                     0.095575
     31 H                     0.106383
     32 H                     0.101044
     33 H                     0.111729
     34 H                     0.128586
     35 H                     0.121615
     36 H                     0.113291
     37 H                     0.115800
     38 H                     0.110345
     39 C                    -0.173146
     40 H                     0.095658
     41 H                     0.101782
     42 H                     0.100583
     43 C                    -0.189285
     44 H                     0.104357
     45 C                    -0.180125
     46 H                     0.101385
     47 H                     0.085225
     48 H                     0.082142
     49 C                    -0.172181
     50 H                     0.097291
     51 C                    -0.321357
     52 H                     0.098540
     53 H                     0.100859
     54 H                     0.102986
     55 H                     0.094956
     56 C                     0.287857
     57 C                    -0.095046
     58 N                    -0.495481
     59 C                    -0.087242
     60 C                     0.087359
     61 C                    -0.018114
     62 C                     0.038849
     63 C                     0.054859
     64 C                     0.240067
     65 N                    -0.537061
     66 N                    -0.537973
     67 C                     0.221035
     68 C                     0.290409
     69 S                     0.635318
     70 N                    -0.568368
     71 C                    -0.217534
     72 S                     0.320893
     73 C                    -0.138907
     74 C                    -0.240974
     75 S                     0.281864
     76 C                     0.186024
     77 C                     0.070704
     78 C                    -0.323805
     79 C                    -0.060694
     80 N                    -0.429095
     81 S                     0.276734
     82 C                     0.119686
     83 C                    -0.315124
     84 C                    -0.219102
     85 H                     0.085605
     86 H                     0.106644
     87 H                     0.119789
     88 H                     0.115051
     89 H                     0.133524
     90 H                     0.118369
     91 H                     0.110082
     92 H                     0.135105
     93 H                     0.118025
     94 C                    -0.214277
     95 H                     0.113174
     96 H                     0.134831
     97 H                     0.090162
     98 C                    -0.194332
     99 H                     0.086125
    100 C                    -0.179471
    101 H                     0.101421
    102 H                     0.096447
    103 H                     0.088334
    104 C                    -0.164238
    105 H                     0.095430
    106 C                    -0.320898
    107 H                     0.092956
    108 H                     0.095099
    109 H                     0.103521
    110 H                     0.102691
  ----------------------------------------
  Sum of atomic charges =     0.000000

                    Cartesian Multipole Moments
 -----------------------------------------------------------------
    Charge (ESU x 10^10)
                 0.0000
    Dipole Moment (Debye)
         X      -2.8308      Y       1.9481      Z       0.2573
       Tot       3.4460
    Quadrupole Moments (Debye-Ang)
        XX    -386.4651     XY       9.1764     YY    -430.2039
        XZ     -13.8998     YZ      -2.6680     ZZ    -448.8805

 Total job time:  118.54s(wall), 1414.74s(cpu)
        *  Thank you very much for using Q-Chem.  Have a nice day.  *
