 Q-Chem 4.4, Q-Chem, Inc., Pleasanton, CA (2016)
 Q-Chem 4.4.2 for Intel X86 Linux

User input:
--------------------------------------------------------------
$comment
SP
$end

$rem
MEM_STATIC 5000
MEM_TOTAL 20000
JOBTYPE SP
EXCHANGE B3LYP
BASIS 6-31g(d,p)
$end

$molecule
0 1
C          10.039000     23.502000      2.700000
C          11.091000     23.724000      3.564000
N           8.955000     22.831000      3.147000
C          11.057000     23.390000      4.896000
C           8.930000     22.378000      4.415000
C           9.948000     22.666000      5.394000
C           9.978000     22.303000      6.812000
C          10.727000     22.965000      7.838000
C           9.333000     21.137000      7.309000
N          10.752000     22.554000      9.145000
N           8.676000     20.338000      6.495000
C           9.396000     20.738000      8.662000
C          10.089000     21.508000      9.653000
S           8.180000     19.114000      7.506000
N           8.760000     19.551000      8.919000
C          10.014000     21.319000     11.090000
S           8.906000     20.120000     11.926000
C          10.662000     22.031000     12.044000
C           9.396000     20.692000     13.564000
S          11.972000     23.101000     11.791000
C          10.309000     21.718000     13.379000
C           8.848000     20.167000     14.722000
C          11.840000     23.467000     13.553000
C          10.964000     22.590000     14.228000
N           8.738000     20.971000     15.786000
S           8.233000     18.541000     15.004000
C           8.189000     20.384000     16.849000
C           7.780000     19.065000     16.619000
C           9.939000     23.969000      1.240000
H          11.961000     24.261000      3.197000
H          11.905000     23.622000      5.534000
H           7.997000     21.844000      4.588000
H          11.202000     23.920000      7.618000
H          12.318000     24.353000     13.950000
H          10.691000     22.627000     15.276000
H           8.115000     20.946000     17.771000
H           7.245000     18.449000     17.329000
H          10.843000     24.556000      1.035000
C           8.781000     25.018000      1.138000
H          10.009000     23.147000      0.517000
H           8.796000     25.774000      1.932000
H           7.819000     24.526000      1.329000
C           8.685000     25.678000     -0.309000
H           7.937000     26.481000     -0.293000
C           8.590000     24.872000     -1.551000
H           9.604000     26.231000     -0.543000
H           7.865000     24.056000     -1.439000
H           9.596000     24.458000     -1.688000
C           8.299000     25.547000     -2.867000
H           7.301000     25.987000     -2.752000
C           8.234000     24.507000     -3.988000
H           8.996000     26.305000     -3.246000
H           9.244000     24.275000     -4.348000
H           7.765000     25.078000     -4.799000
H           7.716000     23.541000     -3.937000
C           6.489000     15.038000      7.522000
C           5.834000     13.924000      7.159000
N           6.956000     15.883000      6.567000
C           5.665000     13.528000      5.821000
C           6.905000     15.534000      5.237000
C           6.311000     14.291000      4.816000
C           6.436000     13.725000      3.447000
C           6.757000     12.398000      3.209000
C           6.034000     14.455000      2.339000
N           6.779000     11.829000      1.993000
N           5.656000     15.793000      2.383000
C           6.117000     13.977000      1.085000
C           6.540000     12.620000      0.925000
S           5.325000     16.240000      0.874000
N           5.630000     14.813000      0.078000
C           6.659000     11.978000     -0.433000
S           6.695000     12.845000     -2.051000
C           7.072000     10.646000     -0.696000
C           7.068000     11.325000     -2.980000
S           7.460000      9.396000      0.456000
C           7.255000     10.282000     -2.015000
C           7.216000     11.261000     -4.375000
C           7.889000      8.293000     -0.856000
C           7.785000      8.944000     -2.089000
N           7.290000     10.097000     -4.930000
S           6.902000     12.562000     -5.554000
C           7.466000     10.209000     -6.285000
C           7.311000     11.472000     -6.788000
C           6.552000     15.562000      8.986000
H           5.297000     13.356000      7.913000
H           4.993000     12.690000      5.658000
H           7.554000     16.090000      4.563000
H           7.034000     11.786000      4.066000
H           8.062000      7.240000     -0.674000
H           7.982000      8.538000     -3.074000
H           7.598000      9.278000     -6.820000
H           7.372000     11.847000     -7.801000
H           7.113000     16.499000      9.085000
C           6.816000     14.469000     10.001000
H           5.541000     15.876000      9.273000
H           7.550000     13.816000      9.515000
H           5.927000     13.858000     10.200000
C           7.368000     15.092000     11.300000
H           7.702000     14.277000     11.954000
C           6.457000     16.142000     11.965000
H           8.269000     15.618000     10.964000
H           6.203000     16.978000     11.301000
H           6.988000     16.657000     12.775000
C           5.244000     15.486000     12.549000
H           4.558000     15.467000     11.693000
C           4.701000     16.317000     13.717000
H           5.476000     14.457000     12.849000
H           3.829000     15.931000     14.261000
H           4.459000     17.299000     13.293000
H           5.433000     16.392000     14.531000
$end

--------------------------------------------------------------

             Standard Nuclear Orientation (Angstroms)
    I     Atom           X                Y                Z
 ----------------------------------------------------------------
    1      C      -0.9993988920    -6.6502412447    -0.4159436568
    2      C      -1.9929624428    -6.6345267548    -1.3725357984
    3      N      -0.9175834644    -5.6250133212     0.4600243453
    4      C      -2.9783418774    -5.6787222907    -1.4215378008
    5      C      -1.7911359916    -4.6038755756     0.3714710458
    6      C      -2.9116368204    -4.5780426443    -0.5349061121
    7      C      -3.9657722998    -3.5689552045    -0.6529481813
    8      C      -5.2726660474    -3.7726346655    -1.2029158253
    9      C      -3.7452359848    -2.2019520082    -0.3285163778
   10      N      -6.2068981904    -2.7780752530    -1.3288399216
   11      N      -2.5673995806    -1.7976134821     0.0979314634
   12      C      -4.7300760874    -1.2027229338    -0.4879222404
   13      C      -6.0516574386    -1.5018732787    -0.9560694430
   14      S      -2.7828669570    -0.1568963027     0.2650659800
   15      N      -4.2930276652     0.0592864376    -0.1783499175
   16      C      -7.1926922482    -0.6054615829    -0.9277739466
   17      S      -7.1881609505     1.0618361534    -0.1634057593
   18      C      -8.4482287075    -0.8647605498    -1.3674968651
   19      C      -8.9464223748     1.2981032131    -0.4843771602
   20      S      -8.9210118341    -2.1760593739    -2.3584461620
   21      C      -9.4042653955     0.1455648014    -1.1028470285
   22      C      -9.6209169915     2.4398669210    -0.0864756053
   23      C     -10.6045334634    -1.5677116783    -2.1310874037
   24      C     -10.6474823929    -0.3017711661    -1.5084478540
   25      N     -10.9160852147     2.3266017155     0.2302612993
   26      S      -8.9954873641     4.0767511905     0.0897988095
   27      C     -11.4782540016     3.4726923321     0.6128597229
   28      C     -10.5861007443     4.5501951223     0.6675616657
   29      C       0.0498887001    -7.7518751643    -0.2036060572
   30      H      -2.0507534261    -7.4602174913    -2.0759936932
   31      H      -3.7544029996    -5.7397631744    -2.1791492745
   32      H      -1.5587345453    -3.8642060942     1.1359660594
   33      H      -5.6080083484    -4.7865123604    -1.4165687236
   34      H     -11.4403345488    -2.2146438813    -2.3634755927
   35      H     -11.5355536636     0.2541240926    -1.2318400459
   36      H     -12.5381006512     3.4824229355     0.8320272267
   37      H     -10.8308317897     5.5401108730     1.0280537212
   38      H      -0.1767020553    -8.5455066118    -0.9265277370
   39      C      -0.2174532846    -8.4238082541     1.1852075322
   40      H       1.0642073872    -7.4434237696    -0.4852589251
   41      H      -1.2723975044    -8.6602285209     1.3679509329
   42      H      -0.0171435606    -7.7037897614     1.9885993324
   43      C       0.7265239386    -9.6811265962     1.4434372533
   44      H       0.4222504352   -10.1788517801     2.3730911009
   45      C       2.2036382214    -9.6102533063     1.3237068383
   46      H       0.5395072737   -10.4642227961     0.6971724821
   47      H       2.5980016327    -8.7115130231     1.8143884083
   48      H       2.3899389483    -9.5555498051     0.2445865641
   49      C       3.0528170363   -10.7711691178     1.7746301344
   50      H       2.8718815615   -10.8604269340     2.8526488709
   51      C       4.5347578984   -10.4505497048     1.5660145231
   52      H       2.9211296029   -11.7493523841     1.2952243384
   53      H       4.8251431441   -10.6608832774     0.5292116502
   54      H       5.0211810060   -11.2314831065     2.1637256427
   55      H       5.0272387287    -9.5028569033     1.8178517441
   56      C      -0.5979345250     3.6323672596     0.8490736196
   57      C       0.3423403696     4.5261200145     1.1938621572
   58      N      -0.2433700776     2.3430033972     0.6125067517
   59      C       1.7135180331     4.2224193665     1.2509474591
   60      C       1.0825321042     1.9779302629     0.5677070760
   61      C       2.1274274417     2.9368860370     0.8201423288
   62      C       3.5689897949     2.6946798236     0.5492620380
   63      C       4.3755621180     3.6133635370    -0.1034824161
   64      C       4.2263135128     1.6168268473     1.1222598490
   65      N       5.6998812913     3.4733053164    -0.2751315407
   66      N       3.5896821560     0.6041073398     1.8323047170
   67      C       5.5313319989     1.3681188875     0.9149916613
   68      C       6.2715335375     2.3284967070     0.1562070237
   69      S       4.7215292563    -0.4543212524     2.2625396027
   70      N       6.0611701599     0.2711976767     1.5977429925
   71      C       7.7412115786     2.1566721171    -0.1284186354
   72      S       8.7152946464     0.6112240672     0.0550520759
   73      C       8.5596781737     3.0466254660    -0.8714243350
   74      C      10.2060343783     1.3326308835    -0.6998235808
   75      S       8.1181859207     4.5843483206    -1.5647071150
   76      C       9.8524459498     2.6478518668    -1.1461552828
   77      C      11.4237369845     0.6526519090    -0.8636953514
   78      C       9.7305955159     4.7524058193    -2.2674773298
   79      C      10.4949503121     3.6118769151    -2.0031639472
   80      N      12.4580195085     1.3304878758    -1.2367838967
   81      S      11.8540876744    -0.9576347579    -0.2288621969
   82      C      13.5521363870     0.5172883328    -1.3822478419
   83      C      13.3953922589    -0.7568387163    -0.9087137450
   84      C      -2.1261049516     3.9158133042     0.9277786831
   85      H       0.0365634224     5.4984568396     1.5687895595
   86      H       2.3493329314     4.9896870083     1.6838871557
   87      H       1.3101646227     1.0310337280     0.0817200506
   88      H       3.8945835612     4.4941492855    -0.5260910922
   89      H      10.0607433105     5.6857660235    -2.7053165272
   90      H      11.5174242244     3.4128893200    -2.3011925291
   91      H      14.4485398103     0.9975742382    -1.7512957410
   92      H      14.0815039980    -1.5926479313    -0.8742371197
   93      H      -2.7399086308     3.0581975209     0.6273935774
   94      C      -2.5088592826     5.2809119315     0.3943230994
   95      H      -2.3929798560     4.0211544705     1.9864415303
   96      H      -1.8690404604     5.4202577672    -0.4846397057
   97      H      -2.2674286916     6.0882729424     1.0965498917
   98      C      -4.0068991379     5.2905458135     0.0255172152
   99      H      -4.2214855120     6.2264399829    -0.5050973264
  100      C      -4.9705415069     4.9484161722     1.1783340668
  101      H      -4.0902563599     4.4827642679    -0.7106305607
  102      H      -4.7680481858     3.9722474993     1.6370269675
  103      H      -5.9906379418     4.8073386990     0.8004631762
  104      C      -4.9974259630     6.0584602857     2.1832421681
  105      H      -4.1574879013     5.7961104887     2.8385051966
  106      C      -6.3384412758     6.0706535298     2.9256458693
  107      H      -4.7887312947     7.0179808174     1.6949472934
  108      H      -6.5066191957     6.8594757055     3.6704893176
  109      H      -6.4158163847     5.0903449811     3.4111067245
  110      H      -7.1752775146     6.2549192332     2.2402290181
 ----------------------------------------------------------------

   10   -5663.4977201192      3.69E-06 Convergence criterion met
 Total energy in the final basis set = -5663.4977201192

                    Orbital Energies (a.u.)
 --------------------------------------------------------------

 Alpha MOs
 -- Occupied --
-88.992 -88.974 -88.931 -88.926 -88.924 -88.918 -88.908 -88.906
-14.388 -14.383 -14.380 -14.372 -14.353 -14.342 -14.341 -14.338
-14.332 -14.323 -10.270 -10.267 -10.265 -10.259 -10.252 -10.251
-10.249 -10.249 -10.249 -10.245 -10.241 -10.239 -10.239 -10.239
-10.234 -10.231 -10.231 -10.230 -10.230 -10.229 -10.228 -10.225
-10.225 -10.225 -10.224 -10.224 -10.221 -10.220 -10.218 -10.216
-10.214 -10.212 -10.207 -10.205 -10.196 -10.194 -10.194 -10.191
-10.189 -10.186 -10.186 -10.182 -10.179 -10.179 -10.176 -10.174
-10.173 -10.172 -10.170 -10.169  -8.047  -8.029  -7.991  -7.986
 -7.983  -7.976  -7.968  -7.966  -6.012  -6.007  -6.005  -5.994
 -5.989  -5.987  -5.955  -5.951  -5.950  -5.948  -5.948  -5.947
 -5.944  -5.943  -5.941  -5.940  -5.937  -5.932  -5.932  -5.931
 -5.929  -5.927  -5.924  -5.922  -1.036  -1.030  -0.982  -0.970
 -0.961  -0.947  -0.934  -0.931  -0.911  -0.906  -0.902  -0.889
 -0.838  -0.836  -0.834  -0.828  -0.817  -0.816  -0.808  -0.806
 -0.803  -0.802  -0.793  -0.793  -0.788  -0.783  -0.769  -0.766
 -0.751  -0.751  -0.742  -0.737  -0.719  -0.715  -0.710  -0.706
 -0.692  -0.691  -0.673  -0.668  -0.657  -0.650  -0.643  -0.640
 -0.638  -0.635  -0.628  -0.622  -0.615  -0.611  -0.600  -0.596
 -0.594  -0.591  -0.589  -0.588  -0.580  -0.579  -0.559  -0.556
 -0.555  -0.551  -0.537  -0.535  -0.525  -0.520  -0.514  -0.511
 -0.509  -0.503  -0.493  -0.491  -0.486  -0.483  -0.479  -0.475
 -0.471  -0.471  -0.468  -0.466  -0.465  -0.464  -0.458  -0.449
 -0.442  -0.440  -0.440  -0.438  -0.436  -0.434  -0.434  -0.432
 -0.429  -0.427  -0.426  -0.424  -0.418  -0.418  -0.414  -0.413
 -0.411  -0.409  -0.402  -0.401  -0.399  -0.396  -0.394  -0.392
 -0.391  -0.390  -0.389  -0.389  -0.385  -0.385  -0.384  -0.379
 -0.379  -0.378  -0.377  -0.372  -0.370  -0.365  -0.357  -0.354
 -0.351  -0.349  -0.347  -0.346  -0.345  -0.342  -0.340  -0.340
 -0.335  -0.333  -0.331  -0.330  -0.327  -0.327  -0.323  -0.316
 -0.314  -0.311  -0.307  -0.306  -0.305  -0.304  -0.301  -0.298
 -0.297  -0.291  -0.289  -0.286  -0.282  -0.280  -0.279  -0.278
 -0.277  -0.269  -0.266  -0.261  -0.255  -0.252  -0.251  -0.245
 -0.244  -0.241  -0.233  -0.225  -0.191  -0.189

          Ground-State Mulliken Net Atomic Charges

     Atom                 Charge (a.u.)
  ----------------------------------------
      1 C                     0.259909
      2 C                    -0.127810
      3 N                    -0.479425
      4 C                    -0.067659
      5 C                     0.090866
      6 C                     0.026594
      7 C                     0.046300
      8 C                     0.050543
      9 C                     0.241183
     10 N                    -0.561142
     11 N                    -0.569042
     12 C                     0.130878
     13 C                     0.339903
     14 S                     0.624403
     15 N                    -0.534199
     16 C                    -0.197525
     17 S                     0.290343
     18 C                    -0.114199
     19 C                    -0.218766
     20 S                     0.287534
     21 C                     0.204685
     22 C                     0.017145
     23 C                    -0.314800
     24 C                    -0.074972
     25 N                    -0.418061
     26 S                     0.286662
     27 C                     0.135363
     28 C                    -0.324784
     29 C                    -0.212459
     30 H                     0.080014
     31 H                     0.102913
     32 H                     0.122743
     33 H                     0.112671
     34 H                     0.126873
     35 H                     0.122176
     36 H                     0.115558
     37 H                     0.131427
     38 H                     0.093358
     39 C                    -0.179924
     40 H                     0.124873
     41 H                     0.099572
     42 H                     0.121241
     43 C                    -0.186352
     44 H                     0.080909
     45 C                    -0.154900
     46 H                     0.081610
     47 H                     0.089832
     48 H                     0.086198
     49 C                    -0.176525
     50 H                     0.094348
     51 C                    -0.323208
     52 H                     0.095642
     53 H                     0.100954
     54 H                     0.096755
     55 H                     0.105868
     56 C                     0.286606
     57 C                    -0.112831
     58 N                    -0.504734
     59 C                    -0.078357
     60 C                     0.100268
     61 C                     0.002368
     62 C                     0.013471
     63 C                     0.065472
     64 C                     0.235413
     65 N                    -0.522817
     66 N                    -0.533388
     67 C                     0.203681
     68 C                     0.295046
     69 S                     0.627461
     70 N                    -0.560981
     71 C                    -0.217129
     72 S                     0.310458
     73 C                    -0.144508
     74 C                    -0.238509
     75 S                     0.291872
     76 C                     0.182206
     77 C                     0.070742
     78 C                    -0.317737
     79 C                    -0.065483
     80 N                    -0.425096
     81 S                     0.267032
     82 C                     0.119529
     83 C                    -0.308347
     84 C                    -0.227504
     85 H                     0.086285
     86 H                     0.108702
     87 H                     0.118155
     88 H                     0.112919
     89 H                     0.135623
     90 H                     0.119212
     91 H                     0.112505
     92 H                     0.143716
     93 H                     0.126139
     94 C                    -0.189343
     95 H                     0.118487
     96 H                     0.098825
     97 H                     0.096560
     98 C                    -0.193842
     99 H                     0.089472
    100 C                    -0.187499
    101 H                     0.099770
    102 H                     0.101408
    103 H                     0.102695
    104 C                    -0.165210
    105 H                     0.094520
    106 C                    -0.322295
    107 H                     0.092877
    108 H                     0.094894
    109 H                     0.107576
    110 H                     0.101550
  ----------------------------------------
  Sum of atomic charges =     0.000000

                    Cartesian Multipole Moments
 -----------------------------------------------------------------
    Charge (ESU x 10^10)
                 0.0000
    Dipole Moment (Debye)
         X       0.8026      Y       0.7536      Z      -0.2542
       Tot       1.1299
    Quadrupole Moments (Debye-Ang)
        XX    -386.7236     XY     -28.6726     YY    -400.9065
        XZ      -8.2546     YZ      12.3984     ZZ    -447.4066

 Total job time:  87.72s(wall), 1019.98s(cpu)
        *  Thank you very much for using Q-Chem.  Have a nice day.  *
