 Q-Chem 4.4, Q-Chem, Inc., Pleasanton, CA (2016)
 Q-Chem 4.4.2 for Intel X86 Linux

User input:
--------------------------------------------------------------
$comment
SP
$end

$rem
MEM_STATIC 5000
MEM_TOTAL 20000
JOBTYPE SP
EXCHANGE B3LYP
BASIS 6-31g(d,p)
$end

$molecule
0 1
C          -3.750000      2.453000      2.354000
C          -2.795000      3.015000      1.521000
N          -5.000000      2.940000      2.379000
C          -3.052000      4.132000      0.717000
C          -5.319000      4.042000      1.638000
C          -4.313000      4.721000      0.813000
C          -4.650000      6.086000      0.274000
C          -5.981000      6.367000     -0.105000
C          -3.735000      7.203000      0.056000
N          -6.423000      7.548000     -0.526000
N          -2.439000      7.110000     -0.015000
C          -4.250000      8.449000     -0.302000
C          -5.653000      8.613000     -0.547000
S          -1.874000      8.646000     -0.329000
N          -3.298000      9.440000     -0.422000
C          -6.414000      9.843000     -1.020000
S          -7.870000      9.737000     -1.981000
C          -6.297000     11.170000     -0.598000
C          -8.350000     11.366000     -1.704000
S          -5.037000     11.929000      0.441000
C          -7.321000     12.018000     -1.044000
C          -9.533000     11.988000     -2.140000
C          -5.998000     13.432000      0.279000
C          -7.057000     13.322000     -0.609000
N         -10.351000     11.203000     -2.915000
S         -10.122000     13.558000     -1.864000
C         -11.422000     12.001000     -3.392000
C         -11.414000     13.281000     -2.960000
C          -3.447000      1.333000      3.321000
H          -1.800000      2.598000      1.641000
H          -2.282000      4.543000      0.070000
H          -6.338000      4.427000      1.650000
H          -6.714000      5.561000     -0.089000
H          -5.589000     14.286000      0.802000
H          -7.779000     14.117000     -0.754000
H         -12.162000     11.662000     -4.105000
H         -12.176000     14.019000     -3.171000
H          -2.420000      1.400000      3.701000
C          -3.747000     -0.032000      2.658000
H          -4.168000      1.424000      4.143000
H          -3.148000     -0.200000      1.754000
H          -4.805000     -0.079000      2.372000
C          -3.578000     -1.236000      3.696000
H          -2.534000     -1.308000      4.023000
C          -3.918000     -2.614000      3.097000
H          -4.118000     -0.977000      4.615000
H          -5.001000     -2.686000      2.939000
H          -3.789000     -3.287000      3.954000
C          -3.072000     -3.022000      1.890000
H          -3.330000     -2.427000      1.005000
C          -3.318000     -4.507000      1.527000
H          -1.994000     -2.921000      2.065000
H          -2.946000     -5.196000      2.296000
H          -2.824000     -4.703000      0.567000
H          -4.377000     -4.743000      1.368000
C          -8.129000     -2.662000      1.029000
C          -8.969000     -1.697000      0.502000
N          -6.832000     -2.636000      0.867000
C          -8.352000     -0.661000     -0.220000
C          -6.258000     -1.606000      0.148000
C          -6.962000     -0.507000     -0.319000
C          -6.386000      0.770000     -0.871000
C          -7.190000      1.885000     -1.370000
C          -4.997000      0.944000     -1.140000
N          -6.696000      2.987000     -1.955000
N          -4.077000      0.071000     -0.855000
C          -4.429000      2.141000     -1.705000
C          -5.361000      3.148000     -2.155000
S          -2.633000      0.678000     -1.360000
N          -3.106000      2.096000     -1.946000
C          -4.885000      4.450000     -2.736000
S          -3.232000      5.109000     -2.875000
C          -5.739000      5.449000     -3.149000
C          -3.828000      6.747000     -3.459000
S          -7.500000      5.382000     -3.308000
C          -5.183000      6.709000     -3.506000
C          -3.011000      7.883000     -3.817000
C          -7.496000      7.028000     -3.959000
C          -6.201000      7.580000     -3.952000
N          -1.690000      7.608000     -4.084000
S          -3.519000      9.556000     -3.987000
C          -1.187000      8.704000     -4.699000
C          -1.930000      9.846000     -4.567000
C          -8.697000     -3.801000      1.874000
H         -10.050000     -1.798000      0.535000
H          -9.021000      0.062000     -0.677000
H          -5.233000     -1.742000     -0.194000
H          -8.270000      1.753000     -1.428000
H          -8.399000      7.422000     -4.407000
H          -6.037000      8.529000     -4.451000
H          -0.195000      8.588000     -5.115000
H          -1.597000     10.804000     -4.943000
H          -8.090000     -3.936000      2.778000
C          -8.716000     -5.075000      1.039000
H          -9.695000     -3.546000      2.250000
H          -7.688000     -5.409000      0.846000
H          -9.174000     -4.886000      0.061000
C          -9.494000     -6.220000      1.824000
H          -9.088000     -6.400000      2.827000
C          -9.520000     -7.532000      1.021000
H         -10.511000     -5.833000      1.963000
H          -8.515000     -7.972000      1.010000
H          -9.633000     -7.315000     -0.049000
C         -10.702000     -8.491000      1.501000
H         -10.447000     -9.490000      1.126000
C         -12.125000     -8.110000      0.975000
H         -10.618000     -8.509000      2.594000
H         -12.956000     -8.629000      1.467000
H         -12.153000     -8.256000     -0.112000
H         -12.266000     -7.057000      1.247000
$end

--------------------------------------------------------------

             Standard Nuclear Orientation (Angstroms)
    I     Atom           X                Y                Z
 ----------------------------------------------------------------
    1      C       2.5991001607    -2.2866768405    -2.4946720332
    2      C       1.8291533192    -3.1701153027    -1.7540801451
    3      N       2.1866638725    -1.0246850025    -2.6884938817
    4      C       0.5795098091    -2.8274091468    -1.2238937738
    5      C       0.9679384697    -0.6244350603    -2.2197142145
    6      C       0.0831642168    -1.5552713311    -1.5094886457
    7      C      -1.3483579635    -1.1403404065    -1.2952654559
    8      C      -1.6421188357     0.2198469396    -1.0549366533
    9      C      -2.5270504880    -2.0021702779    -1.2759987617
   10      N      -2.8640886211     0.7261777980    -0.9215765938
   11      N      -2.5110559451    -3.2939336268    -1.1198013699
   12      C      -3.7956715029    -1.4246125529    -1.2218434764
   13      C      -3.9433770153    -0.0046420878    -1.0907062970
   14      S      -4.1030217544    -3.7866211774    -1.1152363438
   15      N      -4.8322129307    -2.3335317863    -1.2690948828
   16      C      -5.2095704899     0.8247204853    -0.9336655143
   17      S      -5.2439189125     2.3316035160    -0.0488962125
   18      C      -6.4200997317     0.7274914299    -1.6249450999
   19      C      -6.7526122887     2.8489179498    -0.6946516408
   20      S      -6.9974009185    -0.5664497395    -2.7365392659
   21      C      -7.2956262851     1.8046581114    -1.4255430073
   22      C      -7.3981277715     4.0764465374    -0.4645379123
   23      C      -8.4545466233     0.4529224955    -2.9519009190
   24      C      -8.4877028197     1.5592181245    -2.1169544250
   25      N      -6.7595303513     4.9126432877     0.4180391834
   26      S      -8.8444377586     4.7005620054    -1.1022402754
   27      C      -7.5907033335     6.0368736940     0.6560128527
   28      C      -8.7482163055     6.0461886482    -0.0405249792
   29      C       3.8842916495    -2.6852053766    -3.1807885270
   30      H       2.2159086788    -4.1840924933    -1.7299027029
   31      H       0.0050820058    -3.5426229088    -0.6417151298
   32      H       0.6416482170     0.4044396103    -2.3669608890
   33      H      -0.8183680953     0.9228287820    -0.9348023662
   34      H      -9.1953670959     0.0422817717    -3.6247197826
   35      H      -9.2612552703     2.3151590620    -2.1840655661
   36      H      -7.3777534100     6.8066229455     1.3861008062
   37      H      -9.4783645380     6.8440839432    -0.0330646395
   38      H       3.8526261555    -3.7303951633    -3.5127427502
   39      C       5.0889683138    -2.3921662800    -2.2557608396
   40      H       4.0038349876    -2.0124272994    -4.0392086160
   41      H       5.0327116726    -2.9408987603    -1.3070939563
   42      H       5.1225737684    -1.3210427726    -2.0213805816
   43      C       6.4774361153    -2.6641428657    -2.9999428744
   44      H       6.5693497311    -3.7278029961    -3.2493983096
   45      C       7.7102797447    -2.3354998656    -2.1365916342
   46      H       6.4453635254    -2.1720917846    -3.9797893331
   47      H       7.7967122754    -1.2480029481    -2.0229392167
   48      H       8.5437890664    -2.5386718515    -2.8206986104
   49      C       7.8123112834    -3.1204942959    -0.8280037275
   50      H       7.0548946512    -2.7895842282    -0.1064549958
   51      C       9.1955492918    -2.9034837832    -0.1668917480
   52      H       7.7014293276    -4.2030463363    -0.9647380384
   53      H      10.0147380277    -3.3443081139    -0.7491886862
   54      H       9.1595166674    -3.3450385518     0.8369922276
   55      H       9.4407191290    -1.8454233949    -0.0157032378
   56      C       7.5101895425     1.9885148123    -0.3270861834
   57      C       6.4947485987     2.8909700677    -0.0643920615
   58      N       7.3906077368     0.7052725795    -0.1077267436
   59      C       5.3014130967     2.3540806898     0.4484131407
   60      C       6.2057459399     0.2108960636     0.4012245140
   61      C       5.0660568434     0.9785965993     0.5835721236
   62      C       3.6756341964     0.4805180253     0.8765765552
   63      C       2.5181121353     1.3504509311     1.0815190289
   64      C       3.3845764029    -0.8830379599     1.1731544302
   65      N       1.2952204172     0.9302393951     1.4401596719
   66      N       4.2549765887    -1.8475901071     1.1307672637
   67      C       2.0698269789    -1.3750610590     1.4956528365
   68      C       1.0340393698    -0.3840477824     1.6694622572
   69      S       3.4885102112    -3.2371158047     1.5670671925
   70      N       2.0015050866    -2.6818809376     1.8086846623
   71      C      -0.3823604080    -0.7797701136     1.9801976848
   72      S      -1.1311951209    -2.3981085038     2.0591814006
   73      C      -1.4060446909     0.1309274784     2.1236772470
   74      C      -2.8268216670    -1.7128379446     2.2451138523
   75      S      -1.2935057699     1.8950301094     2.2022132170
   76      C      -2.7373995355    -0.3595357115     2.2291530123
   77      C      -4.0493828865    -2.4678152901     2.3917503833
   78      C      -3.0388281582     1.9860496699     2.4827452125
   79      C      -3.6356488999     0.7124243015     2.4239113494
   80      N      -3.8986864855    -3.7788614353     2.7795694132
   81      S      -5.6949894444    -1.8941180001     2.1709711357
   82      C      -5.1225299846    -4.2064452434     3.1692220493
   83      C      -6.1747372180    -3.4345090560     2.7561706475
   84      C       8.8280049775     2.4656147156    -0.9351224993
   85      H       6.6500954561     3.9639698998    -0.1306469815
   86      H       4.5291994581     3.0735276218     0.7037975734
   87      H       6.2184237855    -0.7956279816     0.8169571428
   88      H       2.6842742420     2.4268917026     1.1107323776
   89      H      -3.4772703644     2.9272507935     2.7881267392
   90      H      -4.6757082787     0.6110536885     2.7145975846
   91      H      -5.1436226026    -5.1749078399     3.6511051272
   92      H      -7.2051443760    -3.7115885224     2.9337010899
   93      H       9.1244766883     1.8009738375    -1.7562479635
   94      C       9.8942851921     2.4917826031     0.1525464511
   95      H       8.7051930862     3.4471830756    -1.4082459441
   96      H      10.1318152671     1.4665733315     0.4657786541
   97      H       9.5224859103     3.0140723610     1.0418988575
   98      C      11.2148331744     3.1817950661    -0.4065329951
   99      H      11.5855695676     2.7101777537    -1.3248883934
  100      C      12.3253408920     3.2117292057     0.6577534120
  101      H      10.9135639535     4.2010825614    -0.6779530727
  102      H      12.7061654055     2.1948979584     0.8151475177
  103      H      11.8907333617     3.3963423637     1.6486077285
  104      C      13.4179554700     4.3294687771     0.3351753061
  105      H      14.3012730921     4.0638628031     0.9291908320
  106      C      12.9995065716     5.7936885038     0.6925646055
  107      H      13.6645861540     4.1791386696    -0.7224650697
  108      H      13.6491113057     6.5754468867     0.2816467058
  109      H      12.9116324336     5.8822365400     1.7825675326
  110      H      12.0362917716     5.9536085918     0.1932482583
 ----------------------------------------------------------------

    9   -5663.5190244258      9.39E-06 Convergence criterion met
 Total energy in the final basis set = -5663.5190244258

                    Orbital Energies (a.u.)
 --------------------------------------------------------------

 Alpha MOs
 -- Occupied --
-88.986 -88.985 -88.937 -88.928 -88.923 -88.917 -88.909 -88.906
-14.389 -14.389 -14.377 -14.375 -14.355 -14.346 -14.339 -14.339
-14.327 -14.327 -10.273 -10.270 -10.264 -10.263 -10.258 -10.257
-10.254 -10.253 -10.248 -10.245 -10.243 -10.238 -10.233 -10.232
-10.231 -10.231 -10.230 -10.229 -10.229 -10.227 -10.227 -10.226
-10.226 -10.225 -10.223 -10.222 -10.222 -10.221 -10.217 -10.216
-10.210 -10.209 -10.205 -10.204 -10.202 -10.202 -10.195 -10.192
-10.182 -10.181 -10.180 -10.180 -10.178 -10.177 -10.176 -10.173
-10.169 -10.168 -10.161 -10.159  -8.041  -8.040  -7.998  -7.990
 -7.980  -7.976  -7.969  -7.965  -6.007  -6.005  -6.001  -6.000
 -5.999  -5.998  -5.961  -5.958  -5.955  -5.954  -5.950  -5.947
 -5.945  -5.941  -5.940  -5.936  -5.936  -5.933  -5.932  -5.930
 -5.930  -5.926  -5.925  -5.922  -1.045  -1.035  -0.967  -0.962
 -0.955  -0.953  -0.941  -0.931  -0.916  -0.910  -0.906  -0.903
 -0.843  -0.834  -0.829  -0.823  -0.815  -0.806  -0.805  -0.803
 -0.799  -0.795  -0.794  -0.793  -0.778  -0.777  -0.764  -0.764
 -0.746  -0.746  -0.739  -0.733  -0.720  -0.716  -0.707  -0.705
 -0.694  -0.690  -0.676  -0.673  -0.652  -0.646  -0.643  -0.641
 -0.636  -0.627  -0.624  -0.622  -0.609  -0.604  -0.598  -0.593
 -0.592  -0.590  -0.583  -0.581  -0.576  -0.575  -0.568  -0.551
 -0.544  -0.543  -0.540  -0.539  -0.524  -0.520  -0.519  -0.514
 -0.508  -0.503  -0.498  -0.497  -0.484  -0.484  -0.478  -0.474
 -0.472  -0.468  -0.467  -0.463  -0.457  -0.449  -0.449  -0.446
 -0.443  -0.442  -0.437  -0.435  -0.432  -0.431  -0.430  -0.428
 -0.426  -0.423  -0.422  -0.420  -0.418  -0.416  -0.413  -0.411
 -0.406  -0.405  -0.404  -0.400  -0.398  -0.397  -0.396  -0.394
 -0.391  -0.389  -0.387  -0.386  -0.386  -0.383  -0.383  -0.380
 -0.377  -0.375  -0.370  -0.369  -0.363  -0.360  -0.359  -0.352
 -0.351  -0.349  -0.346  -0.344  -0.342  -0.341  -0.340  -0.339
 -0.337  -0.335  -0.332  -0.330  -0.324  -0.323  -0.321  -0.315
 -0.311  -0.310  -0.309  -0.307  -0.304  -0.302  -0.301  -0.297
 -0.293  -0.290  -0.289  -0.285  -0.283  -0.283  -0.280  -0.277
 -0.274  -0.268  -0.267  -0.265  -0.256  -0.251  -0.247  -0.243
 -0.242  -0.237  -0.232  -0.223  -0.194  -0.190

          Ground-State Mulliken Net Atomic Charges

     Atom                 Charge (a.u.)
  ----------------------------------------
      1 C                     0.281361
      2 C                    -0.135841
      3 N                    -0.491701
      4 C                    -0.068284
      5 C                     0.082050
      6 C                     0.003043
      7 C                     0.047237
      8 C                     0.050832
      9 C                     0.271820
     10 N                    -0.490971
     11 N                    -0.559858
     12 C                     0.175831
     13 C                     0.286008
     14 S                     0.608199
     15 N                    -0.544471
     16 C                    -0.246935
     17 S                     0.373449
     18 C                    -0.131628
     19 C                    -0.212634
     20 S                     0.263647
     21 C                     0.148028
     22 C                     0.053804
     23 C                    -0.295819
     24 C                    -0.098005
     25 N                    -0.458858
     26 S                     0.286025
     27 C                     0.117707
     28 C                    -0.305591
     29 C                    -0.222483
     30 H                     0.084701
     31 H                     0.139527
     32 H                     0.110070
     33 H                     0.126609
     34 H                     0.131447
     35 H                     0.104929
     36 H                     0.114804
     37 H                     0.131844
     38 H                     0.096811
     39 C                    -0.183837
     40 H                     0.120018
     41 H                     0.098519
     42 H                     0.116383
     43 C                    -0.187387
     44 H                     0.080521
     45 C                    -0.177654
     46 H                     0.083558
     47 H                     0.115555
     48 H                     0.078738
     49 C                    -0.172862
     50 H                     0.105548
     51 C                    -0.327826
     52 H                     0.085980
     53 H                     0.096438
     54 H                     0.087462
     55 H                     0.119958
     56 C                     0.278949
     57 C                    -0.115063
     58 N                    -0.495756
     59 C                    -0.097692
     60 C                     0.053169
     61 C                     0.073789
     62 C                     0.069834
     63 C                     0.060336
     64 C                     0.243791
     65 N                    -0.531124
     66 N                    -0.584734
     67 C                     0.204544
     68 C                     0.301500
     69 S                     0.597177
     70 N                    -0.544371
     71 C                    -0.206547
     72 S                     0.332700
     73 C                    -0.150860
     74 C                    -0.249578
     75 S                     0.293967
     76 C                     0.200150
     77 C                     0.006387
     78 C                    -0.287306
     79 C                    -0.108065
     80 N                    -0.413553
     81 S                     0.322120
     82 C                     0.122693
     83 C                    -0.310058
     84 C                    -0.217057
     85 H                     0.093326
     86 H                     0.089926
     87 H                     0.139906
     88 H                     0.111453
     89 H                     0.147101
     90 H                     0.114916
     91 H                     0.113189
     92 H                     0.130795
     93 H                     0.115731
     94 C                    -0.180214
     95 H                     0.090961
     96 H                     0.116495
     97 H                     0.094039
     98 C                    -0.176353
     99 H                     0.095219
    100 C                    -0.183796
    101 H                     0.090951
    102 H                     0.093114
    103 H                     0.087198
    104 C                    -0.184769
    105 H                     0.090774
    106 C                    -0.315497
    107 H                     0.093587
    108 H                     0.105386
    109 H                     0.108124
    110 H                     0.103281
  ----------------------------------------
  Sum of atomic charges =     0.000000

                    Cartesian Multipole Moments
 -----------------------------------------------------------------
    Charge (ESU x 10^10)
                 0.0000
    Dipole Moment (Debye)
         X      -4.1485      Y       0.8774      Z       0.8000
       Tot       4.3150
    Quadrupole Moments (Debye-Ang)
        XX    -396.5726     XY       3.2450     YY    -414.0567
        XZ       0.5996     YZ       3.5648     ZZ    -448.5450

 Total job time:  105.41s(wall), 1249.41s(cpu)
        *  Thank you very much for using Q-Chem.  Have a nice day.  *
