 Q-Chem 4.4, Q-Chem, Inc., Pleasanton, CA (2016)
 Q-Chem 4.4.2 for Intel X86 Linux

User input:
--------------------------------------------------------------
$comment
SP
$end

$rem
MEM_STATIC 5000
MEM_TOTAL 20000
JOBTYPE SP
EXCHANGE B3LYP
BASIS 6-31g(d,p)
$end

$molecule
0 1
C          -3.038000     -9.574000      0.606000
C          -2.540000     -9.281000     -0.673000
N          -3.943000     -8.802000      1.235000
C          -2.972000     -8.093000     -1.304000
C          -4.388000     -7.719000      0.578000
C          -3.915000     -7.279000     -0.675000
C          -4.503000     -6.090000     -1.274000
C          -5.886000     -5.839000     -1.307000
C          -3.743000     -5.083000     -1.970000
N          -6.510000     -4.800000     -1.967000
N          -2.399000     -5.118000     -2.185000
C          -4.278000     -3.960000     -2.512000
C          -5.717000     -3.839000     -2.513000
S          -1.927000     -3.711000     -2.870000
N          -3.343000     -3.128000     -3.096000
C          -6.380000     -2.746000     -3.292000
S          -5.512000     -1.432000     -4.050000
C          -7.723000     -2.508000     -3.400000
C          -6.988000     -0.607000     -4.626000
S          -9.110000     -3.354000     -2.689000
C          -8.051000     -1.367000     -4.137000
C          -7.170000      0.649000     -5.306000
C         -10.161000     -2.107000     -3.409000
C          -9.513000     -1.140000     -4.087000
N          -8.387000      0.859000     -5.937000
S          -6.149000      2.091000     -5.169000
C          -8.543000      2.164000     -6.305000
C          -7.459000      2.953000     -6.005000
C          -2.573000    -10.759000      1.467000
H          -1.806000     -9.907000     -1.173000
H          -2.642000     -7.848000     -2.310000
H          -5.214000     -7.170000      1.028000
H          -6.522000     -6.522000     -0.746000
H         -11.231000     -2.201000     -3.281000
H         -10.086000     -0.371000     -4.593000
H          -9.441000      2.530000     -6.785000
H          -7.316000      4.011000     -6.180000
H          -1.540000    -10.925000      1.137000
C          -3.392000    -12.050000      1.311000
H          -2.538000    -10.475000      2.526000
H          -2.700000    -12.850000      1.600000
H          -3.532000    -12.253000      0.242000
C          -4.708000    -12.076000      2.242000
H          -4.394000    -11.922000      3.282000
C          -5.525000    -13.467000      2.299000
H          -5.217000    -11.138000      1.988000
H          -4.959000    -14.265000      2.795000
H          -5.755000    -13.800000      1.279000
C          -6.762000    -13.255000      3.135000
H          -7.141000    -14.262000      3.348000
C          -7.832000    -12.280000      2.599000
H          -6.567000    -12.957000      4.173000
H          -8.591000    -12.140000      3.380000
H          -8.346000    -12.760000      1.758000
H          -7.518000    -11.307000      2.201000
C          -8.129000     -2.662000      1.029000
C          -8.969000     -1.697000      0.502000
N          -6.832000     -2.636000      0.867000
C          -8.352000     -0.661000     -0.220000
C          -6.258000     -1.606000      0.148000
C          -6.962000     -0.507000     -0.319000
C          -6.386000      0.770000     -0.871000
C          -7.190000      1.885000     -1.370000
C          -4.997000      0.944000     -1.140000
N          -6.696000      2.987000     -1.955000
N          -4.077000      0.071000     -0.855000
C          -4.429000      2.141000     -1.705000
C          -5.361000      3.148000     -2.155000
S          -2.633000      0.678000     -1.360000
N          -3.106000      2.096000     -1.946000
C          -4.885000      4.450000     -2.736000
S          -3.232000      5.109000     -2.875000
C          -5.739000      5.449000     -3.149000
C          -3.828000      6.747000     -3.459000
S          -7.500000      5.382000     -3.308000
C          -5.183000      6.709000     -3.506000
C          -3.011000      7.883000     -3.817000
C          -7.496000      7.028000     -3.959000
C          -6.201000      7.580000     -3.952000
N          -1.690000      7.608000     -4.084000
S          -3.519000      9.556000     -3.987000
C          -1.187000      8.704000     -4.699000
C          -1.930000      9.846000     -4.567000
C          -8.697000     -3.801000      1.874000
H         -10.050000     -1.798000      0.535000
H          -9.021000      0.062000     -0.677000
H          -5.233000     -1.742000     -0.194000
H          -8.270000      1.753000     -1.428000
H          -8.399000      7.422000     -4.407000
H          -6.037000      8.529000     -4.451000
H          -0.195000      8.588000     -5.115000
H          -1.597000     10.804000     -4.943000
H          -8.090000     -3.936000      2.778000
C          -8.716000     -5.075000      1.039000
H          -9.695000     -3.546000      2.250000
H          -7.688000     -5.409000      0.846000
H          -9.174000     -4.886000      0.061000
C          -9.494000     -6.220000      1.824000
H          -9.088000     -6.400000      2.827000
C          -9.520000     -7.532000      1.021000
H         -10.511000     -5.833000      1.963000
H          -8.515000     -7.972000      1.010000
H          -9.633000     -7.315000     -0.049000
C         -10.702000     -8.491000      1.501000
H         -10.447000     -9.490000      1.126000
C         -12.125000     -8.110000      0.975000
H         -10.618000     -8.509000      2.594000
H         -12.956000     -8.629000      1.467000
H         -12.153000     -8.256000     -0.112000
H         -12.266000     -7.057000      1.247000
$end

--------------------------------------------------------------

             Standard Nuclear Orientation (Angstroms)
    I     Atom           X                Y                Z
 ----------------------------------------------------------------
    1      C      -8.1742798794    -3.4721321336    -0.0377981658
    2      C      -7.4723700045    -3.9318260304    -1.1628306314
    3      N      -7.7060385244    -2.5070656693     0.7746344486
    4      C      -6.1930854311    -3.3907565952    -1.4212950323
    5      C      -6.5200127015    -1.9621868962     0.4599713431
    6      C      -5.6882267187    -2.3841035506    -0.5971267676
    7      C      -4.4311229853    -1.6878253846    -0.8276759357
    8      C      -4.3034819020    -0.2877531078    -0.8108125503
    9      C      -3.2005043306    -2.3495775294    -1.1794241776
   10      N      -3.1740434763     0.4315166437    -1.1447539628
   11      N      -3.0525188491    -3.6895946015    -1.3697936701
   12      C      -2.0184544950    -1.7124182706    -1.3741143549
   13      C      -2.0288239409    -0.2683981078    -1.3662885115
   14      S      -1.4699728342    -4.0289810776    -1.5978790283
   15      N      -0.9722095576    -2.5649437679    -1.6675028472
   16      C      -0.8161087036     0.4954743726    -1.7985842288
   17      S       0.7342794802    -0.2460218218    -2.1164896756
   18      C      -0.6750637502     1.8551495005    -1.8564363479
   19      C       1.5608458347     1.3021170258    -2.4497030757
   20      S      -1.8118236469     3.1556039658    -1.4544399291
   21      C       0.6000912658     2.2892993706    -2.2280915317
   22      C       2.9411833734     1.6006319735    -2.7300904956
   23      C      -0.5040901403     4.3191601223    -1.7920493876
   24      C       0.6733626148     3.7652551507    -2.1405767067
   25      N       3.2219127703     2.8365027474    -3.2932640354
   26      S       4.3608895230     0.7109823234    -2.1525682461
   27      C       4.5584694955     3.1109875984    -3.2607188830
   28      C       5.3143470914     2.0991589804    -2.7199519205
   29      C      -9.5161253500    -4.0476423909     0.4417950751
   30      H      -7.8550270898    -4.7146125124    -1.8120231134
   31      H      -5.6325615495    -3.6895794719    -2.3030426529
   32      H      -6.2037649845    -1.0942227980     1.0368618922
   33      H      -5.1750911984     0.2804162594    -0.4895855205
   34      H      -0.7249673270     5.3754866829    -1.7178370860
   35      H       1.5047874255     4.4084628539    -2.4065515827
   36      H       4.9705701717     4.0418134409    -3.6274562326
   37      H       6.3848474479     2.0523096196    -2.5707134393
   38      H      -9.4857298697    -5.0886451177     0.0969263500
   39      C     -10.7689566472    -3.3455910216    -0.1053023711
   40      H      -9.5574766368    -4.0656935986     1.5378453591
   41      H     -11.5550256351    -4.1083460466    -0.0534823156
   42      H     -10.6567875949    -3.2156697578    -1.1888652760
   43      C     -11.1851108286    -2.0446196284     0.7511917219
   44      H     -11.3200599469    -2.3519743332     1.7958130988
   45      C     -12.5961051179    -1.3551657435     0.3778722125
   46      H     -10.2622234593    -1.4521281056     0.7771474360
   47      H     -13.4527478996    -1.9939029130     0.6255695539
   48      H     -12.6299651633    -1.1475686526    -0.6991356543
   49      C     -12.7508357875    -0.1109325356     1.2156974593
   50      H     -13.8047436612     0.1752081829     1.1134199791
   51      C     -11.7580417817     1.0458634184     0.9727896929
   52      H     -12.7586597736    -0.2869292303     2.2988580885
   53      H     -11.9231422910     1.8080403940     1.7457515804
   54      H     -12.0096481628     1.5218067455     0.0177770342
   55      H     -10.6872088191     0.8229159939     0.8871146553
   56      C      -2.1721304393     2.2103856747     2.3193499959
   57      C      -1.1714229305     3.1371399101     2.0864013553
   58      N      -1.9859849571     0.9221864767     2.1967870095
   59      C       0.0819982610     2.6206049378     1.7157317731
   60      C      -0.7429168028     0.4479213311     1.8263937924
   61      C       0.3792756218     1.2506679209     1.6930218514
   62      C       1.8077989779     0.7950616631     1.5553521055
   63      C       2.9459708928     1.6990883031     1.3942852669
   64      C       2.1744869744    -0.5707390962     1.3762258961
   65      N       4.2107233267     1.3098401644     1.1716821055
   66      N       1.3401109296    -1.5670478254     1.4068776843
   67      C       3.5301004255    -1.0253946148     1.2022761027
   68      C       4.5398427992    -0.0038858780     1.0535708931
   69      S       2.1934180135    -2.9471968310     1.1318036163
   70      N       3.6744627580    -2.3451778896     0.9837203327
   71      C       5.9920128288    -0.3574349451     0.8937389121
   72      S       6.8043454198    -1.9440466393     0.9874944106
   73      C       6.9899760013     0.5853778258     0.7794603691
   74      C       8.4832456939    -1.1999525145     0.9042249503
   75      S       6.8196232843     2.3346384156     0.5746230170
   76      C       8.3426830821     0.1466183250     0.8225724783
   77      C       9.7411426777    -1.9096974479     0.9145355227
   78      C       8.5784472564     2.4823817764     0.4410448212
   79      C       9.2144029011     1.2416447898     0.6357501066
   80      N       9.6743460642    -3.2477543043     0.6029315086
   81      S      11.3380784373    -1.2534474895     1.2386113959
   82      C      10.9430877506    -3.6462605282     0.3500732034
   83      C      11.9248925704    -2.8056341645     0.8006768126
   84      C      -3.5557361332     2.6679641776     2.7778553911
   85      H      -1.3717078815     4.2045593128     2.0676195243
   86      H       0.8467445232     3.3549417606     1.4811010310
   87      H      -0.6811302652    -0.5823469488     1.4788097085
   88      H       2.7433174758     2.7634801992     1.2794397874
   89      H       9.0072338525     3.4204240537     0.1130696071
   90      H      10.2793003230     1.1667686795     0.4436952998
   91      H      11.0429826457    -4.6412885821    -0.0628628472
   92      H      12.9765894624    -3.0490167793     0.7319196293
   93      H      -3.8995091747     2.0441444990     3.6124565561
   94      C      -4.5208831751     2.5801621162     1.6025069384
   95      H      -3.5121038318     3.6816613657     3.1936909754
   96      H      -4.6913551727     1.5280888135     1.3385560646
   97      H      -4.0907703450     3.0609768919     0.7160594753
   98      C      -5.9107251702     3.2468461117     1.9979885167
   99      H      -6.3442467407     2.8184243851     2.9099966703
  100      C      -6.9221197732     3.1623774569     0.8417986520
  101      H      -5.6728600524     4.2931132416     2.2262959380
  102      H      -7.2494391162     2.1223205201     0.7197756374
  103      H      -6.4079209962     3.3028012905    -0.1177005740
  104      C      -8.0798258978     4.2504414856     0.9935820456
  105      H      -8.8961325475     3.9105353478     0.3441528569
  106      C      -7.6856712803     5.7058695566     0.5774843796
  107      H      -8.4141609339     4.1564316931     2.0334912929
  108      H      -8.3978825533     6.4834090808     0.8777732254
  109      H      -7.5041711977     5.7294569111    -0.5042597476
  110      H      -6.7774714303     5.9378627167     1.1467173777
 ----------------------------------------------------------------

   10   -5663.5166931628      6.98E-06 Convergence criterion met
 Total energy in the final basis set = -5663.5166931628

                    Orbital Energies (a.u.)
 --------------------------------------------------------------

 Alpha MOs
 -- Occupied --
-88.994 -88.987 -88.941 -88.926 -88.926 -88.920 -88.912 -88.903
-14.390 -14.379 -14.375 -14.368 -14.355 -14.353 -14.347 -14.340
-14.327 -14.320 -10.276 -10.271 -10.271 -10.267 -10.259 -10.254
-10.252 -10.250 -10.248 -10.247 -10.246 -10.241 -10.239 -10.237
-10.233 -10.233 -10.233 -10.229 -10.228 -10.227 -10.226 -10.225
-10.225 -10.223 -10.223 -10.217 -10.217 -10.215 -10.213 -10.211
-10.210 -10.209 -10.209 -10.209 -10.204 -10.200 -10.192 -10.189
-10.180 -10.180 -10.179 -10.179 -10.177 -10.176 -10.175 -10.174
-10.174 -10.174 -10.172 -10.166  -8.050  -8.043  -8.002  -7.985
 -7.983  -7.979  -7.971  -7.962  -6.015  -6.009  -6.008  -6.008
 -6.002  -6.000  -5.965  -5.962  -5.959  -5.949  -5.948  -5.946
 -5.944  -5.943  -5.943  -5.940  -5.940  -5.936  -5.935  -5.932
 -5.927  -5.926  -5.923  -5.918  -1.046  -1.046  -0.969  -0.954
 -0.949  -0.947  -0.938  -0.935  -0.917  -0.909  -0.906  -0.892
 -0.839  -0.837  -0.831  -0.827  -0.818  -0.812  -0.808  -0.798
 -0.793  -0.793  -0.792  -0.791  -0.780  -0.774  -0.766  -0.763
 -0.747  -0.740  -0.738  -0.729  -0.721  -0.720  -0.706  -0.702
 -0.694  -0.689  -0.677  -0.672  -0.652  -0.650  -0.646  -0.641
 -0.635  -0.632  -0.624  -0.622  -0.612  -0.609  -0.599  -0.594
 -0.594  -0.582  -0.581  -0.575  -0.574  -0.571  -0.565  -0.561
 -0.545  -0.545  -0.542  -0.537  -0.525  -0.522  -0.521  -0.505
 -0.505  -0.504  -0.499  -0.496  -0.486  -0.481  -0.477  -0.475
 -0.471  -0.469  -0.467  -0.464  -0.455  -0.450  -0.448  -0.445
 -0.441  -0.439  -0.435  -0.435  -0.432  -0.432  -0.430  -0.427
 -0.424  -0.423  -0.420  -0.419  -0.418  -0.417  -0.414  -0.411
 -0.410  -0.407  -0.400  -0.400  -0.399  -0.396  -0.396  -0.395
 -0.393  -0.392  -0.389  -0.388  -0.386  -0.385  -0.383  -0.380
 -0.378  -0.373  -0.372  -0.370  -0.361  -0.360  -0.357  -0.355
 -0.350  -0.348  -0.347  -0.345  -0.343  -0.341  -0.338  -0.336
 -0.331  -0.331  -0.330  -0.328  -0.326  -0.325  -0.321  -0.319
 -0.312  -0.310  -0.309  -0.309  -0.305  -0.300  -0.297  -0.296
 -0.292  -0.290  -0.287  -0.286  -0.283  -0.282  -0.279  -0.277
 -0.274  -0.273  -0.268  -0.264  -0.255  -0.249  -0.247  -0.245
 -0.242  -0.239  -0.233  -0.229  -0.195  -0.192

          Ground-State Mulliken Net Atomic Charges

     Atom                 Charge (a.u.)
  ----------------------------------------
      1 C                     0.269397
      2 C                    -0.125777
      3 N                    -0.476037
      4 C                    -0.050420
      5 C                     0.065912
      6 C                     0.048802
      7 C                     0.039316
      8 C                     0.068148
      9 C                     0.230985
     10 N                    -0.531304
     11 N                    -0.580652
     12 C                     0.193460
     13 C                     0.321012
     14 S                     0.617965
     15 N                    -0.543251
     16 C                    -0.239247
     17 S                     0.321397
     18 C                    -0.106541
     19 C                    -0.228663
     20 S                     0.278703
     21 C                     0.133330
     22 C                     0.017656
     23 C                    -0.312415
     24 C                    -0.044408
     25 N                    -0.435297
     26 S                     0.286488
     27 C                     0.135099
     28 C                    -0.300084
     29 C                    -0.224457
     30 H                     0.094198
     31 H                     0.109208
     32 H                     0.104062
     33 H                     0.113287
     34 H                     0.121494
     35 H                     0.121850
     36 H                     0.116900
     37 H                     0.135900
     38 H                     0.087999
     39 C                    -0.184729
     40 H                     0.117893
     41 H                     0.089931
     42 H                     0.088849
     43 C                    -0.179674
     44 H                     0.093185
     45 C                    -0.176477
     46 H                     0.122269
     47 H                     0.092063
     48 H                     0.092975
     49 C                    -0.175631
     50 H                     0.084029
     51 C                    -0.318223
     52 H                     0.092165
     53 H                     0.099305
     54 H                     0.098902
     55 H                     0.114099
     56 C                     0.291240
     57 C                    -0.107328
     58 N                    -0.497324
     59 C                    -0.091131
     60 C                     0.049616
     61 C                     0.072561
     62 C                     0.064292
     63 C                     0.060941
     64 C                     0.245586
     65 N                    -0.513525
     66 N                    -0.573744
     67 C                     0.186677
     68 C                     0.291663
     69 S                     0.598583
     70 N                    -0.535118
     71 C                    -0.212870
     72 S                     0.342252
     73 C                    -0.153848
     74 C                    -0.239680
     75 S                     0.293783
     76 C                     0.197046
     77 C                     0.015606
     78 C                    -0.311063
     79 C                    -0.103589
     80 N                    -0.407924
     81 S                     0.301753
     82 C                     0.124709
     83 C                    -0.305974
     84 C                    -0.219894
     85 H                     0.089078
     86 H                     0.090256
     87 H                     0.130015
     88 H                     0.114415
     89 H                     0.133785
     90 H                     0.107952
     91 H                     0.114837
     92 H                     0.130945
     93 H                     0.112687
     94 C                    -0.187815
     95 H                     0.087950
     96 H                     0.110750
     97 H                     0.115580
     98 C                    -0.177860
     99 H                     0.094390
    100 C                    -0.189731
    101 H                     0.089898
    102 H                     0.091148
    103 H                     0.091480
    104 C                    -0.184795
    105 H                     0.092209
    106 C                    -0.315612
    107 H                     0.094081
    108 H                     0.104559
    109 H                     0.108639
    110 H                     0.102915
  ----------------------------------------
  Sum of atomic charges =     0.000000

                    Cartesian Multipole Moments
 -----------------------------------------------------------------
    Charge (ESU x 10^10)
                 0.0000
    Dipole Moment (Debye)
         X       4.6328      Y       0.8346      Z      -0.9527
       Tot       4.8028
    Quadrupole Moments (Debye-Ang)
        XX    -377.5846     XY      10.4476     YY    -415.5258
        XZ       0.7299     YZ      10.2305     ZZ    -458.9940

 Total job time:  108.83s(wall), 1313.10s(cpu)
        *  Thank you very much for using Q-Chem.  Have a nice day.  *
