 Q-Chem 4.4, Q-Chem, Inc., Pleasanton, CA (2016)
 Q-Chem 4.4.2 for Intel X86 Linux

User input:
--------------------------------------------------------------
$comment
SP
$end

$rem
MEM_STATIC 5000
MEM_TOTAL 20000
JOBTYPE SP
EXCHANGE B3LYP
BASIS 6-31g(d,p)
$end

$molecule
0 1
C         -22.081000     -3.069000      2.351000
C         -23.038000     -2.712000      3.357000
N         -21.801000     -4.333000      2.067000
C         -23.800000     -3.726000      3.955000
C         -22.485000     -5.297000      2.706000
C         -23.597000     -5.068000      3.598000
C         -24.414000     -6.124000      4.207000
C         -25.808000     -5.982000      4.547000
C         -23.824000     -7.346000      4.634000
N         -26.587000     -7.015000      4.972000
N         -22.483000     -7.619000      4.518000
C         -24.561000     -8.301000      5.216000
C         -25.943000     -8.213000      5.136000
S         -22.331000     -9.036000      5.275000
N         -23.888000     -9.350000      5.703000
C         -26.855000     -9.254000      5.506000
S         -28.467000     -9.021000      6.128000
C         -26.682000    -10.573000      5.136000
C         -28.839000    -10.699000      6.064000
S         -25.609000    -11.300000      3.889000
C         -27.859000    -11.316000      5.335000
C         -30.143000    -11.200000      6.130000
C         -26.715000    -12.677000      3.790000
C         -27.789000    -12.564000      4.598000
N         -30.339000    -12.451000      6.473000
S         -31.574000    -10.228000      5.888000
C         -31.703000    -12.719000      6.451000
C         -32.539000    -11.654000      6.225000
C         -21.217000     -1.982000      1.664000
H         -23.263000     -1.702000      3.688000
H         -24.492000     -3.429000      4.737000
H         -22.273000     -6.299000      2.336000
H         -26.317000     -5.058000      4.273000
H         -26.594000    -13.441000      3.034000
H         -28.511000    -13.370000      4.666000
H         -32.015000    -13.746000      6.593000
H         -33.614000    -11.756000      6.293000
H         -20.482000     -1.756000      2.446000
C         -22.036000     -0.765000      1.145000
H         -20.679000     -2.588000      0.925000
H         -22.562000     -0.265000      1.968000
H         -22.772000     -1.122000      0.414000
C         -21.083000      0.115000      0.533000
H         -20.364000      0.498000      1.268000
C         -21.797000      1.323000     -0.148000
H         -20.500000     -0.390000     -0.247000
H         -21.816000      2.096000      0.630000
H         -22.806000      1.051000     -0.483000
C         -21.024000      2.033000     -1.298000
H         -20.962000      1.492000     -2.250000
C         -19.697000      2.635000     -0.810000
H         -21.734000      2.848000     -1.491000
H         -19.807000      3.146000      0.154000
H         -19.370000      3.429000     -1.492000
H         -18.912000      1.870000     -0.767000
C         -20.182000    -11.778000      2.353000
C         -19.523000    -12.961000      1.945000
N         -21.521000    -11.694000      2.637000
C         -20.339000    -14.061000      1.566000
C         -22.251000    -12.834000      2.299000
C         -21.697000    -14.051000      1.748000
C         -22.452000    -15.285000      1.304000
C         -23.496000    -15.779000      2.150000
C         -22.411000    -15.802000     -0.031000
N         -24.226000    -16.851000      1.916000
N         -21.555000    -15.367000     -0.967000
C         -23.229000    -16.900000     -0.301000
C         -24.050000    -17.514000      0.730000
S         -21.938000    -16.444000     -2.102000
N         -23.127000    -17.353000     -1.512000
C         -24.679000    -18.822000      0.445000
S         -24.316000    -19.981000     -0.878000
C         -25.521000    -19.456000      1.403000
C         -25.196000    -21.234000     -0.036000
S         -26.188000    -18.805000      2.913000
C         -25.840000    -20.760000      1.055000
C         -25.208000    -22.587000     -0.489000
C         -26.778000    -20.495000      3.152000
C         -26.503000    -21.353000      2.076000
N         -26.130000    -23.446000     -0.008000
S         -24.250000    -23.156000     -1.790000
C         -25.872000    -24.695000     -0.549000
C         -24.912000    -24.729000     -1.545000
C         -19.373000    -10.585000      2.695000
H         -18.449000    -13.048000      1.807000
H         -19.877000    -14.982000      1.223000
H         -23.276000    -12.718000      2.647000
H         -23.821000    -15.302000      3.073000
H         -27.195000    -20.751000      4.117000
H         -26.670000    -22.423000      2.049000
H         -26.384000    -25.598000     -0.242000
H         -24.568000    -25.572000     -2.129000
H         -19.419000    -10.377000      3.771000
C         -19.620000     -9.415000      1.720000
H         -18.347000    -10.933000      2.521000
H         -20.676000     -9.134000      1.628000
H         -19.325000     -9.664000      0.693000
C         -18.849000     -8.115000      2.174000
H         -19.261000     -7.291000      1.578000
C         -17.336000     -8.104000      1.969000
H         -19.086000     -7.908000      3.225000
H         -17.075000     -7.891000      0.925000
H         -16.875000     -9.037000      2.315000
C         -16.605000     -7.082000      2.882000
H         -16.822000     -6.062000      2.541000
C         -15.049000     -7.181000      2.756000
H         -17.021000     -7.334000      3.866000
H         -14.638000     -6.767000      1.827000
H         -14.705000     -8.203000      2.962000
H         -14.629000     -6.562000      3.558000
$end

--------------------------------------------------------------

             Standard Nuclear Orientation (Angstroms)
    I     Atom           X                Y                Z
 ----------------------------------------------------------------
    1      C       8.8527878872    -0.8393883602    -0.7701083538
    2      C       9.1431866824     0.5285901842    -0.4544546800
    3      N       7.6362459918    -1.3473401322    -0.6331309317
    4      C       8.0830141127     1.3866827232    -0.1286398291
    5      C       6.6436935875    -0.5296694133    -0.2436090193
    6      C       6.7680322945     0.8990859098    -0.0767344780
    7      C       5.6581402791     1.8055848064     0.2393437791
    8      C       5.5835845943     3.1816054037    -0.1849306198
    9      C       4.6197186349     1.4040530529     1.1248751109
   10      N       4.4820579651     3.9631946676    -0.0108263180
   11      N       4.5822519803     0.1757944352     1.7382616269
   12      C       3.6198788814     2.2383659962     1.4381806806
   13      C       3.4468664518     3.3825268829     0.6733077731
   14      S       3.3117628660     0.2982298554     2.7256364182
   15      N       2.7723049582     1.8139333483     2.3826246292
   16      C       2.3072095795     4.2482530013     0.7367546112
   17      S       2.3142816420     5.9640572080     0.4274280685
   18      C       1.0077906030     3.7817463502     0.7584771359
   19      C       0.6005038985     6.0842790180     0.5091383020
   20      S       0.3494431272     2.1547647376     0.3655694707
   21      C       0.0918453143     4.8140770181     0.4895596387
   22      C      -0.1171544975     7.1798229505     0.0187069421
   23      C      -1.2069836216     2.9113104602    -0.0009552150
   24      C      -1.1986690714     4.2531249462     0.1353303437
   25      N      -1.3355865523     7.4014816737     0.4515541879
   26      S       0.5460817964     8.3684203359    -1.0760363493
   27      C      -1.8465073923     8.5254931817    -0.1874779125
   28      C      -0.9830226201     9.2247461081    -0.9934781564
   29      C       9.9925701018    -1.8230711278    -1.1352093203
   30      H      10.1268988663     0.9891623207    -0.4761260069
   31      H       8.3371774408     2.4077589128     0.1385706076
   32      H       5.6610007496    -0.9984841874    -0.2629866858
   33      H       6.3629764350     3.5639385379    -0.8439471090
   34      H      -2.0176269109     2.3443226538    -0.4382826494
   35      H      -2.1088285686     4.8243846400    -0.0089473463
   36      H      -2.8899989129     8.7642112773    -0.0250706551
   37      H      -1.2692704266    10.1652172613    -1.4453954090
   38      H      10.4353699924    -2.0240317459    -0.1521690938
   39      C      10.9742182829    -1.2744262178    -2.2106471899
   40      H       9.4136056266    -2.7209818780    -1.3829136222
   41      H      11.4613764636    -0.3537910101    -1.8655200811
   42      H      10.4090778889    -1.0591095015    -3.1259400648
   43      C      11.9364234295    -2.3154335034    -2.4288628796
   44      H      12.5243454531    -2.5116792075    -1.5234843302
   45      C      12.9097974449    -1.9405351978    -3.5885245918
   46      H      11.4595875519    -3.2629396740    -2.7084583060
   47      H      13.7501816585    -1.4481908143    -3.0840195060
   48      H      12.4234740484    -1.2804552159    -4.3179585996
   49      C      13.6120630774    -3.1220102431    -4.3200084936
   50      H      12.9862587338    -3.7179967415    -4.9952847462
   51      C      14.4956941618    -3.9418812818    -3.3668639156
   52      H      14.2578664276    -2.5374173760    -4.9884119741
   53      H      15.0848813344    -3.3017641083    -2.6993120600
   54      H      15.2527291657    -4.4942846784    -3.9362824701
   55      H      13.8951972841    -4.6627417027    -2.7984778201
   56      C       0.6885861116    -3.3043408574     1.8227095253
   57      C      -0.3944399939    -4.1910048877     2.0254787345
   58      N       0.5609312038    -2.0096579021     1.3889662029
   59      C      -1.6597525651    -3.7986491469     1.5111460896
   60      C      -0.7232352069    -1.6733092965     0.9593963655
   61      C      -1.8747592433    -2.5475496980     0.9954811816
   62      C      -3.2673560049    -2.2536858258     0.4814429689
   63      C      -3.8422601824    -0.9770100322     0.7802273477
   64      C      -3.9171682283    -3.0267666981    -0.5340790836
   65      N      -5.0481433341    -0.5804535928     0.4260680408
   66      N      -3.4441491280    -4.1954750953    -0.9906211004
   67      C      -5.1684641437    -2.5763578250    -0.9571847195
   68      C      -5.7991905761    -1.4059588635    -0.3686709656
   69      S      -4.6948818004    -4.5590641519    -1.9384152659
   70      N      -5.7305924032    -3.3312596666    -1.8495237970
   71      C      -7.2231733634    -1.1446853441    -0.6715557121
   72      S      -8.4405667561    -2.2483546685    -1.3962945267
   73      C      -7.8855553436     0.0040374082    -0.1515844140
   74      C      -9.7277381389    -1.1873756132    -0.8758271641
   75      S      -7.1980702521     1.4133879683     0.6790088967
   76      C      -9.2567648932    -0.0307262776    -0.3561738987
   77      C     -11.1032795773    -1.5424261351    -1.0091946199
   78      C      -8.9284465273     1.8741718576     0.9130968152
   79      C      -9.8395506543     1.0020281147     0.2976136218
   80      N     -12.0542974439    -0.5932580261    -0.8909959807
   81      S     -11.6342247374    -3.0839013956    -1.5346251652
   82      C     -13.2894578303    -1.2134166935    -0.9860120163
   83      C     -13.2626379279    -2.5473119982    -1.3531305380
   84      C       2.0392666849    -3.7007321973     2.2844777511
   85      H      -0.3009847795    -5.1851111202     2.4533898485
   86      H      -2.5150404348    -4.4585374998     1.6223397121
   87      H      -0.7555644799    -0.6099117224     0.7284733965
   88      H      -3.3298319459    -0.1782534394     1.3136017075
   89      H      -9.1439267160     2.7014532126     1.5762889804
   90      H     -10.9180967630     1.0260182949     0.3960044889
   91      H     -14.2291661534    -0.7073020921    -0.8054620847
   92      H     -14.0905326742    -3.2232773704    -1.5195700300
   93      H       2.3567926346    -3.0869478156     3.1363005050
   94      C       3.0264386704    -3.8786611993     1.1121438647
   95      H       1.8649711143    -4.6979544349     2.7078273264
   96      H       3.0995382795    -2.9994637142     0.4608150465
   97      H       2.7194636321    -4.6832261020     0.4322934082
   98      C       4.4875429682    -4.1745638465     1.6299979507
   99      H       5.1500792663    -4.0504653881     0.7642143597
  100      C       4.7484661129    -5.5674507132     2.1984170646
  101      H       4.7667103314    -3.4111166837     2.3667699731
  102      H       4.8847308315    -6.3067865305     1.3995175241
  103      H       3.9598110083    -5.8726950136     2.8966828041
  104      C       5.9830818276    -5.6199222119     3.1393659362
  105      H       6.9014107928    -5.5113915705     2.5488890007
  106      C       6.1533258538    -7.0194475121     3.8169785878
  107      H       5.7738557390    -4.7833139455     3.8184293004
  108      H       6.5261738579    -7.8076713163     3.1513618810
  109      H       5.2406161063    -7.3058658009     4.3556635426
  110      H       6.9253736686    -6.9035668369     4.5872245491
 ----------------------------------------------------------------

   10   -5663.4766554899      5.21E-06 Convergence criterion met
 Total energy in the final basis set = -5663.4766554899

                    Orbital Energies (a.u.)
 --------------------------------------------------------------

 Alpha MOs
 -- Occupied --
-88.985 -88.985 -88.932 -88.931 -88.921 -88.920 -88.916 -88.906
-14.393 -14.392 -14.380 -14.379 -14.350 -14.350 -14.349 -14.338
-14.335 -14.326 -10.271 -10.268 -10.259 -10.258 -10.254 -10.250
-10.249 -10.245 -10.242 -10.241 -10.239 -10.238 -10.235 -10.235
-10.234 -10.233 -10.232 -10.228 -10.227 -10.227 -10.226 -10.226
-10.224 -10.224 -10.224 -10.222 -10.222 -10.220 -10.216 -10.212
-10.206 -10.206 -10.206 -10.201 -10.200 -10.196 -10.193 -10.192
-10.183 -10.182 -10.181 -10.180 -10.178 -10.176 -10.175 -10.174
-10.171 -10.171 -10.169 -10.169  -8.042  -8.040  -7.994  -7.990
 -7.982  -7.980  -7.975  -7.966  -6.007  -6.005  -6.002  -6.000
 -5.999  -5.998  -5.957  -5.955  -5.954  -5.951  -5.951  -5.947
 -5.946  -5.944  -5.943  -5.941  -5.939  -5.939  -5.937  -5.936
 -5.931  -5.931  -5.927  -5.922  -1.069  -1.040  -0.971  -0.965
 -0.958  -0.952  -0.938  -0.938  -0.924  -0.917  -0.913  -0.901
 -0.846  -0.845  -0.832  -0.832  -0.816  -0.815  -0.809  -0.808
 -0.800  -0.800  -0.796  -0.796  -0.780  -0.778  -0.764  -0.764
 -0.752  -0.748  -0.739  -0.734  -0.726  -0.723  -0.708  -0.707
 -0.690  -0.689  -0.675  -0.672  -0.658  -0.654  -0.645  -0.643
 -0.641  -0.635  -0.626  -0.624  -0.607  -0.606  -0.596  -0.595
 -0.594  -0.588  -0.584  -0.583  -0.577  -0.576  -0.562  -0.561
 -0.558  -0.552  -0.542  -0.534  -0.521  -0.517  -0.514  -0.505
 -0.503  -0.501  -0.498  -0.496  -0.489  -0.485  -0.484  -0.476
 -0.475  -0.472  -0.472  -0.465  -0.464  -0.461  -0.450  -0.449
 -0.443  -0.442  -0.439  -0.438  -0.437  -0.436  -0.434  -0.432
 -0.427  -0.425  -0.421  -0.419  -0.418  -0.415  -0.412  -0.411
 -0.407  -0.406  -0.406  -0.403  -0.401  -0.396  -0.392  -0.391
 -0.389  -0.387  -0.387  -0.385  -0.383  -0.382  -0.381  -0.379
 -0.377  -0.375  -0.373  -0.368  -0.365  -0.363  -0.361  -0.358
 -0.357  -0.353  -0.350  -0.349  -0.349  -0.346  -0.344  -0.341
 -0.340  -0.338  -0.337  -0.337  -0.336  -0.328  -0.327  -0.325
 -0.319  -0.313  -0.311  -0.310  -0.303  -0.301  -0.301  -0.296
 -0.294  -0.294  -0.291  -0.286  -0.285  -0.284  -0.282  -0.280
 -0.277  -0.274  -0.266  -0.260  -0.258  -0.257  -0.248  -0.248
 -0.247  -0.244  -0.230  -0.225  -0.195  -0.193

          Ground-State Mulliken Net Atomic Charges

     Atom                 Charge (a.u.)
  ----------------------------------------
      1 C                     0.252901
      2 C                    -0.111599
      3 N                    -0.483081
      4 C                    -0.085097
      5 C                     0.095034
      6 C                     0.030095
      7 C                     0.019157
      8 C                     0.062639
      9 C                     0.220980
     10 N                    -0.508296
     11 N                    -0.542322
     12 C                     0.237306
     13 C                     0.252822
     14 S                     0.636339
     15 N                    -0.546947
     16 C                    -0.212212
     17 S                     0.329069
     18 C                    -0.126263
     19 C                    -0.193687
     20 S                     0.263050
     21 C                     0.112749
     22 C                     0.030251
     23 C                    -0.308848
     24 C                    -0.040292
     25 N                    -0.415545
     26 S                     0.268475
     27 C                     0.106809
     28 C                    -0.303043
     29 C                    -0.240099
     30 H                     0.087324
     31 H                     0.097954
     32 H                     0.113970
     33 H                     0.111131
     34 H                     0.137542
     35 H                     0.119421
     36 H                     0.109122
     37 H                     0.131902
     38 H                     0.116688
     39 C                    -0.168673
     40 H                     0.122109
     41 H                     0.096518
     42 H                     0.105901
     43 C                    -0.160972
     44 H                     0.093306
     45 C                    -0.185413
     46 H                     0.094444
     47 H                     0.089944
     48 H                     0.085908
     49 C                    -0.182813
     50 H                     0.092875
     51 C                    -0.316541
     52 H                     0.092187
     53 H                     0.100532
     54 H                     0.100872
     55 H                     0.108929
     56 C                     0.262856
     57 C                    -0.118713
     58 N                    -0.476915
     59 C                    -0.068997
     60 C                     0.058789
     61 C                     0.057451
     62 C                    -0.044607
     63 C                     0.062355
     64 C                     0.230261
     65 N                    -0.517313
     66 N                    -0.511300
     67 C                     0.201149
     68 C                     0.309576
     69 S                     0.580803
     70 N                    -0.534569
     71 C                    -0.221946
     72 S                     0.326791
     73 C                    -0.136651
     74 C                    -0.233918
     75 S                     0.296492
     76 C                     0.198042
     77 C                     0.060921
     78 C                    -0.317518
     79 C                    -0.059998
     80 N                    -0.445227
     81 S                     0.282524
     82 C                     0.123543
     83 C                    -0.307166
     84 C                    -0.220908
     85 H                     0.097315
     86 H                     0.099261
     87 H                     0.102086
     88 H                     0.118158
     89 H                     0.128041
     90 H                     0.127355
     91 H                     0.116286
     92 H                     0.137374
     93 H                     0.112433
     94 C                    -0.184675
     95 H                     0.097330
     96 H                     0.115287
     97 H                     0.095064
     98 C                    -0.186366
     99 H                     0.100992
    100 C                    -0.166475
    101 H                     0.091430
    102 H                     0.088920
    103 H                     0.085406
    104 C                    -0.175497
    105 H                     0.096820
    106 C                    -0.324209
    107 H                     0.092139
    108 H                     0.106320
    109 H                     0.098498
    110 H                     0.100384
  ----------------------------------------
  Sum of atomic charges =     0.000000

                    Cartesian Multipole Moments
 -----------------------------------------------------------------
    Charge (ESU x 10^10)
                 0.0000
    Dipole Moment (Debye)
         X      -2.2562      Y      -2.1669      Z      -0.7007
       Tot       3.2058
    Quadrupole Moments (Debye-Ang)
        XX    -356.3701     XY      16.5209     YY    -420.6828
        XZ       0.0995     YZ     -10.2463     ZZ    -448.5822

 Total job time:  90.25s(wall), 1065.60s(cpu)
        *  Thank you very much for using Q-Chem.  Have a nice day.  *
