 Q-Chem 4.4, Q-Chem, Inc., Pleasanton, CA (2016)
 Q-Chem 4.4.2 for Intel X86 Linux

User input:
--------------------------------------------------------------
$comment
SP
$end

$rem
MEM_STATIC 5000
MEM_TOTAL 20000
JOBTYPE SP
EXCHANGE B3LYP
BASIS 6-31g(d,p)
$end

$molecule
0 1
C           1.880000     11.032000     -2.572000
C           3.006000     11.068000     -1.751000
N           1.122000      9.939000     -2.619000
C           3.482000      9.897000     -1.191000
C           1.547000      8.778000     -2.122000
C           2.832000      8.663000     -1.417000
C           3.239000      7.383000     -0.718000
C           4.575000      7.169000     -0.433000
C           2.335000      6.403000     -0.130000
N           5.014000      6.146000      0.324000
N           1.030000      6.479000     -0.260000
C           2.771000      5.314000      0.600000
C           4.175000      5.127000      0.737000
S           0.434000      5.148000      0.465000
N           1.821000      4.447000      1.006000
C           4.800000      3.973000      1.409000
S           3.861000      2.687000      2.163000
C           6.190000      3.658000      1.536000
C           5.315000      1.733000      2.552000
S           7.578000      4.620000      1.090000
C           6.472000      2.485000      2.311000
C           5.374000      0.494000      3.211000
C           8.547000      3.353000      1.916000
C           7.832000      2.346000      2.588000
N           4.278000     -0.293000      3.122000
S           6.731000     -0.269000      4.066000
C           4.423000     -1.436000      3.875000
C           5.656000     -1.560000      4.406000
C           1.367000     12.350000     -3.102000
H           3.556000     11.992000     -1.598000
H           4.369000      9.994000     -0.572000
H           0.856000      7.954000     -2.295000
H           5.195000      8.018000     -0.717000
H           9.617000      3.441000      1.787000
H           8.397000      1.574000      3.098000
H           3.607000     -2.132000      4.017000
H           6.006000     -2.204000      5.202000
H           0.442000     12.147000     -3.656000
C           2.275000     13.065000     -4.138000
H           1.114000     13.000000     -2.255000
H           3.195000     13.482000     -3.711000
H           1.734000     13.965000     -4.458000
C           2.643000     12.118000     -5.303000
H           3.175000     11.246000     -4.903000
C           3.393000     12.910000     -6.435000
H           1.636000     11.825000     -5.623000
H           4.275000     13.414000     -6.020000
H           2.777000     13.788000     -6.667000
C           3.776000     11.975000     -7.630000
H           4.516000     11.269000     -7.233000
C           4.470000     12.839000     -8.766000
H           2.907000     11.528000     -8.129000
H           3.947000     13.749000     -9.086000
H           4.610000     12.234000     -9.671000
H           5.427000     13.290000     -8.477000
C          -8.129000     -2.662000      1.029000
C          -8.969000     -1.697000      0.502000
N          -6.832000     -2.636000      0.867000
C          -8.352000     -0.661000     -0.220000
C          -6.258000     -1.606000      0.148000
C          -6.962000     -0.507000     -0.319000
C          -6.386000      0.770000     -0.871000
C          -7.190000      1.885000     -1.370000
C          -4.997000      0.944000     -1.140000
N          -6.696000      2.987000     -1.955000
N          -4.077000      0.071000     -0.855000
C          -4.429000      2.141000     -1.705000
C          -5.361000      3.148000     -2.155000
S          -2.633000      0.678000     -1.360000
N          -3.106000      2.096000     -1.946000
C          -4.885000      4.450000     -2.736000
S          -3.232000      5.109000     -2.875000
C          -5.739000      5.449000     -3.149000
C          -3.828000      6.747000     -3.459000
S          -7.500000      5.382000     -3.308000
C          -5.183000      6.709000     -3.506000
C          -3.011000      7.883000     -3.817000
C          -7.496000      7.028000     -3.959000
C          -6.201000      7.580000     -3.952000
N          -1.690000      7.608000     -4.084000
S          -3.519000      9.556000     -3.987000
C          -1.187000      8.704000     -4.699000
C          -1.930000      9.846000     -4.567000
C          -8.697000     -3.801000      1.874000
H         -10.050000     -1.798000      0.535000
H          -9.021000      0.062000     -0.677000
H          -5.233000     -1.742000     -0.194000
H          -8.270000      1.753000     -1.428000
H          -8.399000      7.422000     -4.407000
H          -6.037000      8.529000     -4.451000
H          -0.195000      8.588000     -5.115000
H          -1.597000     10.804000     -4.943000
H          -8.090000     -3.936000      2.778000
C          -8.716000     -5.075000      1.039000
H          -9.695000     -3.546000      2.250000
H          -7.688000     -5.409000      0.846000
H          -9.174000     -4.886000      0.061000
C          -9.494000     -6.220000      1.824000
H          -9.088000     -6.400000      2.827000
C          -9.520000     -7.532000      1.021000
H         -10.511000     -5.833000      1.963000
H          -8.515000     -7.972000      1.010000
H          -9.633000     -7.315000     -0.049000
C         -10.702000     -8.491000      1.501000
H         -10.447000     -9.490000      1.126000
C         -12.125000     -8.110000      0.975000
H         -10.618000     -8.509000      2.594000
H         -12.956000     -8.629000      1.467000
H         -12.153000     -8.256000     -0.112000
H         -12.266000     -7.057000      1.247000
$end

--------------------------------------------------------------

             Standard Nuclear Orientation (Angstroms)
    I     Atom           X                Y                Z
 ----------------------------------------------------------------
    1      C       7.2071300807    -2.8182169654    -1.1512245267
    2      C       7.8891472669    -1.6609317980    -1.5237249952
    3      N       5.9205821072    -2.7569326959    -0.8158731435
    4      C       7.3130581340    -0.4246517007    -1.2975617094
    5      C       5.3257529778    -1.5930396669    -0.5568628659
    6      C       6.0306058385    -0.3125821718    -0.7152486229
    7      C       5.3085463927     1.0107153921    -0.5732496302
    8      C       6.0445797353     2.1536747503    -0.3206316891
    9      C       3.9011827834     1.2542623076    -0.8619927191
   10      N       5.5159457621     3.3916187534    -0.3390644769
   11      N       3.0659983944     0.2879631417    -1.1692938063
   12      C       3.3283834056     2.5110986702    -0.8276382377
   13      C       4.1536114484     3.6053844959    -0.4448965374
   14      S       1.6058389545     0.9941264957    -1.3165002177
   15      N       1.9963873538     2.5671041809    -1.0317825513
   16      C       3.6758273800     4.9900595722    -0.2766041813
   17      S       2.0039063664     5.4625461236    -0.5689559949
   18      C       4.4031423689     6.1381939330     0.1708937476
   19      C       2.2873217388     7.1336124094    -0.0187140528
   20      S       6.1128721410     6.2975724024     0.4907790552
   21      C       3.6572761758     7.3628143341     0.1627392977
   22      C       1.3579045571     8.1853138903     0.0359732163
   23      C       5.7715368322     8.0504319998     0.6844267735
   24      C       4.4638257528     8.4772021791     0.3935368512
   25      N       0.0570087083     7.8389601474     0.1633116449
   26      S       1.6354692693     9.9390685942     0.0800784226
   27      C      -0.7598072137     8.9459242485     0.1194342188
   28      C      -0.0705128990    10.1043276439     0.0949205216
   29      C       7.8558430232    -4.1413037627    -1.4825941771
   30      H       8.8960059880    -1.7119602894    -1.9278494918
   31      H       7.9027204668     0.4355478745    -1.6003719208
   32      H       4.2939125409    -1.6986141598    -0.2243792736
   33      H       7.1153024107     1.9557381466    -0.3054312498
   34      H       6.5981734211     8.6368786413     1.0613051181
   35      H       4.2371050149     9.5321323740     0.4985558533
   36      H      -1.8377584481     8.8578343278     0.0930277386
   37      H      -0.4015135331    11.1022229268    -0.1610005296
   38      H       7.1553595967    -4.9351832891    -1.1947951731
   39      C       9.1496524621    -4.4794541422    -0.6947512636
   40      H       8.0040711549    -4.2030891307    -2.5680106821
   41      H      10.0163198735    -3.8708412604    -0.9795247844
   42      H       9.4533652898    -5.4857370284    -1.0113492285
   43      C       8.9225859025    -4.3530505984     0.8290338005
   44      H       8.6198394481    -3.3249921057     1.0632309821
   45      C      10.1752299202    -4.8871810703     1.6143844253
   46      H       8.0656819009    -5.0279606920     0.9408814541
   47      H      11.0782772055    -4.3563690885     1.2874146399
   48      H      10.3976733142    -5.8840325392     1.2131736509
   49      C       9.9716649159    -4.7733317641     3.1618141085
   50      H       9.9305495545    -3.6990316027     3.3805232536
   51      C      11.2364038120    -5.3848005320     3.9001700326
   52      H       9.1306320717    -5.3708253355     3.5354933653
   53      H      11.5596578912    -6.3846117832     3.5840794406
   54      H      11.0500257836    -5.4521194423     4.9796983532
   55      H      12.1740397505    -4.8436144358     3.7248775455
   56      C      -9.9174188175    -0.1534702424    -0.5838904668
   57      C      -9.7442569952    -1.5010156819    -0.8459787567
   58      N      -8.9710798733     0.5974748018    -0.0842374439
   59      C      -8.4767058526    -2.0342367831    -0.5557058538
   60      C      -7.7381370659     0.0408379718     0.1938712996
   61      C      -7.3856611524    -1.2570485746    -0.1419221532
   62      C      -6.0040738929    -1.8552928470    -0.1189126995
   63      C      -5.7050503856    -3.2444061126    -0.4647324176
   64      C      -4.8733732247    -1.1800466616     0.4265381121
   65      N      -4.4980996407    -3.8205827202    -0.3553915911
   66      N      -4.8888658942     0.0418849062     0.8697053726
   67      C      -3.5514138200    -1.7477408990     0.4958532275
   68      C      -3.4247960957    -3.1370568734     0.1231038813
   69      S      -3.3798256397     0.3961776117     1.4227733513
   70      N      -2.6244986761    -0.9839154010     1.1023463640
   71      C      -2.0908178931    -3.8297359500     0.1293369987
   72      S      -0.4565134034    -3.1709938900     0.4141505051
   73      C      -1.9212323600    -5.1438710207    -0.2477250161
   74      C       0.3670637857    -4.7482449620    -0.0477105885
   75      S      -3.1696371863    -6.3485040998    -0.5959139512
   76      C      -0.5956920616    -5.6422330361    -0.3847039148
   77      C       1.7875658858    -5.0096261757    -0.0493367781
   78      C      -1.9123312543    -7.5719793413    -0.8313351203
   79      C      -0.6248924027    -7.0132169990    -0.7214995703
   80      N       2.5559098716    -4.1381253793     0.6869300766
   81      S       2.6328117137    -6.3271735602    -0.8465327264
   82      C       3.7695686008    -4.7211798519     0.8266797492
   83      C       4.0322402278    -5.7483828071    -0.0390538734
   84      C     -11.2421002948     0.5324751901    -0.9135385327
   85      H     -10.5727927440    -2.1389021870    -1.1400541206
   86      H      -8.3649479026    -3.1029999235    -0.7118932742
   87      H      -7.0668367898     0.6038720388     0.8407357203
   88      H      -6.5405211196    -3.9135785817    -0.6681651071
   89      H      -2.1954822157    -8.6137895804    -0.9075319614
   90      H       0.2317405593    -7.6784067622    -0.7073380961
   91      H       4.4433741141    -4.2299238043     1.5160487548
   92      H       4.9937918563    -6.2419169023    -0.0823154348
   93      H     -11.0541412843     1.4847287498    -1.4251776326
   94      C     -12.0189236741     0.7554362570     0.3777769981
   95      H     -11.8164622745    -0.0582779378    -1.6370881564
   96      H     -11.5073934734     1.5056038882     0.9951702105
   97      H     -12.0538316480    -0.1673153188     0.9687761206
   98      C     -13.4847260534     1.2747935858     0.0398045882
   99      H     -13.4835870677     2.1719366267    -0.5913673906
  100      C     -14.2980142177     1.5305117190     1.3204292788
  101      H     -13.9430851004     0.4747571438    -0.5545250136
  102      H     -13.9049857148     2.4191999241     1.8298484284
  103      H     -14.0588435014     0.7701829560     2.0750520592
  104      C     -15.8674831360     1.5228416082     1.0307510368
  105      H     -16.3320481170     2.0239014306     1.8891037806
  106      C     -16.5097067065     0.1051474932     0.8743595994
  107      H     -15.9909291506     2.1701094135     0.1544893922
  108      H     -17.5282603796     0.0992133496     0.4687745887
  109      H     -16.4631478956    -0.4145781539     1.8394432895
  110      H     -15.9119667006    -0.4048354221     0.1093116848
 ----------------------------------------------------------------

   10   -5663.5195992602      4.00E-06 Convergence criterion met
 Total energy in the final basis set = -5663.5195992602

                    Orbital Energies (a.u.)
 --------------------------------------------------------------

 Alpha MOs
 -- Occupied --
-88.983 -88.982 -88.933 -88.926 -88.922 -88.920 -88.916 -88.906
-14.388 -14.387 -14.378 -14.373 -14.352 -14.346 -14.341 -14.338
-14.325 -14.321 -10.268 -10.268 -10.264 -10.264 -10.256 -10.252
-10.252 -10.251 -10.246 -10.243 -10.243 -10.240 -10.237 -10.235
-10.233 -10.232 -10.230 -10.228 -10.227 -10.227 -10.226 -10.225
-10.222 -10.221 -10.221 -10.220 -10.219 -10.219 -10.218 -10.213
-10.213 -10.211 -10.210 -10.207 -10.207 -10.203 -10.194 -10.192
-10.190 -10.187 -10.186 -10.185 -10.182 -10.181 -10.178 -10.178
-10.177 -10.175 -10.175 -10.174  -8.039  -8.038  -7.994  -7.987
 -7.980  -7.978  -7.975  -7.965  -6.005  -6.003  -5.999  -5.997
 -5.997  -5.996  -5.958  -5.955  -5.951  -5.951  -5.948  -5.945
 -5.944  -5.942  -5.941  -5.939  -5.939  -5.937  -5.936  -5.934
 -5.931  -5.929  -5.926  -5.921  -1.043  -1.042  -0.961  -0.960
 -0.951  -0.945  -0.941  -0.937  -0.915  -0.911  -0.904  -0.903
 -0.841  -0.833  -0.826  -0.823  -0.811  -0.809  -0.806  -0.805
 -0.804  -0.797  -0.796  -0.792  -0.782  -0.776  -0.766  -0.761
 -0.748  -0.743  -0.742  -0.736  -0.717  -0.714  -0.709  -0.705
 -0.693  -0.692  -0.673  -0.673  -0.653  -0.650  -0.640  -0.640
 -0.636  -0.633  -0.623  -0.621  -0.612  -0.607  -0.597  -0.594
 -0.591  -0.591  -0.584  -0.580  -0.579  -0.576  -0.573  -0.567
 -0.542  -0.541  -0.539  -0.537  -0.528  -0.521  -0.516  -0.516
 -0.505  -0.503  -0.501  -0.495  -0.486  -0.481  -0.474  -0.472
 -0.470  -0.469  -0.466  -0.465  -0.463  -0.455  -0.447  -0.445
 -0.443  -0.442  -0.438  -0.434  -0.434  -0.430  -0.429  -0.426
 -0.426  -0.425  -0.422  -0.421  -0.418  -0.417  -0.415  -0.414
 -0.407  -0.406  -0.401  -0.397  -0.397  -0.395  -0.393  -0.393
 -0.391  -0.389  -0.388  -0.386  -0.384  -0.383  -0.380  -0.380
 -0.378  -0.377  -0.374  -0.372  -0.368  -0.361  -0.358  -0.357
 -0.353  -0.351  -0.350  -0.348  -0.347  -0.346  -0.342  -0.339
 -0.337  -0.333  -0.332  -0.331  -0.330  -0.330  -0.326  -0.323
 -0.322  -0.314  -0.312  -0.307  -0.304  -0.304  -0.299  -0.299
 -0.294  -0.293  -0.290  -0.290  -0.289  -0.281  -0.279  -0.276
 -0.272  -0.271  -0.265  -0.263  -0.256  -0.250  -0.243  -0.241
 -0.240  -0.237  -0.230  -0.227  -0.190  -0.188

          Ground-State Mulliken Net Atomic Charges

     Atom                 Charge (a.u.)
  ----------------------------------------
      1 C                     0.282654
      2 C                    -0.108046
      3 N                    -0.483865
      4 C                    -0.076091
      5 C                     0.080567
      6 C                    -0.001427
      7 C                     0.060516
      8 C                     0.064327
      9 C                     0.234177
     10 N                    -0.538245
     11 N                    -0.541757
     12 C                     0.211938
     13 C                     0.299164
     14 S                     0.602814
     15 N                    -0.564180
     16 C                    -0.224620
     17 S                     0.373064
     18 C                    -0.124391
     19 C                    -0.205767
     20 S                     0.297433
     21 C                     0.127438
     22 C                     0.039656
     23 C                    -0.306660
     24 C                    -0.088956
     25 N                    -0.438925
     26 S                     0.272590
     27 C                     0.132222
     28 C                    -0.312446
     29 C                    -0.243122
     30 H                     0.089661
     31 H                     0.099728
     32 H                     0.139775
     33 H                     0.103041
     34 H                     0.126675
     35 H                     0.127936
     36 H                     0.118886
     37 H                     0.132168
     38 H                     0.105238
     39 C                    -0.191611
     40 H                     0.112357
     41 H                     0.087506
     42 H                     0.093149
     43 C                    -0.171966
     44 H                     0.103110
     45 C                    -0.175463
     46 H                     0.091594
     47 H                     0.091427
     48 H                     0.091002
     49 C                    -0.169997
     50 H                     0.105738
     51 C                    -0.331968
     52 H                     0.103266
     53 H                     0.100994
     54 H                     0.097832
     55 H                     0.100245
     56 C                     0.277365
     57 C                    -0.115388
     58 N                    -0.491399
     59 C                    -0.098700
     60 C                     0.048774
     61 C                     0.069743
     62 C                     0.058424
     63 C                     0.062775
     64 C                     0.234234
     65 N                    -0.524314
     66 N                    -0.572480
     67 C                     0.184442
     68 C                     0.300099
     69 S                     0.599475
     70 N                    -0.533005
     71 C                    -0.213939
     72 S                     0.333376
     73 C                    -0.144448
     74 C                    -0.236667
     75 S                     0.291274
     76 C                     0.195421
     77 C                     0.015461
     78 C                    -0.307409
     79 C                    -0.102368
     80 N                    -0.415890
     81 S                     0.297475
     82 C                     0.149108
     83 C                    -0.293367
     84 C                    -0.216269
     85 H                     0.090690
     86 H                     0.087956
     87 H                     0.134514
     88 H                     0.110056
     89 H                     0.133675
     90 H                     0.107542
     91 H                     0.116068
     92 H                     0.127063
     93 H                     0.114670
     94 C                    -0.178546
     95 H                     0.089174
     96 H                     0.116582
     97 H                     0.093466
     98 C                    -0.176520
     99 H                     0.094633
    100 C                    -0.183529
    101 H                     0.090436
    102 H                     0.092750
    103 H                     0.087169
    104 C                    -0.184431
    105 H                     0.090310
    106 C                    -0.315404
    107 H                     0.093222
    108 H                     0.104885
    109 H                     0.107990
    110 H                     0.103388
  ----------------------------------------
  Sum of atomic charges =     0.000000

                    Cartesian Multipole Moments
 -----------------------------------------------------------------
    Charge (ESU x 10^10)
                 0.0000
    Dipole Moment (Debye)
         X       3.0456      Y      -0.8464      Z      -0.9280
       Tot       3.2944
    Quadrupole Moments (Debye-Ang)
        XX    -391.9814     XY       2.3865     YY    -378.7608
        XZ       1.2811     YZ       6.2067     ZZ    -451.6693

 Total job time:  88.62s(wall), 1045.41s(cpu)
        *  Thank you very much for using Q-Chem.  Have a nice day.  *
