 Q-Chem 4.4, Q-Chem, Inc., Pleasanton, CA (2016)
 Q-Chem 4.4.2 for Intel X86 Linux

User input:
--------------------------------------------------------------
$comment
SP
$end

$rem
MEM_STATIC 5000
MEM_TOTAL 20000
JOBTYPE SP
EXCHANGE B3LYP
BASIS 6-31g(d,p)
$end

$molecule
0 1
C          13.777000    -19.646000     -7.011000
C          14.967000    -20.268000     -6.657000
N          13.656000    -18.924000     -8.134000
C          15.977000    -20.237000     -7.570000
C          14.740000    -18.780000     -8.963000
C          15.985000    -19.442000     -8.745000
C          17.210000    -19.027000     -9.461000
C          17.544000    -17.694000     -9.809000
C          18.253000    -20.021000     -9.741000
N          18.760000    -17.299000    -10.223000
N          18.169000    -21.375000     -9.655000
C          19.528000    -19.595000    -10.237000
C          19.781000    -18.197000    -10.424000
S          19.602000    -22.039000     -9.974000
N          20.342000    -20.653000    -10.449000
C          21.128000    -17.673000    -10.785000
S          22.463000    -18.633000    -11.383000
C          21.362000    -16.358000    -10.883000
C          23.323000    -17.147000    -11.752000
S          20.347000    -14.979000    -10.513000
C          22.641000    -16.023000    -11.400000
C          24.606000    -17.073000    -12.365000
C          21.689000    -13.950000    -11.058000
C          22.842000    -14.607000    -11.420000
N          25.228000    -18.242000    -12.483000
S          25.322000    -15.707000    -13.257000
C          26.311000    -18.070000    -13.293000
C          26.576000    -16.841000    -13.783000
C          12.501000    -19.806000     -6.154000
H          15.012000    -20.831000     -5.729000
H          16.908000    -20.746000     -7.339000
H          14.622000    -18.166000     -9.855000
H          16.840000    -16.884000     -9.621000
H          21.550000    -12.877000    -11.036000
H          23.778000    -14.121000    -11.673000
H          27.026000    -18.859000    -13.486000
H          27.330000    -16.489000    -14.475000
H          12.808000    -19.521000     -5.140000
C          11.925000    -21.222000     -6.211000
H          11.757000    -19.071000     -6.486000
H          12.714000    -21.983000     -6.170000
H          11.532000    -21.391000     -7.221000
C          10.870000    -21.612000     -5.076000
H           9.953000    -21.019000     -5.179000
C          11.379000    -21.564000     -3.636000
H          10.528000    -22.624000     -5.326000
H          11.812000    -20.575000     -3.441000
H          12.229000    -22.256000     -3.596000
C          10.264000    -21.829000     -2.642000
H           9.407000    -21.151000     -2.742000
C          10.860000    -21.856000     -1.105000
H           9.874000    -22.821000     -2.901000
H          11.516000    -21.020000     -0.832000
H          11.414000    -22.790000     -0.948000
H          10.081000    -21.814000     -0.334000
C          19.032000    -26.672000    -12.363000
C          18.207000    -27.769000    -12.200000
N          19.254000    -25.701000    -11.467000
C          17.495000    -27.940000    -11.041000
C          18.631000    -25.912000    -10.281000
C          17.738000    -26.963000     -9.928000
C          17.122000    -27.181000     -8.573000
C          16.004000    -27.932000     -8.428000
C          17.690000    -26.679000     -7.329000
N          15.373000    -28.087000     -7.251000
N          18.722000    -25.838000     -7.275000
C          17.106000    -26.943000     -6.082000
C          15.902000    -27.728000     -6.090000
S          18.976000    -25.514000     -5.663000
N          17.791000    -26.429000     -5.060000
C          15.087000    -28.044000     -4.877000
S          15.600000    -27.843000     -3.180000
C          13.829000    -28.562000     -4.898000
C          14.100000    -28.532000     -2.570000
S          12.797000    -29.024000     -6.222000
C          13.323000    -28.850000     -3.624000
C          13.744000    -28.647000     -1.118000
C          11.573000    -29.502000     -4.994000
C          12.007000    -29.370000     -3.698000
N          12.533000    -29.035000     -0.755000
S          14.830000    -28.046000      0.128000
C          12.393000    -28.783000      0.609000
C          13.557000    -28.396000      1.275000
C          19.700000    -26.539000    -13.749000
H          18.086000    -28.401000    -13.075000
H          16.757000    -28.716000    -10.865000
H          18.862000    -25.151000     -9.538000
H          15.484000    -28.460000     -9.227000
H          10.602000    -29.852000     -5.320000
H          11.296000    -29.662000     -2.934000
H          11.508000    -28.951000      1.208000
H          13.660000    -28.094000      2.308000
H          20.576000    -25.886000    -13.646000
C          18.698000    -26.028000    -14.844000
H          19.999000    -27.529000    -14.115000
H          18.444000    -24.977000    -14.656000
H          17.779000    -26.624000    -14.887000
C          19.297000    -26.142000    -16.287000
H          19.996000    -25.298000    -16.325000
C          18.224000    -26.107000    -17.439000
H          19.843000    -27.081000    -16.434000
H          17.422000    -26.798000    -17.152000
H          18.780000    -26.262000    -18.372000
C          17.526000    -24.767000    -17.655000
H          17.022000    -24.461000    -16.730000
C          16.467000    -24.878000    -18.689000
H          18.194000    -23.920000    -17.852000
H          15.631000    -25.529000    -18.407000
H          16.881000    -25.171000    -19.662000
H          16.016000    -23.895000    -18.874000
$end

--------------------------------------------------------------

             Standard Nuclear Orientation (Angstroms)
    I     Atom           X                Y                Z
 ----------------------------------------------------------------
    1      C      -0.8529293054     4.0886694012    -3.0623047041
    2      C      -0.7788235158     3.6238492018    -1.7558780838
    3      N       0.1724474168     3.9767853473    -3.9185397980
    4      C       0.3327179565     2.9156165601    -1.4130777330
    5      C       1.3416774440     3.3946334914    -3.4977864734
    6      C       1.5026916514     2.8061557406    -2.2079952648
    7      C       2.8426334852     2.4783006412    -1.6764193852
    8      C       4.0201868167     3.2356746970    -1.8984592267
    9      C       2.9912164972     1.3626130445    -0.7343741236
   10      N       5.1646935558     3.0792573867    -1.2116441503
   11      N       2.0931348336     0.3857283932    -0.4395628220
   12      C       4.2348868928     1.1697374291    -0.0493924128
   13      C       5.3112977119     2.0898100762    -0.2689102317
   14      S       2.6736130351    -0.5658186777     0.7239444747
   15      N       4.1799760804     0.0854000433     0.7556549376
   16      C       6.5725123960     2.0430872360     0.5225823436
   17      S       7.0892413471     0.7087830172     1.5295840531
   18      C       7.5367505885     2.9570148350     0.3535673983
   19      C       8.6577724797     1.4817327425     1.6914970179
   20      S       7.5780697246     4.4200082316    -0.6090898878
   21      C       8.7411877980     2.6804093642     1.0522629127
   22      C       9.7667542166     0.9443002023     2.4047008962
   23      C       9.2442316027     4.6505839965    -0.0367530876
   24      C       9.7009742290     3.7256903809     0.8732249194
   25      N       9.4854156057    -0.1352651607     3.1277197155
   26      S      11.4948509396     1.3282843418     2.2034202550
   27      C      10.6594256088    -0.6839988433     3.5509984159
   28      C      11.8216683587    -0.0822097683     3.2226575874
   29      C      -2.1533249185     4.7083377588    -3.6219540372
   30      H      -1.6363616492     3.7515918431    -1.1012880079
   31      H       0.4046411040     2.5065108522    -0.4097519730
   32      H       2.1681231102     3.3407259365    -4.2053637033
   33      H       4.0027790385     4.0953554047    -2.5675676261
   34      H       9.7900336078     5.5150344542    -0.3916609310
   35      H      10.6507583490     3.7858792460     1.3934060666
   36      H      10.6982411257    -1.5324283046     4.2215622122
   37      H      12.8522294439    -0.3637669116     3.3957281649
   38      H      -2.4164922467     5.4980943183    -2.9073229896
   39      C      -3.2728921642     3.6796134128    -3.7904070047
   40      H      -1.9293674098     5.1978931885    -4.5780730233
   41      H      -3.3154299278     2.9837782105    -2.9434554654
   42      H      -2.9905408315     2.9963826283    -4.6007053572
   43      C      -4.7528479865     4.2549425874    -3.9695078282
   44      H      -4.8431283803     4.8049803226    -4.9142061612
   45      C      -5.2976826543     5.0890181820    -2.8108628924
   46      H      -5.3910406685     3.3794539561    -4.1422439193
   47      H      -4.5907318672     5.8975376710    -2.5869168710
   48      H      -5.2653978494     4.4353897121    -1.9306972747
   49      C      -6.6531058219     5.6844068367    -3.1422635360
   50      H      -6.6620100087     6.2916123430    -4.0562412100
   51      C      -7.2520705549     6.5053781811    -1.8439718506
   52      H      -7.3004222293     4.8269830363    -3.3637379028
   53      H      -6.5596953585     7.2058533667    -1.3605340554
   54      H      -7.5942846487     5.7873294965    -1.0881831232
   55      H      -8.1099168347     7.1434482565    -2.0889460110
   56      C       1.0334089861    -5.5069814831     0.0982042668
   57      C      -0.1638975366    -6.1123771214    -0.2342956757
   58      N       1.1994397831    -4.2462583797     0.5200478764
   59      C      -1.3406487038    -5.4118317435    -0.1713761703
   60      C       0.0317784482    -3.5751285854     0.6794147684
   61      C      -1.2879524622    -4.0168906697     0.3797222844
   62      C      -2.5559085112    -3.2486397833     0.6348360498
   63      C      -3.6982623011    -3.5484545665    -0.0285559267
   64      C      -2.6838307189    -2.1948413119     1.6324876375
   65      N      -4.8318424390    -2.8383097124     0.1063713025
   66      N      -1.6530458949    -1.6888825546     2.3082904064
   67      C      -3.8975883594    -1.5337778486     1.8681749042
   68      C      -5.0166320875    -1.9390642736     1.0623281145
   69      S      -2.2759514714    -0.4930668059     3.2829951504
   70      N      -3.8230028933    -0.6268690676     2.8427817332
   71      C      -6.3675315905    -1.2996518890     1.1032223107
   72      S      -6.9716898985    -0.1905800203     2.3635124871
   73      C      -7.3504599209    -1.4978667390     0.1834985639
   74      C      -8.5616336729    -0.0922380460     1.6156965670
   75      S      -7.4056074888    -2.4909650098    -1.2455425727
   76      C      -8.5516832052    -0.8520109093     0.5028555251
   77      C      -9.6836628583     0.7707119431     2.1103002705
   78      C      -9.0851956635    -1.8976577629    -1.4937643973
   79      C      -9.5361972813    -1.0744229026    -0.4916277271
   80      N     -10.7911165021     0.9003786813     1.3992679478
   81      S      -9.4705488391     1.8139268642     3.5100852693
   82      C     -11.5256425670     1.9555344555     1.9384504328
   83      C     -11.0533037827     2.4645547732     3.1492416571
   84      C       2.2978816021    -6.3686403156    -0.1105109934
   85      H      -0.0864512530    -7.1160253675    -0.6421955054
   86      H      -2.3080621826    -5.7765578957    -0.5013488887
   87      H       0.1689928900    -2.5717404936     1.0780568814
   88      H      -3.8227176000    -4.3573862622    -0.7480872952
   89      H      -9.6311148823    -2.2023449354    -2.3773677774
   90      H     -10.5503065537    -0.7097378260    -0.6059438619
   91      H     -12.4640340399     2.3441779367     1.5661230391
   92      H     -11.4293556070     3.3137901994     3.7026729684
   93      H       3.1030108637    -5.9510181613     0.5073503246
   94      C       2.6994335324    -6.4761175067    -1.6242331279
   95      H       2.0923244328    -7.4074222752     0.1760815583
   96      H       3.0710369637    -5.5071930205    -1.9813846782
   97      H       1.8689899796    -6.8056552507    -2.2593664847
   98      C       3.8136892067    -7.5514548472    -1.8611506164
   99      H       4.7183405410    -7.0429779327    -1.5069780725
  100      C       3.9284222741    -8.0488324409    -3.3508183151
  101      H       3.6439915690    -8.4585513329    -1.2696908313
  102      H       2.9105910365    -8.2690156102    -3.6951915773
  103      H       4.6931401896    -8.8354957516    -3.3466535361
  104      C       4.4669368862    -7.0294556779    -4.3509848150
  105      H       3.8247769626    -6.1401267250    -4.3522678342
  106      C       4.4331304841    -7.5693711110    -5.7331231771
  107      H       5.4504581736    -6.6109635020    -4.1060518121
  108      H       3.4233095447    -7.7559967079    -6.1173803266
  109      H       5.0621004657    -8.4628186547    -5.8337325650
  110      H       4.8773041828    -6.8482515029    -6.4306984320
 ----------------------------------------------------------------

    9   -5663.5543505282      5.63E-06 Convergence criterion met
 Total energy in the final basis set = -5663.5543505282

                    Orbital Energies (a.u.)
 --------------------------------------------------------------

 Alpha MOs
 -- Occupied --
-88.991 -88.986 -88.929 -88.924 -88.924 -88.921 -88.909 -88.908
-14.389 -14.383 -14.373 -14.370 -14.353 -14.351 -14.349 -14.339
-14.335 -14.325 -10.279 -10.269 -10.265 -10.264 -10.260 -10.259
-10.254 -10.250 -10.243 -10.242 -10.241 -10.238 -10.237 -10.233
-10.231 -10.231 -10.231 -10.229 -10.228 -10.227 -10.226 -10.225
-10.225 -10.225 -10.225 -10.224 -10.222 -10.222 -10.221 -10.220
-10.213 -10.206 -10.205 -10.204 -10.204 -10.198 -10.193 -10.192
-10.188 -10.187 -10.185 -10.183 -10.182 -10.180 -10.179 -10.179
-10.178 -10.176 -10.171 -10.167  -8.046  -8.040  -7.990  -7.985
 -7.984  -7.980  -7.968  -7.967  -6.012  -6.006  -6.006  -6.004
 -6.000  -5.998  -5.954  -5.951  -5.949  -5.948  -5.947  -5.945
 -5.944  -5.944  -5.941  -5.941  -5.940  -5.936  -5.933  -5.932
 -5.929  -5.928  -5.925  -5.923  -1.043  -1.025  -0.968  -0.967
 -0.966  -0.948  -0.941  -0.930  -0.917  -0.913  -0.908  -0.886
 -0.843  -0.842  -0.830  -0.825  -0.810  -0.809  -0.806  -0.804
 -0.801  -0.800  -0.798  -0.794  -0.787  -0.782  -0.770  -0.763
 -0.749  -0.744  -0.742  -0.735  -0.725  -0.723  -0.711  -0.707
 -0.696  -0.692  -0.679  -0.674  -0.655  -0.650  -0.645  -0.640
 -0.635  -0.629  -0.624  -0.621  -0.610  -0.609  -0.597  -0.595
 -0.593  -0.591  -0.586  -0.586  -0.581  -0.571  -0.565  -0.560
 -0.554  -0.547  -0.540  -0.536  -0.527  -0.519  -0.514  -0.513
 -0.508  -0.503  -0.500  -0.495  -0.485  -0.485  -0.480  -0.475
 -0.471  -0.471  -0.468  -0.468  -0.459  -0.457  -0.454  -0.450
 -0.448  -0.439  -0.438  -0.435  -0.433  -0.433  -0.432  -0.430
 -0.427  -0.425  -0.424  -0.421  -0.418  -0.417  -0.414  -0.414
 -0.409  -0.406  -0.405  -0.402  -0.401  -0.400  -0.399  -0.397
 -0.395  -0.393  -0.392  -0.391  -0.388  -0.385  -0.381  -0.378
 -0.376  -0.373  -0.369  -0.367  -0.365  -0.361  -0.361  -0.355
 -0.353  -0.352  -0.351  -0.345  -0.344  -0.343  -0.341  -0.340
 -0.336  -0.334  -0.333  -0.330  -0.327  -0.327  -0.319  -0.317
 -0.314  -0.313  -0.309  -0.305  -0.303  -0.303  -0.302  -0.299
 -0.297  -0.294  -0.291  -0.291  -0.287  -0.287  -0.286  -0.281
 -0.274  -0.274  -0.270  -0.266  -0.260  -0.254  -0.252  -0.247
 -0.245  -0.242  -0.233  -0.230  -0.198  -0.193

          Ground-State Mulliken Net Atomic Charges

     Atom                 Charge (a.u.)
  ----------------------------------------
      1 C                     0.258140
      2 C                    -0.091855
      3 N                    -0.487407
      4 C                    -0.061405
      5 C                     0.052357
      6 C                     0.047039
      7 C                     0.017853
      8 C                     0.074282
      9 C                     0.213417
     10 N                    -0.538491
     11 N                    -0.560636
     12 C                     0.216223
     13 C                     0.313360
     14 S                     0.636634
     15 N                    -0.589866
     16 C                    -0.214855
     17 S                     0.370482
     18 C                    -0.116276
     19 C                    -0.244471
     20 S                     0.298405
     21 C                     0.159607
     22 C                     0.058426
     23 C                    -0.310242
     24 C                    -0.075055
     25 N                    -0.437826
     26 S                     0.255909
     27 C                     0.131858
     28 C                    -0.304820
     29 C                    -0.215543
     30 H                     0.093697
     31 H                     0.095768
     32 H                     0.102718
     33 H                     0.118516
     34 H                     0.125731
     35 H                     0.116979
     36 H                     0.108862
     37 H                     0.136757
     38 H                     0.100549
     39 C                    -0.190834
     40 H                     0.117534
     41 H                     0.093059
     42 H                     0.105385
     43 C                    -0.189571
     44 H                     0.089895
     45 C                    -0.157992
     46 H                     0.092090
     47 H                     0.093169
     48 H                     0.092656
     49 C                    -0.179872
     50 H                     0.099542
     51 C                    -0.334724
     52 H                     0.098792
     53 H                     0.104014
     54 H                     0.108648
     55 H                     0.098765
     56 C                     0.277212
     57 C                    -0.096015
     58 N                    -0.491012
     59 C                    -0.068943
     60 C                     0.066417
     61 C                     0.020760
     62 C                     0.083364
     63 C                     0.036763
     64 C                     0.234013
     65 N                    -0.536621
     66 N                    -0.567268
     67 C                     0.216027
     68 C                     0.327323
     69 S                     0.597304
     70 N                    -0.562053
     71 C                    -0.237059
     72 S                     0.300787
     73 C                    -0.085384
     74 C                    -0.245190
     75 S                     0.271861
     76 C                     0.154287
     77 C                     0.078144
     78 C                    -0.310209
     79 C                    -0.047797
     80 N                    -0.438526
     81 S                     0.271159
     82 C                     0.113955
     83 C                    -0.300333
     84 C                    -0.234940
     85 H                     0.092996
     86 H                     0.099023
     87 H                     0.116486
     88 H                     0.114707
     89 H                     0.123411
     90 H                     0.131369
     91 H                     0.117872
     92 H                     0.135188
     93 H                     0.116524
     94 C                    -0.181438
     95 H                     0.099917
     96 H                     0.113580
     97 H                     0.088057
     98 C                    -0.184911
     99 H                     0.096445
    100 C                    -0.166467
    101 H                     0.086690
    102 H                     0.091232
    103 H                     0.093971
    104 C                    -0.177350
    105 H                     0.092795
    106 C                    -0.311031
    107 H                     0.092491
    108 H                     0.100887
    109 H                     0.097833
    110 H                     0.096321
  ----------------------------------------
  Sum of atomic charges =     0.000000

                    Cartesian Multipole Moments
 -----------------------------------------------------------------
    Charge (ESU x 10^10)
                 0.0000
    Dipole Moment (Debye)
         X      -1.1221      Y      -0.2458      Z       1.6602
       Tot       2.0189
    Quadrupole Moments (Debye-Ang)
        XX    -375.8854     XY     -14.8083     YY    -419.2017
        XZ       3.6129     YZ      16.1970     ZZ    -448.2845

 Total job time:  78.46s(wall), 910.42s(cpu)
        *  Thank you very much for using Q-Chem.  Have a nice day.  *
