 Q-Chem 4.4, Q-Chem, Inc., Pleasanton, CA (2016)
 Q-Chem 4.4.2 for Intel X86 Linux

User input:
--------------------------------------------------------------
$comment
SP
$end

$rem
MEM_STATIC 5000
MEM_TOTAL 20000
JOBTYPE SP
EXCHANGE B3LYP
BASIS 6-31g(d,p)
$end

$molecule
0 1
C          17.004000    -21.603000     -0.671000
C          16.775000    -21.452000      0.690000
N          17.087000    -22.818000     -1.219000
C          16.621000    -22.593000      1.535000
C          16.991000    -23.869000     -0.468000
C          16.821000    -23.865000      0.954000
C          16.634000    -25.162000      1.738000
C          15.726000    -25.204000      2.845000
C          17.432000    -26.319000      1.546000
N          15.478000    -26.283000      3.554000
N          18.445000    -26.528000      0.689000
C          17.171000    -27.436000      2.366000
C          16.190000    -27.395000      3.341000
S          19.038000    -28.026000      1.005000
N          18.108000    -28.441000      2.263000
C          15.886000    -28.487000      4.263000
S          15.153000    -28.235000      5.857000
C          15.815000    -29.858000      3.956000
C          14.846000    -29.960000      6.028000
S          16.385000    -30.792000      2.585000
C          15.326000    -30.635000      4.974000
C          14.248000    -30.492000      7.211000
C          16.031000    -32.319000      3.481000
C          15.482000    -32.012000      4.679000
N          14.283000    -31.752000      7.479000
S          13.675000    -29.358000      8.479000
C          13.770000    -31.967000      8.707000
C          13.396000    -30.821000      9.385000
C          17.198000    -20.439000     -1.626000
H          16.824000    -20.448000      1.102000
H          16.464000    -22.437000      2.599000
H          16.970000    -24.763000     -1.089000
H          15.129000    -24.339000      3.131000
H          16.229000    -33.285000      3.036000
H          15.156000    -32.784000      5.366000
H          13.721000    -32.992000      9.051000
H          13.244000    -30.728000     10.452000
H          17.552000    -19.653000     -0.947000
C          15.812000    -19.988000     -2.309000
H          17.942000    -20.692000     -2.391000
H          15.562000    -20.573000     -3.202000
H          15.916000    -18.953000     -2.658000
C          14.606000    -20.165000     -1.394000
H          13.721000    -20.183000     -2.041000
C          14.435000    -18.931000     -0.462000
H          14.584000    -21.108000     -0.835000
H          14.166000    -18.083000     -1.103000
H          15.392000    -18.681000      0.013000
C          13.367000    -18.985000      0.646000
H          12.389000    -19.297000      0.260000
C          13.321000    -17.690000      1.475000
H          13.622000    -19.778000      1.360000
H          12.990000    -16.800000      0.925000
H          14.325000    -17.435000      1.836000
H          12.588000    -17.769000      2.288000
C          19.032000    -26.672000    -12.363000
C          18.207000    -27.769000    -12.200000
N          19.254000    -25.701000    -11.467000
C          17.495000    -27.940000    -11.041000
C          18.631000    -25.912000    -10.281000
C          17.738000    -26.963000     -9.928000
C          17.122000    -27.181000     -8.573000
C          16.004000    -27.932000     -8.428000
C          17.690000    -26.679000     -7.329000
N          15.373000    -28.087000     -7.251000
N          18.722000    -25.838000     -7.275000
C          17.106000    -26.943000     -6.082000
C          15.902000    -27.728000     -6.090000
S          18.976000    -25.514000     -5.663000
N          17.791000    -26.429000     -5.060000
C          15.087000    -28.044000     -4.877000
S          15.600000    -27.843000     -3.180000
C          13.829000    -28.562000     -4.898000
C          14.100000    -28.532000     -2.570000
S          12.797000    -29.024000     -6.222000
C          13.323000    -28.850000     -3.624000
C          13.744000    -28.647000     -1.118000
C          11.573000    -29.502000     -4.994000
C          12.007000    -29.370000     -3.698000
N          12.533000    -29.035000     -0.755000
S          14.830000    -28.046000      0.128000
C          12.393000    -28.783000      0.609000
C          13.557000    -28.396000      1.275000
C          19.700000    -26.539000    -13.749000
H          18.086000    -28.401000    -13.075000
H          16.757000    -28.716000    -10.865000
H          18.862000    -25.151000     -9.538000
H          15.484000    -28.460000     -9.227000
H          10.602000    -29.852000     -5.320000
H          11.296000    -29.662000     -2.934000
H          11.508000    -28.951000      1.208000
H          13.660000    -28.094000      2.308000
H          20.576000    -25.886000    -13.646000
C          18.698000    -26.028000    -14.844000
H          19.999000    -27.529000    -14.115000
H          18.444000    -24.977000    -14.656000
H          17.779000    -26.624000    -14.887000
C          19.297000    -26.142000    -16.287000
H          19.996000    -25.298000    -16.325000
C          18.224000    -26.107000    -17.439000
H          19.843000    -27.081000    -16.434000
H          17.422000    -26.798000    -17.152000
H          18.780000    -26.262000    -18.372000
C          17.526000    -24.767000    -17.655000
H          17.022000    -24.461000    -16.730000
C          16.467000    -24.878000    -18.689000
H          18.194000    -23.920000    -17.852000
H          15.631000    -25.529000    -18.407000
H          16.881000    -25.171000    -19.662000
H          16.016000    -23.895000    -18.874000
$end

--------------------------------------------------------------

             Standard Nuclear Orientation (Angstroms)
    I     Atom           X                Y                Z
 ----------------------------------------------------------------
    1      C      -0.7115806601    -5.4631099083    -0.8352546799
    2      C      -2.0577988658    -5.7993866428    -0.7885909863
    3      N      -0.3292291284    -4.1872628290    -0.9324119567
    4      C      -3.0647582646    -4.7880239509    -0.8415086058
    5      C      -1.2231224848    -3.2541813198    -1.0225871456
    6      C      -2.6404072742    -3.4574686381    -1.0538616059
    7      C      -3.6139719845    -2.2812677589    -1.0774676783
    8      C      -4.8395397255    -2.3523362020    -0.3394907217
    9      C      -3.4652791570    -1.1542440083    -1.9260104931
   10      N      -5.7188895893    -1.3770831304    -0.2758411851
   11      N      -2.5032268415    -0.8777351363    -2.8217209295
   12      C      -4.4604757644    -0.1570352922    -1.8679718073
   13      C      -5.5563282581    -0.2866950777    -1.0331289166
   14      S      -2.9294045987     0.5227930214    -3.5649587104
   15      N      -4.3572842233     0.7991660453    -2.8547004974
   16      C      -6.6544058329     0.6732171848    -0.9450489074
   17      S      -8.2903258802     0.2306951994    -0.4258486652
   18      C      -6.5524764559     2.0762338212    -0.9357904011
   19      C      -8.7403128386     1.9261619300    -0.2774596406
   20      S      -5.2528501420     3.1685630249    -1.3770220350
   21      C      -7.7290265484     2.7211173039    -0.6546691220
   22      C     -10.0611301093     2.3108490192     0.1066947305
   23      C      -6.3926177669     4.5646645892    -1.2688962590
   24      C      -7.6057077310     4.1158228406    -0.8716459300
   25      N     -10.4911463670     3.5140293902    -0.0609119905
   26      S     -11.2329157817     1.0362709643     0.5804859504
   27      C     -11.7998273600     3.5743574636     0.2570386064
   28      C     -12.3624753524     2.3635736969     0.6180177012
   29      C       0.4122283899    -6.4832442390    -0.8046578435
   30      H      -2.3161746797    -6.8541371375    -0.8186631149
   31      H      -4.1087008493    -5.0896109890    -0.8238978615
   32      H      -0.7408196277    -2.2789397429    -0.9825144531
   33      H      -5.0902561863    -3.2158090767     0.2753148175
   34      H      -6.0597615631     5.5731521776    -1.4751595170
   35      H      -8.4330749819     4.7953841787    -0.7046464696
   36      H     -12.2845947678     4.5389047328     0.1795071555
   37      H     -13.4172489926     2.1234932674     0.6254980298
   38      H      -0.0918593864    -7.3786334070    -1.1897899658
   39      C       0.9355067770    -6.7522665733     0.6935720165
   40      H       1.2379139494    -6.1619957751    -1.4510422348
   41      H       1.6922705527    -6.0297052763     1.0212727332
   42      H       1.4347706174    -7.7289793514     0.7182654712
   43      C      -0.1651607425    -6.6454485515     1.7424337431
   44      H       0.3334924829    -6.4840832603     2.7054831726
   45      C      -0.9340786684    -7.9915767947     1.8740581187
   46      H      -0.8451652113    -5.7949236049     1.6143117794
   47      H      -0.2303501340    -8.7202484287     2.2937601553
   48      H      -1.2217170793    -8.3607917832     0.8816275484
   49      C      -2.1862100398    -8.0421466153     2.7689400784
   50      H      -1.9973652890    -7.6236042877     3.7649240040
   51      C      -2.8272029247    -9.4402758961     2.7962280942
   52      H      -2.9559693420    -7.3777388633     2.3569898924
   53      H      -2.2160951731   -10.2203754515     3.2675591876
   54      H      -2.9954966673    -9.8002826225     1.7737632424
   55      H      -3.7437832839    -9.4412746856     3.3998657732
   56      C      10.3451475923     1.1476186441    -1.5818719575
   57      C       9.9116349052     2.2524874184    -0.8733984282
   58      N       9.6342038712     0.0449248393    -1.8531032208
   59      C       8.6467795367     2.2904219888    -0.3459822120
   60      C       8.3507395836     0.1135114937    -1.4203662414
   61      C       7.7273179319     1.1488031739    -0.6679198438
   62      C       6.2784587706     1.1991177009    -0.2663223102
   63      C       5.8661942454     1.9810060034     0.7601467072
   64      C       5.2141942933     0.4895440272    -0.9634667170
   65      N       4.5980270929     1.9960449539     1.2062867112
   66      N       5.4310795192    -0.4057092449    -1.9261210565
   67      C       3.8695649058     0.5993806301    -0.5818009849
   68      C       3.5895848324     1.4420283606     0.5484472006
   69      S       3.9350804616    -0.9762289145    -2.3783711268
   70      N       3.0418301497    -0.0958964005    -1.3624097372
   71      C       2.2365538385     1.6209078621     1.1589873331
   72      S       0.6792028643     1.1451600583     0.4298090487
   73      C       1.9978477733     2.2047298732     2.3645993246
   74      C      -0.2370305609     1.8185699014     1.7728862966
   75      S       3.0765121942     2.9120393336     3.5340609076
   76      C       0.6351583869     2.3300207951     2.6636575481
   77      C      -1.7278422673     1.7386324522     1.9120101997
   78      C       1.6253796243     3.2711948430     4.5339936977
   79      C       0.4393970276     2.9267835919     3.9338085843
   80      N      -2.3176910322     2.1351250319     3.0272259048
   81      S      -2.7029848122     0.9025190067     0.7107091037
   82      C      -3.6396770724     1.6937643991     2.9932597249
   83      C      -4.0645771684     1.1498357820     1.7800727781
   84      C      11.8204821550     1.1829453322    -2.0368982791
   85      H      10.6636268452     3.0117366698    -0.6791339269
   86      H       8.2575849002     3.0715672783     0.2991034967
   87      H       7.7621521979    -0.7598185026    -1.6949397414
   88      H       6.4983372464     2.6483161611     1.3455332289
   89      H       1.7513082917     3.7180779142     5.5117740879
   90      H      -0.4551285821     3.1421349577     4.5064591957
   91      H      -4.3816616294     1.8204247212     3.7702192348
   92      H      -5.0192385933     0.6943121458     1.5564172829
   93      H      11.9402598453     0.4747523897    -2.8666633428
   94      C      12.8128664397     0.8940209887    -0.8554389463
   95      H      12.0878019695     2.1979921019    -2.3557668604
   96      H      12.7349412098    -0.1576236771    -0.5514123761
   97      H      12.6357228617     1.5394763670     0.0126817294
   98      C      14.2998105261     1.1854531613    -1.2530701481
   99      H      14.5573702736     0.3190397865    -1.8738533955
  100      C      15.2720936425     1.3789150282    -0.0295931162
  101      H      14.3966396825     2.1044163742    -1.8426265304
  102      H      14.7762935457     2.0633385423     0.6695497286
  103      H      16.2475968256     1.6383609255    -0.4593969858
  104      C      15.5629709214     0.1255305654     0.7913074849
  105      H      14.6237935574    -0.2847337141     1.1823395806
  106      C      16.4017784812     0.4451026023     1.9733538422
  107      H      15.9719942716    -0.7188085664     0.2236514890
  108      H      15.9112741031     1.0926226999     2.7097940491
  109      H      17.3762744669     0.8545179564     1.6788871352
  110      H      16.6502870667    -0.4738168843     2.5190144146
 ----------------------------------------------------------------

   10   -5663.5419024940      6.84E-06 Convergence criterion met
 Total energy in the final basis set = -5663.5419024940

                    Orbital Energies (a.u.)
 --------------------------------------------------------------

 Alpha MOs
 -- Occupied --
-88.994 -88.984 -88.927 -88.926 -88.923 -88.919 -88.904 -88.903
-14.388 -14.383 -14.381 -14.377 -14.348 -14.346 -14.346 -14.344
-14.329 -14.320 -10.272 -10.269 -10.264 -10.260 -10.259 -10.255
-10.254 -10.253 -10.243 -10.242 -10.238 -10.238 -10.237 -10.234
-10.233 -10.232 -10.231 -10.231 -10.229 -10.226 -10.226 -10.224
-10.224 -10.224 -10.223 -10.222 -10.222 -10.221 -10.219 -10.219
-10.217 -10.215 -10.203 -10.201 -10.201 -10.194 -10.193 -10.189
-10.188 -10.186 -10.185 -10.183 -10.179 -10.178 -10.178 -10.176
-10.175 -10.174 -10.171 -10.167  -8.049  -8.040  -7.989  -7.986
 -7.984  -7.979  -7.965  -7.963  -6.014  -6.008  -6.007  -6.005
 -6.000  -5.997  -5.952  -5.950  -5.949  -5.947  -5.946  -5.946
 -5.944  -5.943  -5.942  -5.941  -5.939  -5.935  -5.929  -5.927
 -5.925  -5.924  -5.921  -5.919  -1.038  -1.037  -0.986  -0.971
 -0.962  -0.960  -0.950  -0.936  -0.920  -0.912  -0.903  -0.902
 -0.848  -0.837  -0.830  -0.824  -0.816  -0.811  -0.806  -0.805
 -0.804  -0.802  -0.798  -0.794  -0.784  -0.782  -0.768  -0.766
 -0.749  -0.745  -0.741  -0.737  -0.730  -0.719  -0.710  -0.708
 -0.692  -0.692  -0.677  -0.673  -0.656  -0.652  -0.650  -0.640
 -0.639  -0.630  -0.630  -0.619  -0.615  -0.606  -0.601  -0.597
 -0.594  -0.585  -0.584  -0.583  -0.582  -0.575  -0.566  -0.559
 -0.555  -0.549  -0.544  -0.541  -0.526  -0.522  -0.515  -0.509
 -0.507  -0.504  -0.502  -0.496  -0.484  -0.481  -0.478  -0.475
 -0.471  -0.471  -0.469  -0.468  -0.463  -0.462  -0.453  -0.451
 -0.446  -0.445  -0.443  -0.441  -0.432  -0.431  -0.430  -0.428
 -0.427  -0.424  -0.424  -0.422  -0.419  -0.417  -0.415  -0.414
 -0.411  -0.409  -0.407  -0.403  -0.400  -0.399  -0.397  -0.397
 -0.396  -0.395  -0.393  -0.390  -0.389  -0.389  -0.387  -0.384
 -0.381  -0.375  -0.370  -0.367  -0.366  -0.361  -0.359  -0.359
 -0.355  -0.353  -0.349  -0.348  -0.347  -0.342  -0.340  -0.339
 -0.339  -0.332  -0.331  -0.330  -0.327  -0.326  -0.319  -0.318
 -0.312  -0.311  -0.309  -0.305  -0.305  -0.303  -0.302  -0.302
 -0.299  -0.296  -0.293  -0.292  -0.289  -0.288  -0.285  -0.281
 -0.281  -0.270  -0.269  -0.267  -0.255  -0.252  -0.251  -0.248
 -0.247  -0.242  -0.232  -0.228  -0.196  -0.193

          Ground-State Mulliken Net Atomic Charges

     Atom                 Charge (a.u.)
  ----------------------------------------
      1 C                     0.259635
      2 C                    -0.116727
      3 N                    -0.456122
      4 C                    -0.086394
      5 C                     0.080876
      6 C                     0.025195
      7 C                     0.021667
      8 C                     0.058174
      9 C                     0.273279
     10 N                    -0.498552
     11 N                    -0.565093
     12 C                     0.168304
     13 C                     0.256106
     14 S                     0.628040
     15 N                    -0.524191
     16 C                    -0.223089
     17 S                     0.308903
     18 C                    -0.138479
     19 C                    -0.250710
     20 S                     0.266286
     21 C                     0.195520
     22 C                     0.085817
     23 C                    -0.310433
     24 C                    -0.041669
     25 N                    -0.428816
     26 S                     0.256618
     27 C                     0.126179
     28 C                    -0.311472
     29 C                    -0.213413
     30 H                     0.089416
     31 H                     0.104513
     32 H                     0.119632
     33 H                     0.111480
     34 H                     0.137417
     35 H                     0.122633
     36 H                     0.113666
     37 H                     0.131904
     38 H                     0.092810
     39 C                    -0.179953
     40 H                     0.118807
     41 H                     0.105874
     42 H                     0.097819
     43 C                    -0.187506
     44 H                     0.090321
     45 C                    -0.163873
     46 H                     0.107105
     47 H                     0.091561
     48 H                     0.079554
     49 C                    -0.179663
     50 H                     0.092862
     51 C                    -0.317941
     52 H                     0.090293
     53 H                     0.100761
     54 H                     0.099981
     55 H                     0.099322
     56 C                     0.274420
     57 C                    -0.096006
     58 N                    -0.483486
     59 C                    -0.070092
     60 C                     0.063989
     61 C                     0.017811
     62 C                     0.083057
     63 C                     0.035571
     64 C                     0.230970
     65 N                    -0.537718
     66 N                    -0.566203
     67 C                     0.216384
     68 C                     0.326280
     69 S                     0.603813
     70 N                    -0.559947
     71 C                    -0.237675
     72 S                     0.299656
     73 C                    -0.085479
     74 C                    -0.245505
     75 S                     0.269218
     76 C                     0.153942
     77 C                     0.065599
     78 C                    -0.310972
     79 C                    -0.047015
     80 N                    -0.441009
     81 S                     0.273270
     82 C                     0.109936
     83 C                    -0.306869
     84 C                    -0.233655
     85 H                     0.090387
     86 H                     0.097407
     87 H                     0.121045
     88 H                     0.112653
     89 H                     0.121602
     90 H                     0.130926
     91 H                     0.117278
     92 H                     0.152753
     93 H                     0.115211
     94 C                    -0.180715
     95 H                     0.098729
     96 H                     0.112188
     97 H                     0.087722
     98 C                    -0.184608
     99 H                     0.094982
    100 C                    -0.165896
    101 H                     0.086616
    102 H                     0.091393
    103 H                     0.093434
    104 C                    -0.177036
    105 H                     0.092543
    106 C                    -0.311047
    107 H                     0.091428
    108 H                     0.101068
    109 H                     0.097920
    110 H                     0.095496
  ----------------------------------------
  Sum of atomic charges =     0.000000

                    Cartesian Multipole Moments
 -----------------------------------------------------------------
    Charge (ESU x 10^10)
                 0.0000
    Dipole Moment (Debye)
         X      -3.3139      Y       0.3563      Z       0.3196
       Tot       3.3483
    Quadrupole Moments (Debye-Ang)
        XX    -392.0901     XY      11.0567     YY    -419.8145
        XZ       3.3799     YZ      -0.3640     ZZ    -445.0181

 Total job time:  93.62s(wall), 1116.49s(cpu)
        *  Thank you very much for using Q-Chem.  Have a nice day.  *
