 Q-Chem 4.4, Q-Chem, Inc., Pleasanton, CA (2016)
 Q-Chem 4.4.2 for Intel X86 Linux

User input:
--------------------------------------------------------------
$comment
SP
$end

$rem
MEM_STATIC 5000
MEM_TOTAL 20000
JOBTYPE SP
EXCHANGE B3LYP
BASIS 6-31g(d,p)
$end

$molecule
0 1
C          21.945000    -21.252000    -16.699000
C          21.637000    -22.560000    -16.345000
N          22.902000    -20.523000    -16.041000
C          22.230000    -23.066000    -15.142000
C          23.385000    -21.062000    -14.898000
C          23.094000    -22.308000    -14.337000
C          23.565000    -22.729000    -12.959000
C          22.687000    -23.410000    -12.082000
C          24.857000    -22.560000    -12.446000
N          23.002000    -23.823000    -10.882000
N          25.818000    -21.859000    -13.113000
C          25.272000    -23.184000    -11.295000
C          24.291000    -23.798000    -10.515000
S          27.116000    -21.953000    -12.241000
N          26.518000    -22.860000    -10.939000
C          24.599000    -24.269000     -9.164000
S          26.200000    -24.095000     -8.329000
C          23.806000    -25.149000     -8.450000
C          25.632000    -25.049000     -6.940000
S          22.209000    -25.708000     -8.776000
C          24.379000    -25.506000     -7.221000
C          26.365000    -25.274000     -5.788000
C          22.251000    -26.539000     -7.243000
C          23.462000    -26.356000     -6.542000
N          27.437000    -24.534000     -5.553000
S          26.041000    -26.589000     -4.709000
C          28.028000    -24.951000     -4.306000
C          27.353000    -26.009000     -3.716000
C          21.432000    -20.654000    -17.970000
H          21.061000    -23.251000    -16.954000
H          21.993000    -24.043000    -14.732000
H          24.115000    -20.465000    -14.354000
H          21.625000    -23.497000    -12.310000
H          21.295000    -26.912000     -6.897000
H          23.555000    -26.538000     -5.477000
H          28.798000    -24.326000     -3.873000
H          27.551000    -26.550000     -2.800000
H          22.218000    -20.023000    -18.403000
C          20.089000    -19.839000    -17.803000
H          21.202000    -21.343000    -18.792000
H          20.044000    -19.062000    -18.576000
H          20.120000    -19.289000    -16.855000
C          18.789000    -20.774000    -17.748000
H          18.843000    -21.468000    -18.596000
C          17.440000    -20.017000    -17.563000
H          18.888000    -21.299000    -16.790000
H          17.280000    -19.405000    -18.459000
H          17.659000    -19.491000    -16.625000
C          16.208000    -20.927000    -17.519000
H          16.270000    -21.612000    -18.373000
C          14.787000    -20.352000    -17.521000
H          16.374000    -21.639000    -16.701000
H          13.987000    -21.102000    -17.555000
H          14.576000    -19.760000    -18.420000
H          14.584000    -19.655000    -16.699000
C          19.032000    -26.672000    -12.363000
C          18.207000    -27.769000    -12.200000
N          19.254000    -25.701000    -11.467000
C          17.495000    -27.940000    -11.041000
C          18.631000    -25.912000    -10.281000
C          17.738000    -26.963000     -9.928000
C          17.122000    -27.181000     -8.573000
C          16.004000    -27.932000     -8.428000
C          17.690000    -26.679000     -7.329000
N          15.373000    -28.087000     -7.251000
N          18.722000    -25.838000     -7.275000
C          17.106000    -26.943000     -6.082000
C          15.902000    -27.728000     -6.090000
S          18.976000    -25.514000     -5.663000
N          17.791000    -26.429000     -5.060000
C          15.087000    -28.044000     -4.877000
S          15.600000    -27.843000     -3.180000
C          13.829000    -28.562000     -4.898000
C          14.100000    -28.532000     -2.570000
S          12.797000    -29.024000     -6.222000
C          13.323000    -28.850000     -3.624000
C          13.744000    -28.647000     -1.118000
C          11.573000    -29.502000     -4.994000
C          12.007000    -29.370000     -3.698000
N          12.533000    -29.035000     -0.755000
S          14.830000    -28.046000      0.128000
C          12.393000    -28.783000      0.609000
C          13.557000    -28.396000      1.275000
C          19.700000    -26.539000    -13.749000
H          18.086000    -28.401000    -13.075000
H          16.757000    -28.716000    -10.865000
H          18.862000    -25.151000     -9.538000
H          15.484000    -28.460000     -9.227000
H          10.602000    -29.852000     -5.320000
H          11.296000    -29.662000     -2.934000
H          11.508000    -28.951000      1.208000
H          13.660000    -28.094000      2.308000
H          20.576000    -25.886000    -13.646000
C          18.698000    -26.028000    -14.844000
H          19.999000    -27.529000    -14.115000
H          18.444000    -24.977000    -14.656000
H          17.779000    -26.624000    -14.887000
C          19.297000    -26.142000    -16.287000
H          19.996000    -25.298000    -16.325000
C          18.224000    -26.107000    -17.439000
H          19.843000    -27.081000    -16.434000
H          17.422000    -26.798000    -17.152000
H          18.780000    -26.262000    -18.372000
C          17.526000    -24.767000    -17.655000
H          17.022000    -24.461000    -16.730000
C          16.467000    -24.878000    -18.689000
H          18.194000    -23.920000    -17.852000
H          15.631000    -25.529000    -18.407000
H          16.881000    -25.171000    -19.662000
H          16.016000    -23.895000    -18.874000
$end

--------------------------------------------------------------

             Standard Nuclear Orientation (Angstroms)
    I     Atom           X                Y                Z
 ----------------------------------------------------------------
    1      C      -8.3889803875    -1.7685668977     0.9712506703
    2      C      -7.4592309896    -1.8931493521    -0.0539757775
    3      N      -8.5873560295    -0.5869737752     1.6381380652
    4      C      -6.5776515870    -0.7840293897    -0.2720690279
    5      C      -7.6900952424     0.3959546457     1.3951693443
    6      C      -6.6268668131     0.3939784960     0.4888253688
    7      C      -5.5819769001     1.4907501004     0.4317016659
    8      C      -4.2131427530     1.1648524384     0.2772419895
    9      C      -5.8348752746     2.8677539260     0.4616495592
   10      N      -3.2413366996     2.0368077938     0.2059618879
   11      N      -7.0821372933     3.3731015712     0.6824938808
   12      C      -4.8669925516     3.7937181297     0.1580127238
   13      C      -3.5538419294     3.3318622120     0.0576057784
   14      S      -6.9497040037     4.9308029214     0.5822345806
   15      N      -5.2837844665     5.0557436746     0.2914444437
   16      C      -2.4358641158     4.2733214840    -0.0178001069
   17      S      -2.5764563612     6.0806331093     0.0497314386
   18      C      -1.1596643905     3.9305396453    -0.4262849563
   19      C      -0.8368094916     6.2743951147    -0.2635512684
   20      S      -0.4659812662     2.3751727174    -0.6885890590
   21      C      -0.3055800780     5.0405538205    -0.4943108205
   22      C      -0.1691001539     7.4864765791    -0.2699359350
   23      C       1.0591842929     3.1701322414    -0.9789739288
   24      C       0.9884207774     4.5743764071    -0.8585503096
   25      N      -0.7625923257     8.5504152616     0.2475681924
   26      S       1.3495661258     7.7193521332    -1.0685996359
   27      C       0.1206954771     9.6831903593     0.1259037548
   28      C       1.3120387554     9.3724929952    -0.5122634185
   29      C      -9.3973324573    -2.8409389034     1.2348002572
   30      H      -7.4125222428    -2.7214490246    -0.7553144585
   31      H      -5.7637448269    -0.8084620457    -0.9902311484
   32      H      -7.8236130875     1.3201317176     1.9549145764
   33      H      -3.8706727835     0.1338510964     0.3617851904
   34      H       1.9212847990     2.5150619989    -1.0001090790
   35      H       1.8659283277     5.1939941167    -0.7100498278
   36      H      -0.1307372374    10.5857223716     0.6674123484
   37      H       2.1605866599     9.9944741609    -0.7653382758
   38      H     -10.3498665508    -2.3681299737     1.5042005480
   39      C      -8.9576846193    -3.8820562775     2.3386785982
   40      H      -9.6813925123    -3.4813485738     0.3907088290
   41      H      -9.8538627712    -4.2919655306     2.8204691380
   42      H      -8.4273997761    -3.3523048433     3.1388825741
   43      C      -7.9520190132    -4.9993067424     1.7840272775
   44      H      -8.3861906740    -5.4094600679     0.8637418769
   45      C      -7.4728450983    -6.0381969052     2.8414650245
   46      H      -7.0303495042    -4.4402643493     1.5810816718
   47      H      -8.3503900667    -6.6150615904     3.1578539678
   48      H      -7.0281884575    -5.3529860400     3.5744367443
   49      C      -6.5170429611    -7.1019283685     2.2912126747
   50      H      -6.9631760128    -7.5080034253     1.3755416921
   51      C      -6.0836488788    -8.3041978548     3.1377276786
   52      H      -5.6659552648    -6.5630537447     1.8566003497
   53      H      -5.4515613167    -9.0320474424     2.6139373658
   54      H      -6.9322955593    -8.9270048409     3.4461045093
   55      H      -5.6025149938    -8.0351437661     4.0857899561
   56      C      -1.4891215917    -2.2196523309    -2.0038687443
   57      C      -0.5542933127    -2.8790723562    -2.7796678928
   58      N      -1.2511057511    -1.5392295893    -0.8745705762
   59      C       0.7661400922    -2.9018177978    -2.4116947033
   60      C       0.0651777750    -1.4730336159    -0.5547866304
   61      C       1.1653796275    -2.0920140528    -1.2128733288
   62      C       2.6160533400    -1.9334557026    -0.8476199518
   63      C       3.5384357429    -2.8425512284    -1.2447421342
   64      C       3.1529424416    -0.7927272130    -0.1177894197
   65      N       4.8296220396    -2.7860505482    -0.8743901118
   66      N       2.3944604423     0.1473699910     0.4444768017
   67      C       4.5203506079    -0.6634964350     0.1637337815
   68      C       5.3734573604    -1.7258612050    -0.2939724170
   69      S       3.4389906141     1.2014791510     1.1967045592
   70      N       4.8212854395     0.4642966934     0.8082691854
   71      C       6.8405706683    -1.8139514998    -0.0196211063
   72      S       7.8807004933    -0.4979301151     0.5883235147
   73      C       7.6052274904    -2.9208279481    -0.2232223653
   74      C       9.3269857368    -1.4946783101     0.4807454967
   75      S       7.2035241482    -4.4994825290    -0.8379809677
   76      C       8.9673964102    -2.7115873045     0.0273174257
   77      C      10.6951654712    -1.0600139297     0.9136612977
   78      C       8.9341943017    -4.9360536492    -0.6170047773
   79      C       9.7173227262    -3.8954557390    -0.1819624114
   80      N      11.6945043993    -1.9256988325     0.9409625019
   81      S      10.9559943620     0.5294467795     1.6198453699
   82      C      12.7509553404    -1.3390676410     1.6362144377
   83      C      12.5952531222     0.0133982052     1.9441331834
   84      C      -2.9557817227    -2.3521677004    -2.4689028688
   85      H      -0.9530499059    -3.4512744452    -3.6122950295
   86      H       1.5472584382    -3.4697031181    -2.9068274052
   87      H       0.2579199131    -0.8699468406     0.3304635093
   88      H       3.3446664596    -3.7149417747    -1.8684192939
   89      H       9.2578475617    -5.9475263728    -0.8262617882
   90      H      10.7686301552    -4.1235470500    -0.0507829782
   91      H      13.7031149281    -1.7970739353     1.8683186252
   92      H      13.2558179012     0.6405986898     2.5265211339
   93      H      -3.5304822035    -1.5268302088    -2.0296633187
   94      C      -3.5639998603    -3.7568137290    -2.1207789950
   95      H      -3.0041690089    -2.3145460836    -3.5642111745
   96      H      -3.7020641358    -3.8450633207    -1.0356010071
   97      H      -2.9435155708    -4.5865042749    -2.4788835109
   98      C      -4.9489552707    -3.9856030734    -2.8161925031
   99      H      -5.6281107115    -3.3783292290    -2.2059897784
  100      C      -5.3861746529    -5.4955230088    -2.9091387259
  101      H      -4.9563593150    -3.6221864944    -3.8502715959
  102      H      -4.5196529772    -6.0587665563    -3.2764953534
  103      H      -6.3282615348    -5.5012506510    -3.4713571008
  104      C      -5.7530582297    -6.1625974852    -1.5863129309
  105      H      -4.8996659752    -6.1115380028    -0.8990054384
  106      C      -6.0462011028    -7.6046954006    -1.7796490591
  107      H      -6.5459821965    -5.6632876357    -1.0167488370
  108      H      -5.1833899781    -8.1984077266    -2.1041234601
  109      H      -6.9013279040    -7.7571714180    -2.4500841552
  110      H      -6.3647509356    -8.0552626350    -0.8312661347
 ----------------------------------------------------------------

    9   -5663.5298104958      6.27E-06 Convergence criterion met
 Total energy in the final basis set = -5663.5298104958

                    Orbital Energies (a.u.)
 --------------------------------------------------------------

 Alpha MOs
 -- Occupied --
-88.993 -88.987 -88.930 -88.925 -88.922 -88.915 -88.909 -88.907
-14.392 -14.385 -14.381 -14.379 -14.353 -14.351 -14.344 -14.340
-14.337 -14.329 -10.279 -10.271 -10.262 -10.261 -10.259 -10.254
-10.249 -10.245 -10.244 -10.244 -10.241 -10.238 -10.234 -10.233
-10.233 -10.233 -10.231 -10.231 -10.230 -10.228 -10.228 -10.228
-10.228 -10.225 -10.224 -10.224 -10.221 -10.221 -10.221 -10.218
-10.211 -10.209 -10.207 -10.202 -10.200 -10.200 -10.200 -10.194
-10.193 -10.190 -10.185 -10.185 -10.185 -10.183 -10.183 -10.180
-10.180 -10.175 -10.175 -10.171  -8.049  -8.043  -7.991  -7.985
 -7.984  -7.973  -7.969  -7.967  -6.014  -6.008  -6.008  -6.006
 -6.002  -6.001  -5.955  -5.952  -5.949  -5.948  -5.948  -5.945
 -5.945  -5.941  -5.941  -5.937  -5.934  -5.933  -5.932  -5.930
 -5.929  -5.928  -5.925  -5.924  -1.046  -1.041  -0.969  -0.968
 -0.968  -0.957  -0.942  -0.930  -0.918  -0.910  -0.909  -0.902
 -0.843  -0.839  -0.834  -0.832  -0.813  -0.810  -0.810  -0.807
 -0.803  -0.800  -0.800  -0.795  -0.790  -0.781  -0.773  -0.762
 -0.751  -0.746  -0.743  -0.739  -0.724  -0.717  -0.714  -0.710
 -0.699  -0.693  -0.681  -0.676  -0.658  -0.655  -0.647  -0.641
 -0.638  -0.636  -0.626  -0.624  -0.613  -0.608  -0.600  -0.597
 -0.593  -0.592  -0.589  -0.582  -0.581  -0.574  -0.568  -0.563
 -0.556  -0.549  -0.543  -0.539  -0.529  -0.520  -0.515  -0.512
 -0.510  -0.505  -0.502  -0.491  -0.488  -0.483  -0.482  -0.481
 -0.479  -0.474  -0.474  -0.470  -0.467  -0.464  -0.458  -0.452
 -0.446  -0.437  -0.436  -0.435  -0.433  -0.433  -0.432  -0.430
 -0.429  -0.428  -0.427  -0.423  -0.420  -0.418  -0.416  -0.412
 -0.410  -0.409  -0.407  -0.404  -0.403  -0.402  -0.401  -0.395
 -0.395  -0.394  -0.392  -0.390  -0.389  -0.389  -0.384  -0.377
 -0.376  -0.376  -0.373  -0.372  -0.368  -0.365  -0.362  -0.357
 -0.355  -0.353  -0.352  -0.347  -0.346  -0.345  -0.340  -0.338
 -0.336  -0.335  -0.333  -0.330  -0.329  -0.328  -0.324  -0.321
 -0.316  -0.313  -0.311  -0.308  -0.306  -0.306  -0.304  -0.302
 -0.301  -0.298  -0.295  -0.293  -0.288  -0.285  -0.278  -0.277
 -0.276  -0.276  -0.273  -0.262  -0.261  -0.255  -0.253  -0.252
 -0.248  -0.242  -0.235  -0.230  -0.200  -0.189

          Ground-State Mulliken Net Atomic Charges

     Atom                 Charge (a.u.)
  ----------------------------------------
      1 C                     0.270338
      2 C                    -0.113798
      3 N                    -0.480533
      4 C                    -0.112598
      5 C                     0.073484
      6 C                     0.080531
      7 C                     0.017019
      8 C                     0.041892
      9 C                     0.188381
     10 N                    -0.492968
     11 N                    -0.516019
     12 C                     0.255345
     13 C                     0.278568
     14 S                     0.609486
     15 N                    -0.579876
     16 C                    -0.228686
     17 S                     0.356268
     18 C                    -0.131300
     19 C                    -0.207734
     20 S                     0.326901
     21 C                     0.150268
     22 C                     0.063939
     23 C                    -0.318659
     24 C                    -0.106174
     25 N                    -0.447200
     26 S                     0.273583
     27 C                     0.105938
     28 C                    -0.302996
     29 C                    -0.237118
     30 H                     0.103039
     31 H                     0.094001
     32 H                     0.108829
     33 H                     0.128295
     34 H                     0.128460
     35 H                     0.109309
     36 H                     0.120619
     37 H                     0.133347
     38 H                     0.119309
     39 C                    -0.191739
     40 H                     0.098382
     41 H                     0.095418
     42 H                     0.104997
     43 C                    -0.192357
     44 H                     0.087917
     45 C                    -0.166146
     46 H                     0.100795
     47 H                     0.091711
     48 H                     0.097162
     49 C                    -0.181651
     50 H                     0.098934
     51 C                    -0.323783
     52 H                     0.091418
     53 H                     0.104696
     54 H                     0.100788
     55 H                     0.104750
     56 C                     0.280462
     57 C                    -0.095499
     58 N                    -0.486468
     59 C                    -0.069085
     60 C                     0.065574
     61 C                     0.015378
     62 C                     0.084322
     63 C                     0.037206
     64 C                     0.230666
     65 N                    -0.537448
     66 N                    -0.575823
     67 C                     0.216545
     68 C                     0.327063
     69 S                     0.604711
     70 N                    -0.557606
     71 C                    -0.237687
     72 S                     0.301976
     73 C                    -0.085154
     74 C                    -0.242830
     75 S                     0.272374
     76 C                     0.154257
     77 C                     0.078398
     78 C                    -0.310783
     79 C                    -0.046825
     80 N                    -0.437995
     81 S                     0.271825
     82 C                     0.114301
     83 C                    -0.300515
     84 C                    -0.244669
     85 H                     0.092654
     86 H                     0.099070
     87 H                     0.130339
     88 H                     0.114904
     89 H                     0.123629
     90 H                     0.131642
     91 H                     0.118068
     92 H                     0.135583
     93 H                     0.117774
     94 C                    -0.180185
     95 H                     0.102566
     96 H                     0.112343
     97 H                     0.090107
     98 C                    -0.194614
     99 H                     0.097404
    100 C                    -0.166206
    101 H                     0.089509
    102 H                     0.093217
    103 H                     0.094074
    104 C                    -0.185648
    105 H                     0.094562
    106 C                    -0.317790
    107 H                     0.096693
    108 H                     0.101576
    109 H                     0.097979
    110 H                     0.101299
  ----------------------------------------
  Sum of atomic charges =     0.000000

                    Cartesian Multipole Moments
 -----------------------------------------------------------------
    Charge (ESU x 10^10)
                 0.0000
    Dipole Moment (Debye)
         X       4.7144      Y      -1.5759      Z      -1.7248
       Tot       5.2615
    Quadrupole Moments (Debye-Ang)
        XX    -412.8029     XY      26.0326     YY    -416.5843
        XZ      25.7758     YZ       9.8711     ZZ    -444.8489

 Total job time:  84.78s(wall), 1013.13s(cpu)
        *  Thank you very much for using Q-Chem.  Have a nice day.  *
