 Q-Chem 4.4, Q-Chem, Inc., Pleasanton, CA (2016)
 Q-Chem 4.4.2 for Intel X86 Linux

User input:
--------------------------------------------------------------
$comment
SP
$end

$rem
MEM_STATIC 5000
MEM_TOTAL 20000
JOBTYPE SP
EXCHANGE B3LYP
BASIS 6-31g(d,p)
$end

$molecule
0 1
C          15.355000    -24.362000    -11.115000
C          15.660000    -23.364000    -10.193000
N          14.691000    -25.501000    -10.778000
C          15.254000    -23.529000     -8.862000
C          14.321000    -25.612000     -9.535000
C          14.514000    -24.659000     -8.482000
C          13.968000    -24.882000     -7.112000
C          12.738000    -25.498000     -7.009000
C          14.486000    -24.483000     -5.864000
N          12.069000    -25.749000     -5.831000
N          15.627000    -23.780000     -5.744000
C          13.820000    -24.691000     -4.623000
C          12.659000    -25.474000     -4.636000
S          15.917000    -23.599000     -4.119000
N          14.486000    -24.217000     -3.555000
C          11.897000    -25.778000     -3.414000
S          12.412000    -25.320000     -1.796000
C          10.640000    -26.408000     -3.379000
C          10.933000    -26.047000     -1.079000
S           9.535000    -26.902000     -4.671000
C          10.137000    -26.539000     -2.068000
C          10.493000    -25.982000      0.336000
C           8.345000    -27.074000     -3.378000
C           8.800000    -26.928000     -2.103000
N           9.652000    -26.879000      0.827000
S          11.200000    -24.982000      1.556000
C           9.671000    -26.970000      2.177000
C          10.307000    -25.913000      2.769000
C          15.820000    -24.316000    -12.515000
H          16.079000    -22.419000    -10.525000
H          15.393000    -22.664000     -8.220000
H          13.766000    -26.523000     -9.313000
H          12.254000    -25.827000     -7.927000
H           7.362000    -27.383000     -3.709000
H           8.124000    -26.830000     -1.262000
H           9.053000    -27.700000      2.683000
H          10.207000    -25.605000      3.801000
H          16.647000    -23.602000    -12.622000
C          14.675000    -24.036000    -13.516000
H          16.206000    -25.329000    -12.677000
H          14.283000    -23.021000    -13.369000
H          13.801000    -24.663000    -13.301000
C          15.037000    -24.177000    -15.006000
H          15.898000    -23.525000    -15.201000
C          13.924000    -23.945000    -15.972000
H          15.479000    -25.166000    -15.174000
H          14.339000    -24.121000    -16.972000
H          13.633000    -22.889000    -15.899000
C          12.629000    -24.896000    -15.780000
H          12.078000    -24.788000    -14.837000
C          12.993000    -26.324000    -15.840000
H          11.959000    -24.650000    -16.613000
H          12.114000    -26.973000    -15.936000
H          13.566000    -26.642000    -14.960000
H          13.572000    -26.581000    -16.736000
C          19.032000    -26.672000    -12.363000
C          18.207000    -27.769000    -12.200000
N          19.254000    -25.701000    -11.467000
C          17.495000    -27.940000    -11.041000
C          18.631000    -25.912000    -10.281000
C          17.738000    -26.963000     -9.928000
C          17.122000    -27.181000     -8.573000
C          16.004000    -27.932000     -8.428000
C          17.690000    -26.679000     -7.329000
N          15.373000    -28.087000     -7.251000
N          18.722000    -25.838000     -7.275000
C          17.106000    -26.943000     -6.082000
C          15.902000    -27.728000     -6.090000
S          18.976000    -25.514000     -5.663000
N          17.791000    -26.429000     -5.060000
C          15.087000    -28.044000     -4.877000
S          15.600000    -27.843000     -3.180000
C          13.829000    -28.562000     -4.898000
C          14.100000    -28.532000     -2.570000
S          12.797000    -29.024000     -6.222000
C          13.323000    -28.850000     -3.624000
C          13.744000    -28.647000     -1.118000
C          11.573000    -29.502000     -4.994000
C          12.007000    -29.370000     -3.698000
N          12.533000    -29.035000     -0.755000
S          14.830000    -28.046000      0.128000
C          12.393000    -28.783000      0.609000
C          13.557000    -28.396000      1.275000
C          19.700000    -26.539000    -13.749000
H          18.086000    -28.401000    -13.075000
H          16.757000    -28.716000    -10.865000
H          18.862000    -25.151000     -9.538000
H          15.484000    -28.460000     -9.227000
H          10.602000    -29.852000     -5.320000
H          11.296000    -29.662000     -2.934000
H          11.508000    -28.951000      1.208000
H          13.660000    -28.094000      2.308000
H          20.576000    -25.886000    -13.646000
C          18.698000    -26.028000    -14.844000
H          19.999000    -27.529000    -14.115000
H          18.444000    -24.977000    -14.656000
H          17.779000    -26.624000    -14.887000
C          19.297000    -26.142000    -16.287000
H          19.996000    -25.298000    -16.325000
C          18.224000    -26.107000    -17.439000
H          19.843000    -27.081000    -16.434000
H          17.422000    -26.798000    -17.152000
H          18.780000    -26.262000    -18.372000
C          17.526000    -24.767000    -17.655000
H          17.022000    -24.461000    -16.730000
C          16.467000    -24.878000    -18.689000
H          18.194000    -23.920000    -17.852000
H          15.631000    -25.529000    -18.407000
H          16.881000    -25.171000    -19.662000
H          16.016000    -23.895000    -18.874000
$end

--------------------------------------------------------------

             Standard Nuclear Orientation (Angstroms)
    I     Atom           X                Y                Z
 ----------------------------------------------------------------
    1      C      -4.6194992929     0.8303102210    -1.3950031386
    2      C      -3.9612211445     0.3501965154    -2.5242833116
    3      N      -3.9646618556     1.2125976312    -0.2650339944
    4      C      -2.5623584277     0.2697795497    -2.5058927944
    5      C      -2.6656729532     1.1337496713    -0.2911267260
    6      C      -1.8421631679     0.7099669186    -1.3849762641
    7      C      -0.3531184974     0.7412097917    -1.3042616291
    8      C       0.2258265640     1.7899065985    -0.6201398394
    9      C       0.5956013531    -0.1137960865    -1.8991772480
   10      N       1.5804856525     1.9969882777    -0.4777954258
   11      N       0.2469302910    -1.1434751311    -2.6920704032
   12      C       2.0038438383     0.0743650890    -1.8078017871
   13      C       2.4672080295     1.0782657060    -0.9483506963
   14      S       1.6475179406    -1.9346176619    -3.1043005958
   15      N       2.7262527498    -0.8510476388    -2.4639973735
   16      C       3.9001000002     1.3518895208    -0.7526606143
   17      S       5.1896570186     0.3833889278    -1.4540608550
   18      C       4.4261693570     2.4468937889    -0.0438653796
   19      C       6.4385183924     1.4488728299    -0.7225225283
   20      S       3.6471239849     3.8556155733     0.6929631229
   21      C       5.8362839800     2.4677737066    -0.0495026801
   22      C       7.9048547382     1.3981626493    -0.9400913642
   23      C       5.2801931062     4.5212774182     0.7796381082
   24      C       6.3006746003     3.6879567361     0.4358937830
   25      N       8.7404386349     1.9221709735    -0.0568100795
   26      S       8.7033623335     0.4427917681    -2.1392165035
   27      C      10.0039297835     1.4457081058    -0.1446465931
   28      C      10.2345644121     0.7718402312    -1.3129439677
   29      C      -6.0913371013     0.8650608285    -1.2909509355
   30      H      -4.5082101137     0.1739616886    -3.4454534117
   31      H      -2.0955690488     0.0232447746    -3.4551231565
   32      H      -2.1781197889     1.4777042428     0.6205843931
   33      H      -0.4331998423     2.5112867098    -0.1400190934
   34      H       5.3387391639     5.5172241077     1.1991539608
   35      H       7.3085603550     4.0526490566     0.2776951203
   36      H      10.7605560391     1.7745983154     0.5555019193
   37      H      11.2025350842     0.5571696299    -1.7451907849
   38      H      -6.5453919217     0.2060945266    -2.0424638316
   39      C      -6.6610803847     2.3012937923    -1.3546177613
   40      H      -6.2753173419     0.4438780963    -0.2958803967
   41      H      -6.4892500183     2.7333028212    -2.3492737441
   42      H      -6.0985854066     2.9781468520    -0.6998664076
   43      C      -8.1632238636     2.4414532444    -1.0464858145
   44      H      -8.7050388133     1.7729320895    -1.7276363307
   45      C      -8.7065248911     3.8307121406    -1.0695663854
   46      H      -8.3743882574     1.9725070697    -0.0783907344
   47      H      -9.7656932788     3.7545349574    -0.7946839319
   48      H      -8.6425135331     4.1973083514    -2.1023566663
   49      C      -7.9891392154     4.8731831912    -0.0611508457
   50      H      -6.9298506463     5.0880450788    -0.2515611835
   51      C      -8.0294089869     4.3922218978     1.3325257953
   52      H      -8.5615890631     5.8049450552    -0.1473250914
   53      H      -7.7535387226     5.1746075517     2.0500397574
   54      H      -7.3726796838     3.5276228767     1.4907286876
   55      H      -9.0397237446     4.1188293535     1.6621113034
   56      C      -6.8193871619    -2.4575397680     0.7877631827
   57      C      -6.2759783299    -1.8619620875     1.9105263223
   58      N      -6.1542563077    -2.8543093820    -0.3054503464
   59      C      -4.9321937449    -1.5993343900     1.9793426119
   60      C      -4.8118487682    -2.6884839986    -0.2070128525
   61      C      -4.0721582039    -2.0871867498     0.8503227080
   62      C      -2.5735987055    -1.9848435406     0.9330892319
   63      C      -1.9805523593    -1.0701162958     1.7371539673
   64      C      -1.6559184920    -2.8738067366     0.2332524926
   65      N      -0.6493234523    -0.8875344793     1.7819700091
   66      N      -2.0424343570    -3.7640168294    -0.6796289218
   67      C      -0.2646912249    -2.7707085986     0.3733184248
   68      C       0.2182950671    -1.7284222926     1.2371867585
   69      S      -0.6557247387    -4.5011035929    -1.2289699247
   70      N       0.4042887744    -3.6941523979    -0.3177838180
   71      C       1.6621480353    -1.4035170835     1.4497313689
   72      S       3.0515035164    -2.4251834859     0.9922730548
   73      C       2.1252170871    -0.2764242146     2.0551714718
   74      C       4.2038775561    -1.3002292119     1.7017326761
   75      S       1.2880794634     1.0781467153     2.7592894980
   76      C       3.5172655278    -0.2580338835     2.2098289467
   77      C       5.6936853045    -1.4620670151     1.6512708262
   78      C       2.9022426995     1.7629587429     3.1594813696
   79      C       3.9509253400     0.9407603489     2.8283461699
   80      N       6.4865182275    -0.4919911751     2.0745943677
   81      S       6.4257403317    -2.8257248947     0.8160189933
   82      C       7.7838546370    -0.7857660790     1.6572042071
   83      C       7.9684445419    -2.0537730992     1.1037552359
   84      C      -8.3563731602    -2.6078078675     0.7893566553
   85      H      -6.9895445878    -1.5287758631     2.6585237391
   86      H      -4.4381161578    -1.0535878265     2.7767408978
   87      H      -4.2720370318    -3.0663843522    -1.0732262281
   88      H      -2.4964633146    -0.3768496059     2.4010833182
   89      H       2.9653807576     2.7414123247     3.6180216339
   90      H       4.9373140744     1.3201142466     3.0683646796
   91      H       8.6636044036    -0.1747493653     1.8086932289
   92      H       8.8682852630    -2.4595637224     0.6627080197
   93      H      -8.6250693307    -3.3892611774     0.0671883284
   94      C      -9.0857463597    -1.2483898768     0.4992748350
   95      H      -8.7033250424    -2.8771662805     1.7946065928
   96      H      -8.9265157684    -0.9552087340    -0.5462639908
   97      H      -8.7518643675    -0.4402114960     1.1603319581
   98      C     -10.6279680988    -1.3427763635     0.7575175476
   99      H     -10.9864555804    -1.8902232792    -0.1223515336
  100      C     -11.3393314632     0.0487385899     0.9506659320
  101      H     -10.8601272256    -1.9104957711     1.6659463087
  102      H     -10.7279811809     0.6270722279     1.6541110511
  103      H     -12.3863645161    -0.1793939616     1.1858835438
  104      C     -11.4336014552     0.9243289328    -0.2958952258
  105      H     -10.4267593198     1.1233379506    -0.6831178043
  106      C     -12.0251610656     2.2471744202     0.0251889433
  107      H     -11.9302706754     0.4590707169    -1.1557187415
  108      H     -11.4107554393     2.8634927809     0.6921810007
  109      H     -13.0472394651     2.1498553472     0.4123048734
  110      H     -12.1400576090     2.8411444785    -0.8901871292
 ----------------------------------------------------------------

   10   -5663.5389867420      8.09E-06 Convergence criterion met
 Total energy in the final basis set = -5663.5389867420

                    Orbital Energies (a.u.)
 --------------------------------------------------------------

 Alpha MOs
 -- Occupied --
-88.986 -88.983 -88.927 -88.924 -88.922 -88.919 -88.907 -88.901
-14.384 -14.383 -14.378 -14.376 -14.345 -14.345 -14.344 -14.338
-14.328 -14.325 -10.272 -10.271 -10.264 -10.258 -10.254 -10.253
-10.252 -10.251 -10.240 -10.238 -10.237 -10.237 -10.232 -10.232
-10.232 -10.232 -10.228 -10.227 -10.226 -10.224 -10.224 -10.222
-10.221 -10.221 -10.220 -10.218 -10.217 -10.217 -10.216 -10.213
-10.212 -10.205 -10.200 -10.199 -10.193 -10.192 -10.187 -10.186
-10.184 -10.183 -10.179 -10.179 -10.178 -10.177 -10.177 -10.176
-10.171 -10.170 -10.168 -10.165  -8.041  -8.038  -7.988  -7.983
 -7.982  -7.978  -7.966  -7.960  -6.006  -6.003  -6.001  -5.998
 -5.997  -5.995  -5.951  -5.948  -5.947  -5.946  -5.945  -5.944
 -5.942  -5.942  -5.940  -5.938  -5.938  -5.934  -5.930  -5.927
 -5.924  -5.922  -5.921  -5.916  -1.038  -1.025  -0.973  -0.962
 -0.960  -0.946  -0.943  -0.935  -0.911  -0.907  -0.902  -0.897
 -0.840  -0.835  -0.827  -0.824  -0.807  -0.805  -0.804  -0.802
 -0.800  -0.800  -0.794  -0.793  -0.786  -0.783  -0.769  -0.766
 -0.750  -0.745  -0.742  -0.735  -0.719  -0.717  -0.712  -0.707
 -0.694  -0.691  -0.673  -0.671  -0.652  -0.651  -0.642  -0.639
 -0.631  -0.630  -0.621  -0.618  -0.610  -0.606  -0.597  -0.593
 -0.591  -0.585  -0.584  -0.581  -0.576  -0.574  -0.560  -0.551
 -0.549  -0.548  -0.541  -0.535  -0.521  -0.520  -0.509  -0.507
 -0.502  -0.501  -0.497  -0.494  -0.489  -0.480  -0.479  -0.475
 -0.473  -0.470  -0.464  -0.462  -0.461  -0.459  -0.455  -0.450
 -0.445  -0.444  -0.442  -0.434  -0.430  -0.429  -0.427  -0.425
 -0.424  -0.421  -0.420  -0.419  -0.418  -0.416  -0.415  -0.411
 -0.408  -0.407  -0.401  -0.400  -0.399  -0.396  -0.395  -0.394
 -0.393  -0.391  -0.388  -0.387  -0.383  -0.383  -0.383  -0.379
 -0.378  -0.369  -0.367  -0.367  -0.366  -0.361  -0.359  -0.357
 -0.354  -0.350  -0.347  -0.346  -0.344  -0.339  -0.338  -0.336
 -0.333  -0.332  -0.331  -0.330  -0.326  -0.325  -0.319  -0.316
 -0.311  -0.308  -0.306  -0.305  -0.305  -0.301  -0.297  -0.296
 -0.294  -0.292  -0.290  -0.287  -0.285  -0.282  -0.278  -0.275
 -0.270  -0.268  -0.267  -0.264  -0.255  -0.254  -0.253  -0.250
 -0.238  -0.238  -0.234  -0.217  -0.196  -0.186

          Ground-State Mulliken Net Atomic Charges

     Atom                 Charge (a.u.)
  ----------------------------------------
      1 C                     0.264402
      2 C                    -0.117661
      3 N                    -0.473974
      4 C                    -0.068175
      5 C                     0.071159
      6 C                     0.028348
      7 C                     0.089420
      8 C                     0.053852
      9 C                     0.192863
     10 N                    -0.528776
     11 N                    -0.578694
     12 C                     0.243072
     13 C                     0.329168
     14 S                     0.596988
     15 N                    -0.579837
     16 C                    -0.242229
     17 S                     0.338901
     18 C                    -0.105943
     19 C                    -0.216839
     20 S                     0.286659
     21 C                     0.168986
     22 C                     0.033244
     23 C                    -0.309528
     24 C                    -0.049009
     25 N                    -0.417825
     26 S                     0.257099
     27 C                     0.112446
     28 C                    -0.312931
     29 C                    -0.229964
     30 H                     0.093419
     31 H                     0.107973
     32 H                     0.100527
     33 H                     0.114432
     34 H                     0.120974
     35 H                     0.116980
     36 H                     0.118149
     37 H                     0.133896
     38 H                     0.099694
     39 C                    -0.181471
     40 H                     0.127935
     41 H                     0.085165
     42 H                     0.111946
     43 C                    -0.179664
     44 H                     0.092062
     45 C                    -0.185648
     46 H                     0.095073
     47 H                     0.097654
     48 H                     0.087054
     49 C                    -0.177105
     50 H                     0.099942
     51 C                    -0.316105
     52 H                     0.091303
     53 H                     0.096114
     54 H                     0.112310
     55 H                     0.095795
     56 C                     0.275745
     57 C                    -0.100148
     58 N                    -0.488079
     59 C                    -0.060310
     60 C                     0.063389
     61 C                     0.026311
     62 C                     0.089564
     63 C                     0.026575
     64 C                     0.234194
     65 N                    -0.536721
     66 N                    -0.564022
     67 C                     0.227675
     68 C                     0.323482
     69 S                     0.594409
     70 N                    -0.575951
     71 C                    -0.246386
     72 S                     0.292975
     73 C                    -0.088147
     74 C                    -0.243086
     75 S                     0.270697
     76 C                     0.159201
     77 C                     0.081230
     78 C                    -0.298556
     79 C                    -0.050356
     80 N                    -0.435652
     81 S                     0.264341
     82 C                     0.120706
     83 C                    -0.303245
     84 C                    -0.234604
     85 H                     0.090713
     86 H                     0.099062
     87 H                     0.122047
     88 H                     0.120193
     89 H                     0.124203
     90 H                     0.136503
     91 H                     0.120644
     92 H                     0.132789
     93 H                     0.114372
     94 C                    -0.185002
     95 H                     0.099013
     96 H                     0.112641
     97 H                     0.092494
     98 C                    -0.185189
     99 H                     0.094009
    100 C                    -0.166704
    101 H                     0.087085
    102 H                     0.092243
    103 H                     0.093286
    104 C                    -0.187372
    105 H                     0.100235
    106 C                    -0.312813
    107 H                     0.089158
    108 H                     0.105839
    109 H                     0.094972
    110 H                     0.096717
  ----------------------------------------
  Sum of atomic charges =     0.000000

                    Cartesian Multipole Moments
 -----------------------------------------------------------------
    Charge (ESU x 10^10)
                 0.0000
    Dipole Moment (Debye)
         X       2.6043      Y       0.3381      Z      -1.0169
       Tot       2.8162
    Quadrupole Moments (Debye-Ang)
        XX    -384.3211     XY      -6.9184     YY    -441.7224
        XZ     -11.5224     YZ       8.8516     ZZ    -441.0031

 Total job time:  128.29s(wall), 1536.45s(cpu)
        *  Thank you very much for using Q-Chem.  Have a nice day.  *
