 Q-Chem 4.4, Q-Chem, Inc., Pleasanton, CA (2016)
 Q-Chem 4.4.2 for Intel X86 Linux

User input:
--------------------------------------------------------------
$comment
SP
$end

$rem
MEM_STATIC 5000
MEM_TOTAL 20000
JOBTYPE SP
EXCHANGE B3LYP
BASIS 6-31g(d,p)
$end

$molecule
0 1
C          -6.718000     27.930000      8.912000
C          -5.582000     27.462000      8.209000
N          -6.752000     28.045000     10.256000
C          -4.464000     27.039000      8.961000
C          -5.666000     27.736000     10.995000
C          -4.523000     27.134000     10.381000
C          -3.335000     26.617000     11.134000
C          -2.527000     25.593000     10.564000
C          -2.984000     27.005000     12.473000
N          -1.497000     25.015000     11.203000
N          -3.563000     27.971000     13.201000
C          -1.977000     26.366000     13.155000
C          -1.186000     25.375000     12.452000
S          -2.781000     28.024000     14.553000
N          -1.675000     26.890000     14.385000
C           0.110000     24.919000     13.026000
S           0.732000     25.032000     14.721000
C           0.962000     24.075000     12.277000
C           2.010000     23.816000     14.372000
S           0.783000     23.338000     10.727000
C           2.036000     23.526000     13.011000
C           3.014000     23.324000     15.322000
C           2.196000     22.355000     11.134000
C           2.699000     22.508000     12.406000
N           4.280000     23.163000     14.893000
S           2.778000     23.377000     17.074000
C           5.129000     23.100000     15.971000
C           4.534000     23.181000     17.167000
C          -8.084000     28.171000      8.207000
H          -5.726000     27.299000      7.145000
H          -3.596000     26.654000      8.433000
H          -5.740000     27.837000     12.077000
H          -2.732000     25.257000      9.548000
H           2.748000     21.768000     10.412000
H           3.483000     21.982000     12.939000
H           6.189000     22.961000     15.802000
H           4.972000     23.127000     18.155000
H          -8.049000     28.273000      7.116000
C          -8.696000     29.490000      8.645000
H          -8.827000     27.381000      8.371000
H          -8.123000     30.368000      8.322000
H          -8.786000     29.522000      9.738000
C         -10.189000     29.682000      8.056000
H         -10.166000     29.745000      6.961000
C         -10.901000     30.965000      8.535000
H         -10.807000     28.830000      8.363000
H         -10.601000     30.981000      9.590000
H         -11.985000     30.794000      8.516000
C         -10.668000     32.224000      7.688000
H          -9.673000     32.648000      7.872000
C         -11.772000     33.348000      7.893000
H         -10.638000     31.996000      6.615000
H         -12.823000     33.103000      8.088000
H         -11.758000     34.048000      7.048000
H         -11.548000     33.981000      8.761000
C         -13.971000     25.195000     16.322000
C         -14.956000     24.930000     15.298000
N         -12.689000     25.178000     16.068000
C         -14.553000     24.538000     14.082000
C         -12.293000     24.873000     14.786000
C         -13.198000     24.563000     13.780000
C         -12.788000     24.235000     12.334000
C         -13.466000     23.139000     11.712000
C         -11.732000     24.847000     11.559000
N         -13.139000     22.727000     10.446000
N         -11.025000     25.906000     11.972000
C         -11.332000     24.348000     10.349000
C         -12.055000     23.213000      9.819000
S          -9.840000     26.179000     10.826000
N         -10.120000     24.910000      9.878000
C         -11.639000     22.415000      8.651000
S         -11.906000     20.615000      8.553000
C         -10.949000     22.798000      7.487000
C         -11.118000     20.450000      6.946000
S         -10.534000     24.416000      6.921000
C         -10.736000     21.730000      6.588000
C         -10.819000     19.234000      6.140000
C          -9.806000     23.597000      5.519000
C          -9.982000     22.206000      5.462000
N         -10.401000     19.342000      4.871000
S         -11.694000     17.802000      6.514000
C         -10.613000     18.210000      4.123000
C         -11.442000     17.364000      4.806000
C         -14.413000     25.328000     17.796000
H         -15.955000     24.932000     15.724000
H         -15.281000     24.212000     13.344000
H         -11.249000     24.939000     14.481000
H         -14.300000     22.681000     12.243000
H          -9.236000     24.180000      4.808000
H          -9.717000     21.588000      4.611000
H         -10.303000     18.207000      3.087000
H         -11.759000     16.372000      4.511000
H         -15.485000     25.102000     17.840000
C         -14.346000     26.904000     18.160000
H         -13.793000     24.625000     18.366000
H         -14.984000     27.410000     17.424000
H         -13.342000     27.286000     17.936000
C         -14.730000     27.211000     19.625000
H         -15.761000     26.905000     19.838000
C         -14.795000     28.780000     19.797000
H         -13.964000     26.843000     20.319000
H         -15.663000     29.098000     19.205000
H         -13.864000     29.233000     19.435000
C         -14.994000     29.183000     21.220000
H         -15.293000     30.234000     21.310000
C         -13.778000     28.970000     22.182000
H         -15.825000     28.652000     21.699000
H         -13.299000     27.984000     22.132000
H         -14.179000     29.086000     23.197000
H         -12.986000     29.703000     21.985000
$end

--------------------------------------------------------------

             Standard Nuclear Orientation (Angstroms)
    I     Atom           X                Y                Z
 ----------------------------------------------------------------
    1      C      -0.0355395259     1.0298980372     3.9712168551
    2      C       0.9593875884     2.0361546196     4.0072269584
    3      N       0.1758136999    -0.1907628851     3.4363956451
    4      C       2.2028538138     1.7620605852     3.3964723378
    5      C       1.3836582876    -0.5133788719     2.9284307082
    6      C       2.4038904404     0.4815803881     2.8058279950
    7      C       3.7178141267     0.2625782894     2.1193262635
    8      C       4.4234492912     1.3711255019     1.5720218763
    9      C       4.3023958523    -1.0259947316     1.8653385162
   10      N       5.5621143245     1.2556209687     0.8695934851
   11      N       3.8517396960    -2.2078866316     2.3107838724
   12      C       5.4272974152    -1.1528057499     1.0868724351
   13      C       6.0913065963     0.0520645044     0.6293241014
   14      S       4.8675791576    -3.2804087902     1.8008785799
   15      N       5.9415916874    -2.4202248939     0.9983844987
   16      C       7.4775897946    -0.0251929847     0.0914782364
   17      S       8.3981530901    -1.4472027396    -0.5434465434
   18      C       8.1908167089     1.1580397438    -0.2093683673
   19      C       9.6093015026    -0.3649450224    -1.3151840354
   20      S       7.7420448134     2.8230063803    -0.1445618459
   21      C       9.3897044629     0.9533355450    -0.9265833589
   22      C      10.7781217330    -0.7942571535    -2.0911546296
   23      C       9.2209356614     3.1613378300    -1.0539136423
   24      C       9.9463037559     2.0669568984    -1.4669190954
   25      N      11.9462907770    -0.1522289445    -1.9016846758
   26      S      10.8667507848    -2.3682777796    -2.8927860659
   27      C      12.9795315060    -0.9221600871    -2.3775771340
   28      C      12.6128562373    -2.0848058230    -2.9296696445
   29      C      -1.5112951410     1.3129040849     4.3750917632
   30      H       0.6251978059     3.0108935525     4.3501587331
   31      H       2.9651699946     2.5362093921     3.3956567142
   32      H       1.5078477415    -1.5072881197     2.5005026924
   33      H       4.0408155213     2.3782812896     1.7345199302
   34      H       9.6402239704     4.1516123667    -1.1727019242
   35      H      10.8229142832     1.9801882087    -2.0989366410
   36      H      13.9925782115    -0.5467561271    -2.3120772166
   37      H      13.2254717473    -2.8444504880    -3.3971589170
   38      H      -1.6786452973     2.2109563820     4.9812320085
   39      C      -2.0531141343     0.2064845034     5.2630201884
   40      H      -2.1991429205     1.4373014763     3.5298487679
   41      H      -1.5629069895     0.1509194359     6.2428933835
   42      H      -1.9415534025    -0.7661869686     4.7678056788
   43      C      -3.6316502046     0.3934394168     5.5564579758
   44      H      -3.8109187977     1.3118615344     6.1290717946
   45      C      -4.2636742586    -0.7464013743     6.3833694379
   46      H      -4.1694301585     0.4434041592     4.6023231605
   47      H      -3.7755027138    -1.6187265211     5.9316854986
   48      H      -5.3299506595    -0.8141017644     6.1321140021
   49      C      -4.2097489619    -0.5850870466     7.9090983621
   50      H      -3.2046385616    -0.7951613770     8.2954645858
   51      C      -5.2748511660    -1.4720922254     8.6856266022
   52      H      -4.3735477983     0.4553868513     8.2169895911
   53      H      -6.2682732878    -1.6838582816     8.2722035437
   54      H      -5.4270678724    -1.0772391057     9.6981196087
   55      H      -4.9053416323    -2.4914336318     8.8550220029
   56      C      -5.7622919133    -5.1638893449    -2.6496319544
   57      C      -6.9141682533    -4.3036766780    -2.5004975690
   58      N      -4.5485439683    -4.7397267276    -2.4146191885
   59      C      -6.7350132353    -3.0036437820    -2.2311521608
   60      C      -4.3897389773    -3.4256434372    -2.0386789266
   61      C      -5.4589767050    -2.5470469548    -1.9293175858
   62      C      -5.3161387686    -1.0781890555    -1.4949746387
   63      C      -6.0795100732    -0.1181655475    -2.2321334516
   64      C      -4.4299518826    -0.5415274863    -0.4865242615
   65      N      -5.9839157429     1.2229837845    -1.9645345105
   66      N      -3.6758407725    -1.2988970234     0.3194576353
   67      C      -4.2509705692     0.8043316971    -0.3141010964
   68      C      -5.0410838551     1.6967944629    -1.1332990010
   69      S      -2.7256190634    -0.2591398250     1.2183756916
   70      N      -3.1548964554     1.1265721408     0.5234021177
   71      C      -4.8339922698     3.1526706411    -1.2411026608
   72      S      -5.0862416413     4.0620698068    -2.8000306297
   73      C      -4.3753307661     4.0790940351    -0.2876592592
   74      C      -4.6039542292     5.6495080699    -2.1086142481
   75      S      -4.0965820330     3.8531061192     1.4391104433
   76      C      -4.3141927158     5.4014863868    -0.7793243963
   77      C      -4.4389089414     6.9760074811    -2.7650077010
   78      C      -3.6254261115     5.5689492857     1.4547093417
   79      C      -3.7871091211     6.2601979379     0.2442797050
   80      N      -4.2625573511     8.0835969604    -2.0309132506
   81      S      -5.2079276517     7.2076728637    -4.2852268871
   82      C      -4.5904488629     9.2412103619    -2.6929482717
   83      C      -5.2667338607     8.9313491497    -3.8401494881
   84      C      -5.9283946452    -6.5680344733    -3.2713355340
   85      H      -7.8179648291    -4.8256643749    -2.8007667714
   86      H      -7.5808593729    -2.3215244993    -2.2438641893
   87      H      -3.4205770336    -3.0339034976    -1.7311371463
   88      H      -6.7946666948    -0.4842126338    -2.9682323153
   89      H      -3.2047345776     5.9897339333     2.3581853589
   90      H      -3.6730952107     7.3326919663     0.1297922071
   91      H      -4.4757675468    10.1844923294    -2.1767386966
   92      H      -5.6169129799     9.6144850338    -4.6032208794
   93      H      -6.9704575957    -6.6618200312    -3.5992152012
   94      C      -5.8204202496    -7.6299930029    -2.0542296999
   95      H      -5.2034225421    -6.6267735768    -4.0925992964
   96      H      -6.5904566158    -7.3359715380    -1.3294046362
   97      H      -4.8806585587    -7.4663024711    -1.5118558674
   98      C      -5.9338883771    -9.1011608278    -2.5132724157
   99      H      -6.9033956825    -9.2960548179    -2.9865988543
  100      C      -5.9907720553   -10.0142762980    -1.2254236726
  101      H      -5.0479051440    -9.4056618955    -3.0843493022
  102      H      -6.9575159857    -9.7894242041    -0.7565316711
  103      H      -5.1491907805    -9.7768180798    -0.5633296064
  104      C      -5.9316106966   -11.4669749969    -1.5617351705
  105      H      -6.2254321535   -12.0960660164    -0.7131979346
  106      C      -4.5565791456   -12.0083079182    -2.0772115540
  107      H      -6.6522163356   -11.7525635469    -2.3370607106
  108      H      -4.0795138690   -11.4173861285    -2.8692703652
  109      H      -4.7663253856   -13.0017794287    -2.4937483142
  110      H      -3.8257314670   -12.0692840988    -1.2614263028
 ----------------------------------------------------------------

    9   -5663.4874817371      5.74E-06 Convergence criterion met
 Total energy in the final basis set = -5663.4874817371

                    Orbital Energies (a.u.)
 --------------------------------------------------------------

 Alpha MOs
 -- Occupied --
-88.991 -88.987 -88.931 -88.929 -88.925 -88.919 -88.913 -88.907
-14.388 -14.386 -14.379 -14.373 -14.349 -14.349 -14.346 -14.341
-14.334 -14.326 -10.277 -10.271 -10.265 -10.264 -10.256 -10.255
-10.253 -10.252 -10.244 -10.243 -10.242 -10.242 -10.242 -10.240
-10.235 -10.234 -10.232 -10.231 -10.231 -10.230 -10.230 -10.229
-10.229 -10.227 -10.226 -10.223 -10.223 -10.221 -10.218 -10.216
-10.211 -10.205 -10.204 -10.203 -10.199 -10.194 -10.190 -10.190
-10.189 -10.186 -10.185 -10.183 -10.179 -10.177 -10.176 -10.174
-10.174 -10.173 -10.172 -10.171  -8.047  -8.042  -7.991  -7.987
 -7.986  -7.977  -7.972  -7.967  -6.012  -6.007  -6.007  -6.006
 -6.001  -6.000  -5.955  -5.952  -5.951  -5.950  -5.949  -5.947
 -5.947  -5.944  -5.943  -5.942  -5.938  -5.936  -5.934  -5.933
 -5.932  -5.928  -5.928  -5.923  -1.061  -1.027  -0.968  -0.965
 -0.959  -0.947  -0.939  -0.937  -0.915  -0.908  -0.898  -0.889
 -0.839  -0.833  -0.831  -0.826  -0.810  -0.807  -0.805  -0.800
 -0.800  -0.798  -0.796  -0.792  -0.780  -0.779  -0.764  -0.763
 -0.751  -0.745  -0.739  -0.736  -0.717  -0.712  -0.708  -0.704
 -0.694  -0.687  -0.672  -0.666  -0.654  -0.653  -0.644  -0.642
 -0.634  -0.633  -0.626  -0.624  -0.612  -0.603  -0.596  -0.595
 -0.591  -0.586  -0.584  -0.578  -0.575  -0.571  -0.561  -0.560
 -0.555  -0.546  -0.541  -0.537  -0.527  -0.518  -0.516  -0.510
 -0.507  -0.506  -0.501  -0.496  -0.484  -0.483  -0.481  -0.476
 -0.473  -0.470  -0.468  -0.462  -0.458  -0.454  -0.450  -0.444
 -0.441  -0.437  -0.436  -0.433  -0.429  -0.428  -0.427  -0.426
 -0.423  -0.422  -0.421  -0.419  -0.417  -0.414  -0.413  -0.410
 -0.409  -0.407  -0.405  -0.402  -0.400  -0.397  -0.395  -0.393
 -0.393  -0.391  -0.390  -0.387  -0.386  -0.384  -0.382  -0.382
 -0.379  -0.377  -0.373  -0.371  -0.364  -0.364  -0.359  -0.357
 -0.357  -0.353  -0.352  -0.347  -0.346  -0.343  -0.343  -0.339
 -0.336  -0.330  -0.328  -0.328  -0.328  -0.324  -0.320  -0.319
 -0.318  -0.318  -0.307  -0.303  -0.302  -0.300  -0.299  -0.298
 -0.294  -0.293  -0.291  -0.290  -0.288  -0.287  -0.286  -0.277
 -0.273  -0.271  -0.269  -0.265  -0.257  -0.250  -0.250  -0.245
 -0.244  -0.237  -0.229  -0.228  -0.191  -0.190

          Ground-State Mulliken Net Atomic Charges

     Atom                 Charge (a.u.)
  ----------------------------------------
      1 C                     0.278782
      2 C                    -0.123742
      3 N                    -0.492156
      4 C                    -0.085942
      5 C                     0.092102
      6 C                     0.030202
      7 C                     0.040232
      8 C                     0.064680
      9 C                     0.210895
     10 N                    -0.538530
     11 N                    -0.532378
     12 C                     0.166469
     13 C                     0.314866
     14 S                     0.614353
     15 N                    -0.536226
     16 C                    -0.222893
     17 S                     0.324650
     18 C                    -0.116787
     19 C                    -0.222233
     20 S                     0.307395
     21 C                     0.151676
     22 C                     0.026654
     23 C                    -0.334250
     24 C                    -0.037139
     25 N                    -0.421317
     26 S                     0.268649
     27 C                     0.139694
     28 C                    -0.307199
     29 C                    -0.231440
     30 H                     0.096204
     31 H                     0.108297
     32 H                     0.128309
     33 H                     0.110946
     34 H                     0.119949
     35 H                     0.126217
     36 H                     0.119457
     37 H                     0.133445
     38 H                     0.097220
     39 C                    -0.180331
     40 H                     0.123569
     41 H                     0.095320
     42 H                     0.119772
     43 C                    -0.198328
     44 H                     0.083972
     45 C                    -0.169934
     46 H                     0.088240
     47 H                     0.095049
     48 H                     0.090829
     49 C                    -0.175033
     50 H                     0.098944
     51 C                    -0.333509
     52 H                     0.095790
     53 H                     0.104998
     54 H                     0.098737
     55 H                     0.104155
     56 C                     0.261791
     57 C                    -0.115644
     58 N                    -0.486414
     59 C                    -0.064802
     60 C                     0.075115
     61 C                     0.045462
     62 C                     0.026126
     63 C                     0.060032
     64 C                     0.242256
     65 N                    -0.509586
     66 N                    -0.571959
     67 C                     0.178672
     68 C                     0.259441
     69 S                     0.645347
     70 N                    -0.534509
     71 C                    -0.224997
     72 S                     0.294925
     73 C                    -0.094618
     74 C                    -0.224463
     75 S                     0.275872
     76 C                     0.121558
     77 C                     0.063435
     78 C                    -0.305306
     79 C                    -0.054465
     80 N                    -0.427314
     81 S                     0.271497
     82 C                     0.137139
     83 C                    -0.317198
     84 C                    -0.217245
     85 H                     0.084483
     86 H                     0.100032
     87 H                     0.115200
     88 H                     0.116336
     89 H                     0.120122
     90 H                     0.131563
     91 H                     0.125644
     92 H                     0.127566
     93 H                     0.092379
     94 C                    -0.182492
     95 H                     0.120972
     96 H                     0.093096
     97 H                     0.118262
     98 C                    -0.173250
     99 H                     0.092406
    100 C                    -0.170560
    101 H                     0.101902
    102 H                     0.088449
    103 H                     0.091799
    104 C                    -0.177166
    105 H                     0.089563
    106 C                    -0.322066
    107 H                     0.087326
    108 H                     0.102458
    109 H                     0.101100
    110 H                     0.103377
  ----------------------------------------
  Sum of atomic charges =     0.000000

                    Cartesian Multipole Moments
 -----------------------------------------------------------------
    Charge (ESU x 10^10)
                 0.0000
    Dipole Moment (Debye)
         X       1.3859      Y       0.7324      Z      -0.8398
       Tot       1.7783
    Quadrupole Moments (Debye-Ang)
        XX    -396.4155     XY      -7.9537     YY    -402.1875
        XZ      -7.2895     YZ       4.9165     ZZ    -432.4234

 Total job time:  79.76s(wall), 919.35s(cpu)
        *  Thank you very much for using Q-Chem.  Have a nice day.  *
