 Q-Chem 4.4, Q-Chem, Inc., Pleasanton, CA (2016)
 Q-Chem 4.4.2 for Intel X86 Linux

User input:
--------------------------------------------------------------
$comment
SP
$end

$rem
MEM_STATIC 5000
MEM_TOTAL 20000
JOBTYPE SP
EXCHANGE B3LYP
BASIS 6-31g(d,p)
$end

$molecule
0 1
C         -15.151000     14.807000      8.953000
C         -14.488000     15.459000      7.901000
N         -16.344000     15.245000      9.404000
C         -15.027000     16.618000      7.274000
C         -16.926000     16.281000      8.670000
C         -16.329000     17.007000      7.625000
C         -16.983000     18.123000      6.985000
C         -18.354000     18.060000      6.587000
C         -16.308000     19.384000      6.634000
N         -19.015000     19.044000      5.826000
N         -15.097000     19.665000      7.032000
C         -16.953000     20.315000      5.839000
C         -18.275000     20.144000      5.463000
S         -14.816000     21.152000      6.370000
N         -16.187000     21.365000      5.503000
C         -18.941000     21.217000      4.669000
S         -18.641000     23.003000      4.691000
C         -19.633000     20.895000      3.513000
C         -19.692000     23.286000      3.317000
S         -19.691000     19.442000      2.718000
C         -20.044000     22.029000      2.788000
C         -19.895000     24.585000      2.577000
C         -20.285000     20.329000      1.290000
C         -20.452000     21.645000      1.466000
N         -20.614000     24.733000      1.447000
S         -19.487000     26.103000      3.434000
C         -20.545000     25.991000      1.049000
C         -20.042000     26.859000      2.008000
C         -14.559000     13.587000      9.775000
H         -13.485000     15.172000      7.599000
H         -14.436000     17.154000      6.537000
H         -17.909000     16.644000      8.966000
H         -18.879000     17.132000      6.808000
H         -20.537000     19.778000      0.394000
H         -20.687000     22.334000      0.663000
H         -20.846000     26.222000      0.035000
H         -20.083000     27.931000      1.863000
H         -13.563000     13.353000      9.379000
C         -15.442000     12.274000      9.763000
H         -14.299000     13.828000     10.813000
H         -14.726000     11.445000      9.701000
H         -15.872000     12.163000      8.760000
C         -16.386000     12.120000     10.888000
H         -16.930000     13.064000     11.016000
C         -15.635000     11.661000     12.197000
H         -17.207000     11.427000     10.664000
H         -14.650000     12.122000     12.345000
H         -15.318000     10.613000     12.131000
C         -16.410000     11.709000     13.425000
H         -16.821000     12.697000     13.666000
C         -15.603000     11.280000     14.674000
H         -17.243000     11.018000     13.247000
H         -15.476000     10.192000     14.715000
H         -16.082000     11.526000     15.630000
H         -14.590000     11.699000     14.673000
C         -13.971000     25.195000     16.322000
C         -14.956000     24.930000     15.298000
N         -12.689000     25.178000     16.068000
C         -14.553000     24.538000     14.082000
C         -12.293000     24.873000     14.786000
C         -13.198000     24.563000     13.780000
C         -12.788000     24.235000     12.334000
C         -13.466000     23.139000     11.712000
C         -11.732000     24.847000     11.559000
N         -13.139000     22.727000     10.446000
N         -11.025000     25.906000     11.972000
C         -11.332000     24.348000     10.349000
C         -12.055000     23.213000      9.819000
S          -9.840000     26.179000     10.826000
N         -10.120000     24.910000      9.878000
C         -11.639000     22.415000      8.651000
S         -11.906000     20.615000      8.553000
C         -10.949000     22.798000      7.487000
C         -11.118000     20.450000      6.946000
S         -10.534000     24.416000      6.921000
C         -10.736000     21.730000      6.588000
C         -10.819000     19.234000      6.140000
C          -9.806000     23.597000      5.519000
C          -9.982000     22.206000      5.462000
N         -10.401000     19.342000      4.871000
S         -11.694000     17.802000      6.514000
C         -10.613000     18.210000      4.123000
C         -11.442000     17.364000      4.806000
C         -14.413000     25.328000     17.796000
H         -15.955000     24.932000     15.724000
H         -15.281000     24.212000     13.344000
H         -11.249000     24.939000     14.481000
H         -14.300000     22.681000     12.243000
H          -9.236000     24.180000      4.808000
H          -9.717000     21.588000      4.611000
H         -10.303000     18.207000      3.087000
H         -11.759000     16.372000      4.511000
H         -15.485000     25.102000     17.840000
C         -14.346000     26.904000     18.160000
H         -13.793000     24.625000     18.366000
H         -14.984000     27.410000     17.424000
H         -13.342000     27.286000     17.936000
C         -14.730000     27.211000     19.625000
H         -15.761000     26.905000     19.838000
C         -14.795000     28.780000     19.797000
H         -13.964000     26.843000     20.319000
H         -15.663000     29.098000     19.205000
H         -13.864000     29.233000     19.435000
C         -14.994000     29.183000     21.220000
H         -15.293000     30.234000     21.310000
C         -13.778000     28.970000     22.182000
H         -15.825000     28.652000     21.699000
H         -13.299000     27.984000     22.132000
H         -14.179000     29.086000     23.197000
H         -12.986000     29.703000     21.985000
$end

--------------------------------------------------------------

             Standard Nuclear Orientation (Angstroms)
    I     Atom           X                Y                Z
 ----------------------------------------------------------------
    1      C      -2.8505973109     5.9445492054    -0.6200324067
    2      C      -3.2492041935     5.0658875007     0.3999887508
    3      N      -2.6320017941     5.5032059782    -1.8753913817
    4      C      -3.4230998264     3.6719476394     0.1684224063
    5      C      -2.9638538216     4.1677422159    -2.1145289390
    6      C      -3.3433357771     3.2129202093    -1.1554573144
    7      C      -3.5817822373     1.8298605673    -1.4917032249
    8      C      -4.3560215594     1.4594797532    -2.6342379178
    9      C      -3.1139866234     0.6917346412    -0.6825162008
   10      N      -4.7574711983     0.1442857067    -2.9398533746
   11      N      -2.2904986679     0.8361176476     0.3199343638
   12      C      -3.5629499570    -0.5866757262    -0.9634251852
   13      C      -4.3520852771    -0.8420957647    -2.0726262718
   14      S      -2.1023253688    -0.7060414262     0.8809247387
   15      N      -3.1492812676    -1.5124082354    -0.0836243346
   16      C      -4.7432159595    -2.2511558243    -2.3673931928
   17      S      -3.8390228959    -3.7810763168    -2.0180249195
   18      C      -6.0691598185    -2.5638827183    -2.6183090605
   19      C      -5.1867665546    -4.7924276375    -2.5010585999
   20      S      -7.4047233742    -1.5965641365    -2.4534978042
   21      C      -6.2985660904    -3.9501491900    -2.6966674156
   22      C      -5.2930463369    -6.2919060669    -2.3726878564
   23      C      -8.3920975923    -3.0810710197    -2.4644735643
   24      C      -7.7071860186    -4.2192614257    -2.6261514412
   25      N      -6.3957050575    -7.0196597996    -2.6377977402
   26      S      -3.7714464723    -7.2243880869    -2.2296908839
   27      C      -6.1502892830    -8.2917120528    -2.3782150701
   28      C      -4.8038328651    -8.5833767512    -2.2105820823
   29      C      -2.5234950991     7.4819846423    -0.4106418141
   30      H      -3.3316724996     5.3954242342     1.4315829151
   31      H      -3.6291775603     3.0101008389     1.0046261974
   32      H      -2.8465960472     3.7717089675    -3.1220418573
   33      H      -4.7402180582     2.2765190299    -3.2429167089
   34      H      -9.4690164949    -2.9987242703    -2.4062868805
   35      H      -8.1480117330    -5.2049048979    -2.5316282423
   36      H      -6.9929766527    -8.9657403852    -2.2903412742
   37      H      -4.4607640619    -9.6084074750    -2.1513721898
   38      H      -2.6637510224     7.7248517436     0.6499862296
   39      C      -3.3829881448     8.4797987868    -1.2878194685
   40      H      -1.4625093182     7.7356729878    -0.5249938845
   41      H      -3.5903838109     9.3350844292    -0.6326748221
   42      H      -4.4074010433     8.0909790931    -1.3390782159
   43      C      -2.7849924874     8.8880432061    -2.5747595167
   44      H      -2.4191849937     7.9899405536    -3.0876459594
   45      C      -1.6603114164     9.9723108614    -2.3565414139
   46      H      -3.5285249464     9.2579739010    -3.2922389683
   47      H      -1.0351908062     9.8110160824    -1.4689276369
   48      H      -2.0880966347    10.9443497840    -2.0821527482
   49      C      -0.8348176497    10.2742858582    -3.5133837292
   50      H      -0.3142547022     9.4082417977    -3.9401481875
   51      C       0.2693705403    11.3183964336    -3.2203094257
   52      H      -1.5422399933    10.6586541486    -4.2582787856
   53      H      -0.1428322945    12.3324785087    -3.1630349296
   54      H       1.0422016138    11.3910655674    -3.9957733699
   55      H       0.7584439296    11.1399896284    -2.2555767001
   56      C       8.3487738558    -0.1427503603    -1.6802090286
   57      C       7.0718979693    -0.5100832741    -2.2491382870
   58      N       8.5106253388     0.0188809231    -0.3933491195
   59      C       5.9918961761    -0.5718342748    -1.4588776081
   60      C       7.4116101544    -0.1486476698     0.4174929089
   61      C       6.1538149425    -0.4529494226    -0.0850134572
   62      C       4.9103726852    -0.6633485539     0.7959993453
   63      C       3.6942702317    -0.0658409163     0.3357130807
   64      C       4.8452834909    -1.3182071383     2.0833332691
   65      N       2.5404224855    -0.1446319546     1.0718220067
   66      N       5.8772432756    -1.9613067257     2.6431376308
   67      C       3.7217672008    -1.2824410810     2.8640591717
   68      C       2.5524385931    -0.6216847172     2.3274721470
   69      S       5.3866919958    -2.4376436321     4.1677794227
   70      N       3.9375808779    -1.7396747552     4.1873092705
   71      C       1.3359140586    -0.2985050680     3.0953959526
   72      S       0.3712380902     1.2196836406     2.8031694634
   73      C       0.7310276268    -0.9765647871     4.1687236854
   74      C      -0.8222663167     0.8719708787     4.1013455169
   75      S       1.0986794700    -2.5711238826     4.8265370426
   76      C      -0.4396114304    -0.3428520055     4.6401113268
   77      C      -1.9546467581     1.6922358994     4.6137641268
   78      C      -0.2312431447    -2.2629858751     5.9678984258
   79      C      -0.9518397789    -1.0763184487     5.7637736852
   80      N      -2.8520773264     1.1649186897     5.4583373536
   81      S      -2.5390981710     2.9537191806     3.6022299073
   82      C      -4.0510454108     1.8342610058     5.4764590659
   83      C      -4.0999014315     2.7053206728     4.4236940656
   84      C       9.5193705023     0.2470995972    -2.6094288635
   85      H       7.1331889529    -0.5339773496    -3.3331832531
   86      H       5.0060662033    -0.7193587166    -1.8916359745
   87      H       7.4961783837    -0.1280131411     1.5036510147
   88      H       3.6885646855     0.3959847987    -0.6511838013
   89      H      -0.4007270673    -2.9604489523     6.7772997206
   90      H      -1.8658975856    -0.8155368958     6.2861158219
   91      H      -4.8336788328     1.4792210743     6.1328404900
   92      H      -4.8857129715     3.4118236296     4.1893187351
   93      H       9.1349169029     0.2588173872    -3.6361976414
   94      C      10.5487962056    -1.0023168114    -2.6078927982
   95      H       9.8726114609     1.2260177681    -2.2623711741
   96      H       9.9623287114    -1.8755343883    -2.9214576903
   97      H      10.8305407507    -1.2393403336    -1.5741830414
   98      C      11.8066938250    -0.7604275338    -3.4722498752
   99      H      11.5414520958    -0.6010421073    -4.5240146355
  100      C      12.6314971718    -2.1066610979    -3.5263297216
  101      H      12.4575307848    -0.0027012879    -3.0182915204
  102      H      12.0139083227    -2.7983346694    -4.1138530692
  103      H      12.8065962934    -2.4770120861    -2.5088846650
  104      C      13.9521105108    -1.9316407650    -4.1988528007
  105      H      14.4068693975    -2.8931865012    -4.4647966897
  106      C      15.0328243339    -1.1170443763    -3.4127488915
  107      H      13.8709013441    -1.4249321772    -5.1676739805
  108      H      14.6946555007    -0.1625406214    -2.9900179816
  109      H      15.8208539635    -0.8891867750    -4.1418388834
  110      H      15.4302973688    -1.6981980093    -2.5715368841
 ----------------------------------------------------------------

    9   -5663.4650198490      8.57E-06 Convergence criterion met
 Total energy in the final basis set = -5663.4650198490

                    Orbital Energies (a.u.)
 --------------------------------------------------------------

 Alpha MOs
 -- Occupied --
-88.996 -88.982 -88.931 -88.928 -88.926 -88.925 -88.913 -88.903
-14.393 -14.387 -14.382 -14.380 -14.355 -14.353 -14.348 -14.344
-14.337 -14.329 -10.278 -10.277 -10.271 -10.264 -10.260 -10.260
-10.252 -10.249 -10.248 -10.247 -10.246 -10.244 -10.242 -10.240
-10.237 -10.237 -10.236 -10.236 -10.236 -10.230 -10.230 -10.227
-10.227 -10.226 -10.225 -10.222 -10.220 -10.215 -10.215 -10.214
-10.213 -10.210 -10.208 -10.205 -10.203 -10.198 -10.196 -10.192
-10.191 -10.189 -10.187 -10.181 -10.177 -10.176 -10.175 -10.173
-10.171 -10.169 -10.168 -10.168  -8.051  -8.038  -7.993  -7.989
 -7.984  -7.983  -7.973  -7.966  -6.016  -6.010  -6.009  -6.003
 -5.997  -5.995  -5.956  -5.953  -5.953  -5.950  -5.950  -5.948
 -5.948  -5.946  -5.945  -5.944  -5.940  -5.940  -5.937  -5.934
 -5.930  -5.929  -5.926  -5.922  -1.044  -1.035  -0.973  -0.971
 -0.954  -0.943  -0.939  -0.930  -0.914  -0.910  -0.905  -0.897
 -0.843  -0.837  -0.833  -0.831  -0.814  -0.811  -0.806  -0.805
 -0.802  -0.802  -0.798  -0.790  -0.783  -0.778  -0.768  -0.765
 -0.750  -0.744  -0.740  -0.740  -0.718  -0.718  -0.708  -0.705
 -0.692  -0.688  -0.673  -0.668  -0.656  -0.655  -0.648  -0.648
 -0.639  -0.636  -0.629  -0.623  -0.610  -0.607  -0.600  -0.593
 -0.591  -0.588  -0.581  -0.578  -0.577  -0.574  -0.566  -0.561
 -0.552  -0.548  -0.543  -0.535  -0.525  -0.522  -0.513  -0.511
 -0.508  -0.507  -0.503  -0.503  -0.489  -0.488  -0.478  -0.473
 -0.473  -0.470  -0.469  -0.469  -0.460  -0.458  -0.447  -0.443
 -0.439  -0.438  -0.436  -0.435  -0.435  -0.432  -0.428  -0.427
 -0.426  -0.425  -0.424  -0.421  -0.416  -0.414  -0.412  -0.411
 -0.411  -0.409  -0.406  -0.404  -0.401  -0.399  -0.398  -0.397
 -0.395  -0.393  -0.390  -0.388  -0.386  -0.384  -0.384  -0.383
 -0.381  -0.378  -0.371  -0.370  -0.366  -0.364  -0.362  -0.356
 -0.354  -0.353  -0.350  -0.347  -0.346  -0.344  -0.342  -0.340
 -0.336  -0.335  -0.332  -0.330  -0.329  -0.327  -0.322  -0.320
 -0.319  -0.316  -0.309  -0.304  -0.304  -0.303  -0.301  -0.299
 -0.297  -0.296  -0.294  -0.290  -0.289  -0.284  -0.279  -0.279
 -0.277  -0.275  -0.270  -0.269  -0.256  -0.256  -0.249  -0.248
 -0.242  -0.239  -0.233  -0.231  -0.197  -0.190

          Ground-State Mulliken Net Atomic Charges

     Atom                 Charge (a.u.)
  ----------------------------------------
      1 C                     0.278787
      2 C                    -0.141139
      3 N                    -0.480005
      4 C                    -0.048187
      5 C                     0.059009
      6 C                     0.054260
      7 C                     0.032596
      8 C                     0.042465
      9 C                     0.233885
     10 N                    -0.504481
     11 N                    -0.556374
     12 C                     0.239226
     13 C                     0.226365
     14 S                     0.616956
     15 N                    -0.553578
     16 C                    -0.197621
     17 S                     0.323277
     18 C                    -0.093174
     19 C                    -0.223607
     20 S                     0.263611
     21 C                     0.102605
     22 C                     0.055051
     23 C                    -0.308204
     24 C                    -0.035076
     25 N                    -0.415962
     26 S                     0.278934
     27 C                     0.130721
     28 C                    -0.314274
     29 C                    -0.228682
     30 H                     0.085954
     31 H                     0.112099
     32 H                     0.103022
     33 H                     0.117438
     34 H                     0.121570
     35 H                     0.130248
     36 H                     0.113342
     37 H                     0.124503
     38 H                     0.088069
     39 C                    -0.172231
     40 H                     0.121756
     41 H                     0.090040
     42 H                     0.088817
     43 C                    -0.177393
     44 H                     0.126333
     45 C                    -0.169285
     46 H                     0.086968
     47 H                     0.083803
     48 H                     0.086789
     49 C                    -0.165076
     50 H                     0.094913
     51 C                    -0.329602
     52 H                     0.091419
     53 H                     0.099441
     54 H                     0.099641
     55 H                     0.100525
     56 C                     0.261893
     57 C                    -0.115411
     58 N                    -0.485406
     59 C                    -0.064648
     60 C                     0.075558
     61 C                     0.044974
     62 C                     0.026987
     63 C                     0.061348
     64 C                     0.247431
     65 N                    -0.509993
     66 N                    -0.568737
     67 C                     0.182840
     68 C                     0.260921
     69 S                     0.621696
     70 N                    -0.523661
     71 C                    -0.231265
     72 S                     0.303622
     73 C                    -0.093335
     74 C                    -0.233471
     75 S                     0.277618
     76 C                     0.121523
     77 C                     0.058366
     78 C                    -0.303581
     79 C                    -0.054321
     80 N                    -0.428606
     81 S                     0.283967
     82 C                     0.138975
     83 C                    -0.327344
     84 C                    -0.217187
     85 H                     0.086604
     86 H                     0.101033
     87 H                     0.114176
     88 H                     0.120183
     89 H                     0.124798
     90 H                     0.133232
     91 H                     0.128511
     92 H                     0.129533
     93 H                     0.093394
     94 C                    -0.182582
     95 H                     0.121946
     96 H                     0.092974
     97 H                     0.117925
     98 C                    -0.173361
     99 H                     0.093096
    100 C                    -0.170852
    101 H                     0.102373
    102 H                     0.088588
    103 H                     0.091575
    104 C                    -0.177420
    105 H                     0.089866
    106 C                    -0.322137
    107 H                     0.087793
    108 H                     0.102571
    109 H                     0.101594
    110 H                     0.103344
  ----------------------------------------
  Sum of atomic charges =     0.000000

                    Cartesian Multipole Moments
 -----------------------------------------------------------------
    Charge (ESU x 10^10)
                 0.0000
    Dipole Moment (Debye)
         X      -0.5351      Y      -1.8879      Z       2.6331
       Tot       3.2839
    Quadrupole Moments (Debye-Ang)
        XX    -432.7744     XY      -9.2632     YY    -416.1878
        XZ     -32.0684     YZ       2.5567     ZZ    -440.6754

 Total job time:  81.69s(wall), 955.83s(cpu)
        *  Thank you very much for using Q-Chem.  Have a nice day.  *
