 Q-Chem 4.4, Q-Chem, Inc., Pleasanton, CA (2016)
 Q-Chem 4.4.2 for Intel X86 Linux

User input:
--------------------------------------------------------------
$comment
SP
$end

$rem
MEM_STATIC 5000
MEM_TOTAL 20000
JOBTYPE SP
EXCHANGE B3LYP
BASIS 6-31g(d,p)
$end

$molecule
0 1
C          -5.641000     19.481000      6.805000
C          -5.977000     18.291000      7.373000
N          -6.180000     20.645000      7.173000
C          -6.921000     18.307000      8.408000
C          -7.087000     20.696000      8.183000
C          -7.680000     19.462000      8.753000
C          -8.772000     19.589000      9.747000
C          -9.729000     18.568000      9.886000
C          -8.806000     20.711000     10.619000
N         -10.787000     18.648000     10.690000
N          -7.905000     21.681000     10.784000
C          -9.853000     20.700000     11.584000
C         -10.937000     19.772000     11.437000
S          -8.395000     22.558000     12.090000
N          -9.769000     21.751000     12.524000
C         -12.108000     19.844000     12.367000
S         -12.288000     20.811000     13.863000
C         -13.352000     19.324000     12.071000
C         -14.027000     20.489000     14.032000
S         -13.811000     18.161000     10.784000
C         -14.404000     19.624000     12.981000
C         -14.889000     20.924000     15.107000
C         -15.466000     18.109000     11.544000
C         -15.608000     18.847000     12.720000
N         -16.145000     20.724000     15.107000
S         -14.191000     21.829000     16.409000
C         -16.695000     21.433000     16.069000
C         -15.817000     22.014000     16.931000
C          -4.466000     19.557000      5.885000
H          -5.440000     17.408000      7.036000
H          -7.272000     17.406000      8.901000
H          -7.628000     21.613000      8.411000
H          -9.657000     17.734000      9.189000
H         -16.208000     17.379000     11.247000
H         -16.515000     18.734000     13.303000
H         -17.771000     21.512000     16.141000
H         -16.019000     22.730000     17.717000
H          -4.420000     18.618000      5.321000
C          -3.118000     19.884000      6.699000
H          -4.702000     20.346000      5.160000
H          -3.124000     20.967000      6.872000
H          -2.195000     19.737000      6.125000
C          -2.950000     19.174000      8.094000
H          -3.869000     19.272000      8.686000
C          -1.777000     19.784000      8.962000
H          -2.799000     18.095000      7.965000
H          -1.905000     20.873000      8.985000
H          -0.761000     19.493000      8.665000
C          -1.909000     19.287000     10.389000
H          -2.862000     19.515000     10.881000
C          -0.809000     19.868000     11.307000
H          -1.881000     18.191000     10.364000
H          -0.718000     19.215000     12.183000
H          -1.157000     20.849000     11.652000
H           0.102000     19.958000     10.702000
C         -13.971000     25.195000     16.322000
C         -14.956000     24.930000     15.298000
N         -12.689000     25.178000     16.068000
C         -14.553000     24.538000     14.082000
C         -12.293000     24.873000     14.786000
C         -13.198000     24.563000     13.780000
C         -12.788000     24.235000     12.334000
C         -13.466000     23.139000     11.712000
C         -11.732000     24.847000     11.559000
N         -13.139000     22.727000     10.446000
N         -11.025000     25.906000     11.972000
C         -11.332000     24.348000     10.349000
C         -12.055000     23.213000      9.819000
S          -9.840000     26.179000     10.826000
N         -10.120000     24.910000      9.878000
C         -11.639000     22.415000      8.651000
S         -11.906000     20.615000      8.553000
C         -10.949000     22.798000      7.487000
C         -11.118000     20.450000      6.946000
S         -10.534000     24.416000      6.921000
C         -10.736000     21.730000      6.588000
C         -10.819000     19.234000      6.140000
C          -9.806000     23.597000      5.519000
C          -9.982000     22.206000      5.462000
N         -10.401000     19.342000      4.871000
S         -11.694000     17.802000      6.514000
C         -10.613000     18.210000      4.123000
C         -11.442000     17.364000      4.806000
C         -14.413000     25.328000     17.796000
H         -15.955000     24.932000     15.724000
H         -15.281000     24.212000     13.344000
H         -11.249000     24.939000     14.481000
H         -14.300000     22.681000     12.243000
H          -9.236000     24.180000      4.808000
H          -9.717000     21.588000      4.611000
H         -10.303000     18.207000      3.087000
H         -11.759000     16.372000      4.511000
H         -15.485000     25.102000     17.840000
C         -14.346000     26.904000     18.160000
H         -13.793000     24.625000     18.366000
H         -14.984000     27.410000     17.424000
H         -13.342000     27.286000     17.936000
C         -14.730000     27.211000     19.625000
H         -15.761000     26.905000     19.838000
C         -14.795000     28.780000     19.797000
H         -13.964000     26.843000     20.319000
H         -15.663000     29.098000     19.205000
H         -13.864000     29.233000     19.435000
C         -14.994000     29.183000     21.220000
H         -15.293000     30.234000     21.310000
C         -13.778000     28.970000     22.182000
H         -15.825000     28.652000     21.699000
H         -13.299000     27.984000     22.132000
H         -14.179000     29.086000     23.197000
H         -12.986000     29.703000     21.985000
$end

--------------------------------------------------------------

             Standard Nuclear Orientation (Angstroms)
    I     Atom           X                Y                Z
 ----------------------------------------------------------------
    1      C      -7.1688305115     1.6643313796    -0.3943230464
    2      C      -7.0536214422     0.9768856614    -1.5629826439
    3      N      -6.1326955604     1.9275618561     0.4044103756
    4      C      -5.7749913512     0.5491798519    -1.9434952335
    5      C      -4.8782056610     1.5393396103     0.0567200246
    6      C      -4.6406759806     0.6231976642    -1.0850192563
    7      C      -3.2671320122     0.1187144081    -1.3206091783
    8      C      -3.0638053073    -1.1201990449    -1.9541411089
    9      C      -2.1495148249     0.9269670167    -0.9769763173
   10      N      -1.8677183290    -1.6805721534    -2.1200866407
   11      N      -2.1194400624     2.1908925801    -0.5509320956
   12      C      -0.8778295450     0.3806329476    -1.3114768911
   13      C      -0.7787310502    -1.0042431636    -1.6722353212
   14      S      -0.5356866735     2.6453726067    -0.5447588646
   15      N       0.1972505539     1.2699682723    -1.0911533537
   16      C       0.5679264618    -1.6201101288    -1.8925678575
   17      S       2.1609070108    -0.8107328682    -2.0058216450
   18      C       0.8098129033    -2.9768915337    -1.8139092991
   19      C       3.0932299768    -2.3214157058    -1.9352720087
   20      S      -0.3640071898    -4.3339838339    -1.8220258023
   21      C       2.1703350723    -3.3890206439    -1.8766231254
   22      C       4.5276828974    -2.4608121775    -2.0392308575
   23      C       1.0682599570    -5.4558214469    -1.9190834671
   24      C       2.3117449954    -4.8310597312    -2.0249218247
   25      N       5.1244060925    -3.5740439434    -1.8903266470
   26      S       5.4784376649    -1.0352427887    -2.2946722205
   27      C       6.4187412255    -3.3602795059    -1.7922127915
   28      C       6.8162456129    -2.0900662742    -2.0751219787
   29      C      -8.4500101115     2.3605975292    -0.0678367811
   30      H      -7.9514068447     0.8623468450    -2.1650534293
   31      H      -5.5892376948    -0.0294271539    -2.8428063654
   32      H      -4.0447063712     1.6333456180     0.7509792013
   33      H      -3.9557461910    -1.6986621333    -2.1915667086
   34      H       0.9528370102    -6.5129957590    -2.1209076907
   35      H       3.1849090802    -5.4357229602    -2.2423473532
   36      H       7.0849310659    -4.1660967169    -1.5164398431
   37      H       7.7958846540    -1.6474760752    -1.9499130939
   38      H      -9.2727015542     1.7505097293    -0.4588670440
   39      C      -8.4450767443     3.8678016155    -0.6290323836
   40      H      -8.5353236090     2.3366303937     1.0257761228
   41      H      -7.8733606753     4.4590993505     0.0964755246
   42      H      -9.4261326118     4.3581617380    -0.6195279052
   43      C      -7.7973368432     4.0873339936    -2.0469842712
   44      H      -6.8251362578     3.5813586355    -2.1056695222
   45      C      -7.5428865818     5.6119133494    -2.3821944327
   46      H      -8.4133045354     3.6288570988    -2.8306077388
   47      H      -7.0133473973     6.0605783515    -1.5330054267
   48      H      -8.4287549381     6.1924672357    -2.6708818768
   49      C      -6.6228491429     5.7060482316    -3.5844555254
   50      H      -5.6530117031     5.2061884792    -3.4757698862
   51      C      -6.3039616227     7.1729739547    -3.9542185204
   52      H      -7.1027177381     5.1725838196    -4.4137726255
   53      H      -5.9737412495     7.1955268255    -4.9994514481
   54      H      -5.4624233849     7.4915111294    -3.3274510494
   55      H      -7.2048577296     7.7624348130    -3.7421616859
   56      C       6.6663316903     0.7984007892     0.2768222892
   57      C       6.3359560056    -0.4510708363     0.9238915004
   58      N       5.7800963976     1.7441146578     0.1078806287
   59      C       5.0629851946    -0.7048213117     1.2553805808
   60      C       4.4977178449     1.5074559248     0.5470422068
   61      C       4.1190800052     0.3056779208     1.1297291000
   62      C       2.6989693432     0.0171840295     1.6461175025
   63      C       2.1605373753    -1.2737286515     1.3437609810
   64      C       1.8071341125     0.9311874692     2.3240058660
   65      N       0.8836263948    -1.6145299559     1.7081533778
   66      N       2.1608853517     2.1611975846     2.7162228681
   67      C       0.4966282522     0.6233878848     2.5708556300
   68      C       0.0343809000    -0.6943718355     2.1944373720
   69      S       0.7880554197     2.8929216074     3.3261310025
   70      N      -0.2758666423     1.7339211919     2.9910893886
   71      C      -1.3755904862    -1.1255930540     2.1838095460
   72      S      -2.0366454601    -2.2721263518     0.9310682644
   73      C      -2.4496104588    -0.7438268609     3.0074725064
   74      C      -3.7130718385    -2.2248461819     1.5775798136
   75      S      -2.4317034268     0.2220477496     4.4830302229
   76      C      -3.6617757456    -1.3891728053     2.6782644725
   77      C      -4.9634378082    -2.8455665139     1.0589429355
   78      C      -4.1910597899    -0.0416506853     4.5214661806
   79      C      -4.7044872117    -0.8973013387     3.5348759708
   80      N      -6.0799291132    -2.8538173405     1.8006491373
   81      S      -4.7986553666    -4.1499251156    -0.0490373825
   82      C      -6.9774507901    -3.8264830482     1.4342500917
   83      C      -6.3712465834    -4.7033677900     0.5780751041
   84      C       8.0449343658     0.9723623427    -0.3976560581
   85      H       7.1899775911    -1.1218516011     0.9104268410
   86      H       4.7796765163    -1.6874556881     1.6228991178
   87      H       3.7362225436     2.2866380272     0.5292332871
   88      H       2.8154833681    -2.0084299205     0.8762775142
   89      H      -4.7851476785     0.4859445025     5.2556411587
   90      H      -5.7261138955    -1.2605151100     3.5083302533
   91      H      -7.9091981699    -3.9040292656     1.9776085410
   92      H      -6.8213697253    -5.5481141643     0.0727329228
   93      H       8.5641308911     0.0084072189    -0.3391625747
   94      C       8.9186987495     1.9292542539     0.5727328701
   95      H       7.8437547772     1.3003195925    -1.4250215313
   96      H       8.9270915466     1.4359894055     1.5532405704
   97      H       8.3671555058     2.8597190466     0.7575336273
   98      C      10.3302146673     2.2341994536     0.0226772012
   99      H      10.9191837682     1.3165040887    -0.0909740870
  100      C      11.1309692879     3.0206685811     1.1343553692
  101      H      10.2779697309     2.8865220951    -0.8579825731
  102      H      11.2930623204     2.2931637921     1.9402552579
  103      H      10.5461019074     3.8843165201     1.4735549928
  104      C      12.4507521328     3.5096457449     0.6383578131
  105      H      13.1065006559     3.8224516857     1.4594840627
  106      C      12.4160692931     4.6868658899    -0.3923792197
  107      H      13.0360453462     2.7244835271     0.1454935863
  108      H      11.7190661813     4.5643658090    -1.2310194241
  109      H      13.4275006399     4.7409118636    -0.8149518919
  110      H      12.1418243487     5.6303706031     0.0954225501
 ----------------------------------------------------------------

   11   -5663.4725091161      6.18E-06 Convergence criterion met
 Total energy in the final basis set = -5663.4725091161

                    Orbital Energies (a.u.)
 --------------------------------------------------------------

 Alpha MOs
 -- Occupied --
-88.992 -88.991 -88.925 -88.922 -88.921 -88.917 -88.907 -88.905
-14.395 -14.390 -14.384 -14.379 -14.351 -14.346 -14.341 -14.337
-14.329 -14.321 -10.271 -10.268 -10.265 -10.264 -10.260 -10.260
-10.258 -10.256 -10.242 -10.241 -10.240 -10.240 -10.239 -10.238
-10.234 -10.231 -10.231 -10.229 -10.229 -10.229 -10.226 -10.226
-10.225 -10.225 -10.223 -10.221 -10.219 -10.215 -10.215 -10.214
-10.213 -10.210 -10.204 -10.202 -10.199 -10.196 -10.196 -10.192
-10.190 -10.188 -10.184 -10.183 -10.182 -10.177 -10.177 -10.177
-10.175 -10.174 -10.169 -10.168  -8.047  -8.046  -7.986  -7.983
 -7.980  -7.974  -7.966  -7.965  -6.012  -6.011  -6.007  -6.005
 -6.005  -6.004  -5.950  -5.947  -5.946  -5.945  -5.943  -5.943
 -5.941  -5.940  -5.939  -5.937  -5.935  -5.931  -5.930  -5.929
 -5.927  -5.926  -5.921  -5.921  -1.031  -1.027  -0.999  -0.964
 -0.958  -0.948  -0.942  -0.931  -0.902  -0.898  -0.895  -0.892
 -0.832  -0.830  -0.828  -0.826  -0.816  -0.810  -0.805  -0.804
 -0.799  -0.797  -0.792  -0.791  -0.782  -0.782  -0.764  -0.764
 -0.747  -0.742  -0.736  -0.732  -0.715  -0.711  -0.706  -0.705
 -0.689  -0.688  -0.673  -0.668  -0.657  -0.652  -0.644  -0.643
 -0.636  -0.632  -0.625  -0.624  -0.609  -0.605  -0.599  -0.595
 -0.587  -0.585  -0.581  -0.571  -0.570  -0.569  -0.566  -0.563
 -0.546  -0.545  -0.538  -0.537  -0.523  -0.519  -0.512  -0.509
 -0.507  -0.502  -0.500  -0.498  -0.486  -0.482  -0.478  -0.475
 -0.472  -0.471  -0.469  -0.462  -0.460  -0.456  -0.450  -0.445
 -0.441  -0.440  -0.440  -0.437  -0.430  -0.428  -0.427  -0.424
 -0.424  -0.423  -0.422  -0.418  -0.416  -0.415  -0.413  -0.409
 -0.408  -0.406  -0.404  -0.400  -0.399  -0.397  -0.396  -0.395
 -0.393  -0.391  -0.387  -0.385  -0.383  -0.383  -0.382  -0.378
 -0.377  -0.373  -0.373  -0.368  -0.367  -0.365  -0.359  -0.356
 -0.353  -0.351  -0.350  -0.347  -0.344  -0.343  -0.337  -0.335
 -0.333  -0.332  -0.329  -0.324  -0.323  -0.322  -0.322  -0.321
 -0.320  -0.313  -0.311  -0.306  -0.304  -0.301  -0.299  -0.298
 -0.297  -0.293  -0.292  -0.288  -0.288  -0.285  -0.280  -0.276
 -0.272  -0.268  -0.266  -0.264  -0.251  -0.249  -0.246  -0.241
 -0.238  -0.236  -0.227  -0.225  -0.192  -0.189

          Ground-State Mulliken Net Atomic Charges

     Atom                 Charge (a.u.)
  ----------------------------------------
      1 C                     0.271935
      2 C                    -0.088220
      3 N                    -0.482511
      4 C                    -0.097155
      5 C                     0.093243
      6 C                     0.014800
      7 C                     0.058863
      8 C                     0.045132
      9 C                     0.253247
     10 N                    -0.468889
     11 N                    -0.562400
     12 C                     0.181632
     13 C                     0.250324
     14 S                     0.614562
     15 N                    -0.551657
     16 C                    -0.211016
     17 S                     0.329532
     18 C                    -0.120954
     19 C                    -0.271020
     20 S                     0.279244
     21 C                     0.145695
     22 C                     0.092644
     23 C                    -0.300335
     24 C                    -0.058139
     25 N                    -0.424161
     26 S                     0.277621
     27 C                     0.122631
     28 C                    -0.316508
     29 C                    -0.230963
     30 H                     0.092355
     31 H                     0.085846
     32 H                     0.126771
     33 H                     0.118145
     34 H                     0.122027
     35 H                     0.128397
     36 H                     0.106596
     37 H                     0.124541
     38 H                     0.088122
     39 C                    -0.181083
     40 H                     0.115963
     41 H                     0.112434
     42 H                     0.093488
     43 C                    -0.187043
     44 H                     0.111995
     45 C                    -0.170779
     46 H                     0.084520
     47 H                     0.096573
     48 H                     0.091340
     49 C                    -0.181350
     50 H                     0.093072
     51 C                    -0.317630
     52 H                     0.086842
     53 H                     0.100536
     54 H                     0.105444
     55 H                     0.098881
     56 C                     0.258919
     57 C                    -0.105746
     58 N                    -0.486235
     59 C                    -0.072068
     60 C                     0.076154
     61 C                     0.052670
     62 C                     0.037977
     63 C                     0.065108
     64 C                     0.248334
     65 N                    -0.509208
     66 N                    -0.571807
     67 C                     0.182460
     68 C                     0.254982
     69 S                     0.615555
     70 N                    -0.531503
     71 C                    -0.246307
     72 S                     0.329836
     73 C                    -0.097269
     74 C                    -0.238018
     75 S                     0.273278
     76 C                     0.121061
     77 C                     0.059286
     78 C                    -0.303597
     79 C                    -0.047453
     80 N                    -0.425042
     81 S                     0.271724
     82 C                     0.136952
     83 C                    -0.318962
     84 C                    -0.221641
     85 H                     0.083254
     86 H                     0.105239
     87 H                     0.113869
     88 H                     0.129176
     89 H                     0.123860
     90 H                     0.132282
     91 H                     0.125917
     92 H                     0.126884
     93 H                     0.089902
     94 C                    -0.184680
     95 H                     0.119375
     96 H                     0.094804
     97 H                     0.120062
     98 C                    -0.173752
     99 H                     0.091443
    100 C                    -0.170188
    101 H                     0.102560
    102 H                     0.088726
    103 H                     0.092366
    104 C                    -0.177557
    105 H                     0.090416
    106 C                    -0.321837
    107 H                     0.087326
    108 H                     0.102210
    109 H                     0.101774
    110 H                     0.103944
  ----------------------------------------
  Sum of atomic charges =     0.000000

                    Cartesian Multipole Moments
 -----------------------------------------------------------------
    Charge (ESU x 10^10)
                 0.0000
    Dipole Moment (Debye)
         X       0.6499      Y      -1.3379      Z      -0.3600
       Tot       1.5303
    Quadrupole Moments (Debye-Ang)
        XX    -387.2694     XY       4.7574     YY    -434.9908
        XZ       8.9938     YZ       6.5171     ZZ    -447.9318

 Total job time:  126.19s(wall), 1488.92s(cpu)
        *  Thank you very much for using Q-Chem.  Have a nice day.  *
