 Q-Chem 4.4, Q-Chem, Inc., Pleasanton, CA (2016)
 Q-Chem 4.4.2 for Intel X86 Linux

User input:
--------------------------------------------------------------
$comment
SP
$end

$rem
MEM_STATIC 5000
MEM_TOTAL 20000
JOBTYPE SP
EXCHANGE B3LYP
BASIS 6-31g(d,p)
$end

$molecule
0 1
C          16.933000     15.139000    -13.699000
C          17.678000     13.918000    -13.775000
N          17.247000     16.231000    -12.968000
C          18.928000     13.857000    -13.095000
C          18.440000     16.164000    -12.371000
C          19.347000     15.019000    -12.374000
C          20.523000     15.044000    -11.481000
C          20.505000     15.561000    -10.176000
C          21.699000     14.330000    -11.821000
N          21.549000     15.348000     -9.318000
N          21.941000     13.977000    -13.055000
C          22.759000     14.132000    -10.941000
C          22.613000     14.638000     -9.632000
S          23.364000     13.183000    -12.965000
N          23.774000     13.410000    -11.395000
C          23.661000     14.515000     -8.593000
S          25.153000     13.544000     -8.663000
C          23.537000     15.035000     -7.283000
C          25.379000     13.672000     -6.903000
S          22.597000     16.435000     -6.701000
C          24.429000     14.554000     -6.367000
C          26.424000     13.065000     -6.145000
C          23.396000     16.252000     -5.154000
C          24.350000     15.255000     -5.134000
N          27.184000     12.308000     -6.873000
S          26.475000     12.757000     -4.420000
C          27.967000     11.461000     -6.095000
C          27.648000     11.521000     -4.764000
C          15.496000     15.212000    -14.140000
H          17.210000     13.101000    -14.317000
H          19.458000     12.911000    -13.145000
H          18.645000     17.037000    -11.754000
H          19.654000     16.171000     -9.876000
H          23.133000     16.966000     -4.385000
H          24.940000     15.012000     -4.258000
H          28.700000     10.829000     -6.578000
H          27.979000     10.961000     -3.899000
H          15.142000     14.201000    -14.374000
C          15.180000     16.039000    -15.474000
H          14.995000     15.670000    -13.278000
H          15.499000     17.089000    -15.484000
H          14.097000     16.140000    -15.613000
C          15.725000     15.281000    -16.748000
H          16.805000     15.134000    -16.625000
C          15.679000     16.105000    -17.993000
H          15.265000     14.297000    -16.901000
H          16.313000     15.587000    -18.722000
H          16.244000     17.040000    -17.901000
C          14.360000     16.358000    -18.675000
H          13.758000     16.928000    -17.957000
C          13.549000     15.086000    -18.937000
H          14.461000     17.003000    -19.557000
H          12.577000     15.230000    -19.425000
H          13.382000     14.444000    -18.064000
H          14.139000     14.582000    -19.712000
C          27.788000     14.179000    -14.598000
C          27.629000     15.570000    -14.577000
N          27.607000     13.439000    -13.472000
C          27.418000     16.236000    -13.375000
C          27.346000     14.037000    -12.338000
C          27.264000     15.491000    -12.201000
C          27.009000     16.121000    -10.879000
C          27.861000     15.873000     -9.789000
C          25.792000     16.781000    -10.637000
N          27.650000     16.378000     -8.532000
N          24.782000     17.019000    -11.518000
C          25.559000     17.154000     -9.290000
C          26.530000     17.064000     -8.295000
S          23.552000     17.643000    -10.627000
N          24.338000     17.780000     -9.178000
C          26.442000     17.635000     -6.951000
S          25.325000     18.871000     -6.341000
C          27.194000     17.081000     -5.910000
C          25.830000     18.559000     -4.659000
S          28.293000     15.720000     -5.794000
C          26.773000     17.533000     -4.658000
C          25.180000     19.052000     -3.512000
C          28.183000     15.759000     -4.047000
C          27.347000     16.773000     -3.605000
N          25.286000     18.424000     -2.372000
S          24.356000     20.611000     -3.427000
C          24.857000     19.101000     -1.293000
C          24.249000     20.281000     -1.659000
C          27.894000     13.388000    -15.904000
H          27.620000     16.126000    -15.510000
H          27.255000     17.309000    -13.365000
H          27.426000     13.449000    -11.425000
H          28.735000     15.261000    -10.008000
H          28.688000     14.940000     -3.551000
H          27.267000     16.959000     -2.540000
H          24.907000     18.659000     -0.307000
H          23.803000     21.097000     -1.106000
H          26.914000     12.926000    -16.079000
C          28.984000     12.293000    -15.856000
H          28.173000     14.194000    -16.593000
H          28.580000     11.466000    -15.258000
H          29.849000     12.708000    -15.325000
C          29.399000     11.756000    -17.261000
H          29.706000     12.607000    -17.881000
C          28.395000     10.833000    -18.020000
H          30.337000     11.190000    -17.203000
H          28.687000     10.624000    -19.057000
H          27.542000     11.504000    -18.181000
C          27.926000      9.477000    -17.448000
H          28.747000      8.794000    -17.201000
C          26.881000      8.796000    -18.377000
H          27.447000      9.669000    -16.480000
H          27.494000      8.767000    -19.286000
H          25.933000      9.327000    -18.526000
H          26.707000      7.748000    -18.103000
$end

--------------------------------------------------------------

             Standard Nuclear Orientation (Angstroms)
    I     Atom           X                Y                Z
 ----------------------------------------------------------------
    1      C       6.6838887395    -4.2961301804     0.9947985034
    2      C       6.6037661301    -3.1110991928     1.7953757488
    3      N       5.7064632447    -4.8116843256     0.2174540973
    4      C       5.4176383123    -2.3274223631     1.7083560592
    5      C       4.6201434044    -4.0402855817     0.1225848064
    6      C       4.3836487075    -2.7861095866     0.8330746598
    7      C       3.0377231173    -2.1810701919     0.7742389858
    8      C       1.8443500913    -2.9190289042     0.8180083797
    9      C       2.8739978052    -0.7788235691     0.8978125710
   10      N       0.6375612615    -2.2995776924     0.9952368102
   11      N       3.8656763133     0.0392141382     0.6669077289
   12      C       1.6378369526    -0.1614837638     1.0651502869
   13      C       0.5066500654    -0.9994387568     1.1604427628
   14      S       3.2293505737     1.5164390516     0.9432428665
   15      N       1.6522170525     1.1569158332     1.2038611924
   16      C      -0.8722571910    -0.4853913074     1.3257424845
   17      S      -1.3744673097     1.1878846273     1.6746517034
   18      C      -2.0177980150    -1.3122879240     1.4022552689
   19      C      -3.0031421154     0.6533722803     2.1508606155
   20      S      -2.3030849637    -2.9257326545     0.6967544124
   21      C      -3.1488688115    -0.7158077800     1.8828499953
   22      C      -4.0529081326     1.4899213951     2.6337838888
   23      C      -3.9781897240    -2.7760251905     1.1832836685
   24      C      -4.2848357365    -1.5596401107     1.7585232367
   25      N      -3.6730578272     2.7206497908     2.7809380978
   26      S      -5.4845640034     1.0249273427     3.5322447944
   27      C      -4.5654274071     3.4468121966     3.5633361379
   28      C      -5.5470912630     2.6631844684     4.1103148006
   29      C       7.7579213913    -5.3259561235     1.2199459880
   30      H       7.4465963260    -2.9156641194     2.4524293180
   31      H       5.3714641678    -1.4507851846     2.3468630722
   32      H       3.8339386363    -4.5018696562    -0.4721127679
   33      H       1.8998374701    -3.9963184604     0.6674448952
   34      H      -4.6316328429    -3.6007537866     0.9319654776
   35      H      -5.2759554126    -1.3003832609     2.1120662660
   36      H      -4.4030481831     4.5072172102     3.7018142764
   37      H      -6.3418018743     2.8610406519     4.8178979936
   38      H       8.3186992218    -5.0656411478     2.1254609454
   39      C       8.8937312048    -5.4572312544     0.0992123410
   40      H       7.1909919509    -6.2617436604     1.3018098721
   41      H       8.5500978310    -5.6721662029    -0.9206308196
   42      H       9.5306838650    -6.3266510094     0.3012311481
   43      C       9.8436327253    -4.1953988398     0.1106604255
   44      H       9.2302284887    -3.3015328879    -0.0563033505
   45      C      10.7704558276    -4.1403420133    -1.0594184962
   46      H      10.3833503470    -4.0633783011     1.0564619196
   47      H      11.1696121315    -3.1195963637    -1.0811800198
   48      H      10.2393899425    -4.1423809641    -2.0185216545
   49      C      11.9571106479    -5.0662076592    -1.1187240021
   50      H      11.5418026642    -6.0805639152    -1.1565216834
   51      C      12.8166873093    -5.0464332292     0.1481958593
   52      H      12.5360782240    -4.9469962744    -2.0432428994
   53      H      13.6866226474    -5.7149202955     0.1469509796
   54      H      12.2775677311    -5.2169983705     1.0875784294
   55      H      13.2741232631    -4.0503898317     0.1109011086
   56      C       2.2342814078     5.2528407756    -1.9341901063
   57      C       2.0387516259     4.4850397385    -3.0886824934
   58      N       1.5055972143     5.0206876424    -0.8101966592
   59      C       1.0010724822     3.5619786125    -3.1524096642
   60      C       0.5629673196     4.1135325062    -0.8243189940
   61      C       0.2191917457     3.3359486481    -2.0146091681
   62      C      -0.8917852651     2.3487116710    -1.9881094980
   63      C      -2.1935772725     2.7419262226    -1.6328238580
   64      C      -0.6146158437     0.9745284297    -2.0883618340
   65      N      -3.2482014801     1.8713455849    -1.5356017723
   66      N       0.5901887399     0.3798332079    -2.3067388213
   67      C      -1.7103008620     0.1123696266    -1.8354121576
   68      C      -3.0197468234     0.5656602998    -1.6910347360
   69      S       0.3299653748    -1.2315778907    -2.1284270952
   70      N      -1.3146045437    -1.2009285491    -1.9534516658
   71      C      -4.2214102639    -0.2680119108    -1.6576188567
   72      S      -4.4123101913    -1.9606115484    -2.1537525933
   73      C      -5.3755309994     0.2015958978    -1.0223434566
   74      C      -6.0321564791    -2.0406157202    -1.4113306536
   75      S      -5.7684321201     1.6644851938    -0.1396421384
   76      C      -6.3118743189    -0.8128454825    -0.8144519612
   77      C      -6.7733088396    -3.2194957259    -1.2061645972
   78      C      -7.2028414913     0.9035746113     0.5154264391
   79      C      -7.3497906199    -0.3981449514     0.0611268312
   80      N      -7.6770229945    -3.2756826518    -0.2652268970
   81      S      -6.7239636582    -4.6251904234    -2.2730617199
   82      C      -8.5041692489    -4.3339303046    -0.3157440150
   83      C      -8.1095896319    -5.2240494816    -1.2894045187
   84      C       3.4353690242     6.1866939603    -1.7672776529
   85      H       2.7320123767     4.5748109248    -3.9199686448
   86      H       0.8755340703     2.9394046569    -4.0325458906
   87      H      -0.1426748061     4.1031817414     0.0049427573
   88      H      -2.3288198070     3.8083842750    -1.4574451833
   89      H      -7.7231604651     1.4978698615     1.2556178475
   90      H      -8.2477373001    -0.9461072685     0.3231383933
   91      H      -9.2837753542    -4.4621461377     0.4230624690
   92      H      -8.5077836138    -6.1621420076    -1.6527293947
   93      H       4.1556007471     5.6695827700    -1.1204923082
   94      C       3.0555341732     7.5470347368    -1.1390838469
   95      H       3.7325518222     6.3044635764    -2.8160916031
   96      H       2.9014733306     7.3718119949    -0.0665582074
   97      H       2.0991062582     7.8591731796    -1.5752331747
   98      C       4.1403163815     8.6525070025    -1.3282864636
   99      H       4.3567680603     8.7466483690    -2.3993308482
  100      C       5.4528797969     8.5439554658    -0.4907783475
  101      H       3.7298568994     9.6460915249    -1.1094787615
  102      H       6.2260667435     9.2632785492    -0.7892247368
  103      H       5.8891305011     7.6100102335    -0.8665477263
  104      C       5.4507509712     8.5660312547     1.0536921532
  105      H       4.9596555403     9.4473426031     1.4822415492
  106      C       6.8832139110     8.3781522191     1.6295205950
  107      H       4.8320689810     7.7290716457     1.4001892066
  108      H       7.3552475705     9.2273716195     1.1206968198
  109      H       7.3822834166     7.4264495915     1.4102998448
  110      H       6.9305608426     8.6105445829     2.7006919432
 ----------------------------------------------------------------

   10   -5663.5073104554      4.48E-06 Convergence criterion met
 Total energy in the final basis set = -5663.5073104554

                    Orbital Energies (a.u.)
 --------------------------------------------------------------

 Alpha MOs
 -- Occupied --
-88.985 -88.978 -88.928 -88.924 -88.924 -88.923 -88.905 -88.902
-14.385 -14.379 -14.378 -14.375 -14.348 -14.341 -14.337 -14.336
-14.332 -14.323 -10.267 -10.259 -10.258 -10.257 -10.250 -10.249
-10.246 -10.245 -10.243 -10.239 -10.238 -10.237 -10.237 -10.235
-10.235 -10.234 -10.230 -10.230 -10.229 -10.228 -10.227 -10.225
-10.223 -10.223 -10.222 -10.221 -10.219 -10.218 -10.218 -10.215
-10.209 -10.207 -10.205 -10.205 -10.199 -10.195 -10.195 -10.194
-10.185 -10.184 -10.183 -10.178 -10.178 -10.178 -10.176 -10.176
-10.173 -10.173 -10.170 -10.169  -8.039  -8.034  -7.986  -7.985
 -7.985  -7.980  -7.964  -7.961  -6.004  -5.999  -5.998  -5.997
 -5.994  -5.992  -5.951  -5.949  -5.949  -5.947  -5.946  -5.946
 -5.944  -5.943  -5.942  -5.942  -5.940  -5.937  -5.929  -5.925
 -5.925  -5.922  -5.921  -5.917  -1.048  -1.020  -0.976  -0.971
 -0.956  -0.956  -0.940  -0.938  -0.919  -0.908  -0.903  -0.887
 -0.844  -0.837  -0.830  -0.829  -0.806  -0.806  -0.802  -0.799
 -0.799  -0.796  -0.796  -0.792  -0.782  -0.781  -0.767  -0.765
 -0.746  -0.742  -0.736  -0.734  -0.726  -0.719  -0.707  -0.707
 -0.689  -0.687  -0.670  -0.669  -0.656  -0.650  -0.646  -0.641
 -0.634  -0.634  -0.625  -0.624  -0.616  -0.611  -0.601  -0.599
 -0.593  -0.592  -0.585  -0.583  -0.576  -0.574  -0.553  -0.547
 -0.547  -0.540  -0.537  -0.533  -0.524  -0.520  -0.517  -0.510
 -0.501  -0.501  -0.499  -0.496  -0.488  -0.487  -0.479  -0.476
 -0.470  -0.470  -0.468  -0.463  -0.461  -0.454  -0.450  -0.449
 -0.449  -0.446  -0.443  -0.437  -0.435  -0.433  -0.430  -0.428
 -0.424  -0.423  -0.419  -0.419  -0.416  -0.415  -0.413  -0.413
 -0.409  -0.405  -0.404  -0.401  -0.401  -0.397  -0.396  -0.393
 -0.392  -0.388  -0.387  -0.386  -0.383  -0.381  -0.381  -0.380
 -0.378  -0.374  -0.373  -0.369  -0.363  -0.361  -0.358  -0.352
 -0.350  -0.348  -0.346  -0.345  -0.342  -0.341  -0.340  -0.339
 -0.336  -0.334  -0.330  -0.330  -0.327  -0.325  -0.322  -0.320
 -0.318  -0.314  -0.306  -0.303  -0.303  -0.300  -0.295  -0.293
 -0.290  -0.288  -0.288  -0.286  -0.283  -0.283  -0.278  -0.277
 -0.270  -0.267  -0.264  -0.262  -0.261  -0.255  -0.251  -0.239
 -0.237  -0.236  -0.233  -0.227  -0.193  -0.185

          Ground-State Mulliken Net Atomic Charges

     Atom                 Charge (a.u.)
  ----------------------------------------
      1 C                     0.279552
      2 C                    -0.125379
      3 N                    -0.465365
      4 C                    -0.048476
      5 C                     0.064527
      6 C                     0.025239
      7 C                     0.033251
      8 C                     0.061225
      9 C                     0.194606
     10 N                    -0.536842
     11 N                    -0.522281
     12 C                     0.224330
     13 C                     0.318314
     14 S                     0.588935
     15 N                    -0.558498
     16 C                    -0.260819
     17 S                     0.355100
     18 C                    -0.130079
     19 C                    -0.221570
     20 S                     0.300414
     21 C                     0.157815
     22 C                     0.090018
     23 C                    -0.308393
     24 C                    -0.084240
     25 N                    -0.435372
     26 S                     0.268564
     27 C                     0.123220
     28 C                    -0.326705
     29 C                    -0.229158
     30 H                     0.099442
     31 H                     0.110693
     32 H                     0.097204
     33 H                     0.114684
     34 H                     0.137641
     35 H                     0.115006
     36 H                     0.118593
     37 H                     0.137474
     38 H                     0.087862
     39 C                    -0.180963
     40 H                     0.121635
     41 H                     0.105897
     42 H                     0.095219
     43 C                    -0.177859
     44 H                     0.097381
     45 C                    -0.176831
     46 H                     0.090517
     47 H                     0.080497
     48 H                     0.089928
     49 C                    -0.172186
     50 H                     0.089373
     51 C                    -0.318526
     52 H                     0.091623
     53 H                     0.098546
     54 H                     0.105742
     55 H                     0.098999
     56 C                     0.246513
     57 C                    -0.122307
     58 N                    -0.467709
     59 C                    -0.053325
     60 C                     0.092421
     61 C                    -0.002382
     62 C                    -0.017755
     63 C                     0.082043
     64 C                     0.270792
     65 N                    -0.541010
     66 N                    -0.574958
     67 C                     0.203363
     68 C                     0.322200
     69 S                     0.619559
     70 N                    -0.563392
     71 C                    -0.212753
     72 S                     0.325814
     73 C                    -0.104801
     74 C                    -0.217349
     75 S                     0.294372
     76 C                     0.153328
     77 C                     0.065858
     78 C                    -0.320094
     79 C                    -0.051195
     80 N                    -0.442177
     81 S                     0.235337
     82 C                     0.139501
     83 C                    -0.317129
     84 C                    -0.206754
     85 H                     0.088556
     86 H                     0.103393
     87 H                     0.111918
     88 H                     0.120731
     89 H                     0.138319
     90 H                     0.116394
     91 H                     0.121079
     92 H                     0.130467
     93 H                     0.123522
     94 C                    -0.172574
     95 H                     0.089446
     96 H                     0.119304
     97 H                     0.095495
     98 C                    -0.191282
     99 H                     0.088019
    100 C                    -0.175159
    101 H                     0.087287
    102 H                     0.084891
    103 H                     0.090602
    104 C                    -0.181250
    105 H                     0.094973
    106 C                    -0.316987
    107 H                     0.095029
    108 H                     0.102459
    109 H                     0.108485
    110 H                     0.101344
  ----------------------------------------
  Sum of atomic charges =     0.000000

                    Cartesian Multipole Moments
 -----------------------------------------------------------------
    Charge (ESU x 10^10)
                 0.0000
    Dipole Moment (Debye)
         X      -2.1378      Y      -0.2938      Z       1.0026
       Tot       2.3795
    Quadrupole Moments (Debye-Ang)
        XX    -397.9873     XY      16.0611     YY    -437.2300
        XZ     -10.6135     YZ       3.7718     ZZ    -433.5828

 Total job time:  113.67s(wall), 1328.02s(cpu)
        *  Thank you very much for using Q-Chem.  Have a nice day.  *
