 Q-Chem 4.4, Q-Chem, Inc., Pleasanton, CA (2016)
 Q-Chem 4.4.2 for Intel X86 Linux

User input:
--------------------------------------------------------------
$comment
SP
$end

$rem
MEM_STATIC 5000
MEM_TOTAL 20000
JOBTYPE SP
EXCHANGE B3LYP
BASIS 6-31g(d,p)
$end

$molecule
0 1
C           1.880000     11.032000     -2.572000
C           3.006000     11.068000     -1.751000
N           1.122000      9.939000     -2.619000
C           3.482000      9.897000     -1.191000
C           1.547000      8.778000     -2.122000
C           2.832000      8.663000     -1.417000
C           3.239000      7.383000     -0.718000
C           4.575000      7.169000     -0.433000
C           2.335000      6.403000     -0.130000
N           5.014000      6.146000      0.324000
N           1.030000      6.479000     -0.260000
C           2.771000      5.314000      0.600000
C           4.175000      5.127000      0.737000
S           0.434000      5.148000      0.465000
N           1.821000      4.447000      1.006000
C           4.800000      3.973000      1.409000
S           3.861000      2.687000      2.163000
C           6.190000      3.658000      1.536000
C           5.315000      1.733000      2.552000
S           7.578000      4.620000      1.090000
C           6.472000      2.485000      2.311000
C           5.374000      0.494000      3.211000
C           8.547000      3.353000      1.916000
C           7.832000      2.346000      2.588000
N           4.278000     -0.293000      3.122000
S           6.731000     -0.269000      4.066000
C           4.423000     -1.436000      3.875000
C           5.656000     -1.560000      4.406000
C           1.367000     12.350000     -3.102000
H           3.556000     11.992000     -1.598000
H           4.369000      9.994000     -0.572000
H           0.856000      7.954000     -2.295000
H           5.195000      8.018000     -0.717000
H           9.617000      3.441000      1.787000
H           8.397000      1.574000      3.098000
H           3.607000     -2.132000      4.017000
H           6.006000     -2.204000      5.202000
H           0.442000     12.147000     -3.656000
C           2.275000     13.065000     -4.138000
H           1.114000     13.000000     -2.255000
H           3.195000     13.482000     -3.711000
H           1.734000     13.965000     -4.458000
C           2.643000     12.118000     -5.303000
H           3.175000     11.246000     -4.903000
C           3.393000     12.910000     -6.435000
H           1.636000     11.825000     -5.623000
H           4.275000     13.414000     -6.020000
H           2.777000     13.788000     -6.667000
C           3.776000     11.975000     -7.630000
H           4.516000     11.269000     -7.233000
C           4.470000     12.839000     -8.766000
H           2.907000     11.528000     -8.129000
H           3.947000     13.749000     -9.086000
H           4.610000     12.234000     -9.671000
H           5.427000     13.290000     -8.477000
C           7.250000      8.315000     13.196000
C           6.087000      8.349000     12.483000
N           7.900000      7.201000     13.569000
C           5.556000      7.059000     12.095000
C           7.432000      5.984000     13.199000
C           6.215000      5.846000     12.439000
C           5.699000      4.505000     12.025000
C           5.200000      4.299000     10.706000
C           5.639000      3.408000     12.890000
N           4.511000      3.202000     10.327000
N           6.092000      3.445000     14.154000
C           4.969000      2.242000     12.548000
C           4.380000      2.187000     11.253000
S           5.655000      2.010000     14.780000
N           4.803000      1.300000     13.504000
C           3.450000      1.057000     10.876000
S           2.348000      0.180000     11.976000
C           3.376000      0.532000      9.619000
C           1.611000     -0.733000     10.692000
S           4.480000      0.626000      8.287000
C           2.400000     -0.493000      9.574000
C           0.628000     -1.730000     10.810000
C           3.597000     -0.722000      7.530000
C           2.531000     -1.200000      8.323000
N           0.217000     -2.396000      9.737000
S          -0.337000     -2.060000     12.273000
C          -0.692000     -3.330000     10.017000
C          -0.908000     -3.448000     11.373000
C           8.050000      9.643000     13.407000
H           5.576000      9.275000     12.236000
H           4.680000      7.051000     11.453000
H           7.972000      5.096000     13.526000
H           5.154000      5.184000     10.073000
H           3.999000     -1.065000      6.585000
H           1.939000     -2.079000      8.095000
H          -1.053000     -3.992000      9.241000
H          -1.584000     -4.182000     11.792000
H           9.071000      9.447000     13.756000
C           7.248000     10.663000     14.250000
H           8.259000     10.022000     12.399000
H           6.947000     10.234000     15.214000
H           6.348000     10.962000     13.699000
C           8.041000     12.010000     14.423000
H           9.092000     11.712000     14.521000
C           7.435000     12.992000     15.401000
H           8.064000     12.496000     13.439000
H           7.378000     12.662000     16.446000
H           6.421000     13.197000     15.037000
C           8.198000     14.343000     15.402000
H           9.292000     14.259000     15.411000
C           7.588000     15.246000     16.546000
H           8.010000     14.747000     14.399000
H           8.031000     15.015000     17.522000
H           6.493000     15.207000     16.584000
H           7.949000     16.256000     16.313000
$end

--------------------------------------------------------------

             Standard Nuclear Orientation (Angstroms)
    I     Atom           X                Y                Z
 ----------------------------------------------------------------
    1      C      10.3251908768     2.1844413932    -2.3581369808
    2      C       9.4903091250     2.8065045913    -1.4311942436
    3      N      10.0359315089     0.9645225398    -2.8048460685
    4      C       8.5170713703     2.0683235759    -0.7836496031
    5      C       9.1286964911     0.2003568417    -2.1977790142
    6      C       8.3365020660     0.6949828073    -1.0623283781
    7      C       7.2000578209    -0.1167685228    -0.4773461085
    8      C       6.7602241433     0.1683611164     0.8021711539
    9      C       6.3700796726    -1.0729510886    -1.1986027718
   10      N       5.6587975240    -0.3837616077     1.3446828127
   11      N       6.6141359980    -1.4237283540    -2.4408156441
   12      C       5.2705552190    -1.6941298334    -0.6381565720
   13      C       4.9732215227    -1.4125490909     0.7246563126
   14      S       5.5090361845    -2.5632670949    -2.8049692657
   15      N       4.6537211643    -2.6202235759    -1.4003187129
   16      C       3.8907283894    -2.0563015754     1.4912829199
   17      S       2.7998206481    -3.2451711283     0.7837926470
   18      C       3.5582141448    -1.8973992876     2.8739030196
   19      C       1.9912166592    -3.5597205369     2.3403180271
   20      S       4.2139182846    -0.7717928726     4.0375035867
   21      C       2.3982028575    -2.6244068866     3.3004141733
   22      C       0.9321976015    -4.4480318153     2.5898469994
   23      C       2.9224696556    -1.3684246353     5.1341881259
   24      C       1.9907348973    -2.2672797375     4.5857468387
   25      N       0.8157461311    -5.5033164545     1.7523988605
   26      S      -0.2355234051    -4.4686541026     3.9279969805
   27      C      -0.3030292665    -6.2499771520     2.0444988647
   28      C      -0.9324848758    -5.8344314031     3.1619662542
   29      C      11.3254806030     3.0541067185    -3.0822196318
   30      H       9.6359828938     3.8479353426    -1.1593741867
   31      H       7.9096560634     2.6113276252    -0.0656438598
   32      H       9.0475864581    -0.7981240928    -2.6253804477
   33      H       7.2812377782     1.0219686232     1.2331653725
   34      H       2.9953282501    -1.0209960578     6.1555940240
   35      H       1.1994572411    -2.6360148965     5.2285711174
   36      H      -0.6229171825    -7.0679667058     1.4128337548
   37      H      -1.9289067365    -6.0580316444     3.5197349050
   38      H      11.8374252755     2.4254224413    -3.8214210468
   39      C      12.4783192472     3.6285192120    -2.2161951818
   40      H      10.7860993798     3.8392236661    -3.6268087198
   41      H      12.1611845811     4.4078989593    -1.5129094554
   42      H      13.1363337555     4.1806761176    -2.8997305930
   43      C      13.1998991245     2.5066706265    -1.4350189970
   44      H      12.4779676874     2.0028683104    -0.7804915137
   45      C      14.4811806404     3.0739507430    -0.7224890351
   46      H      13.4678375107     1.8483192481    -2.2699324558
   47      H      14.2089629264     3.9169265481    -0.0748361125
   48      H      15.0548909027     3.6128564285    -1.4870812120
   49      C      15.2338777791     1.9576198872     0.0751270617
   50      H      14.5584982018     1.6627039247     0.8878582606
   51      C      16.5486101658     2.5723348309     0.7171802443
   52      H      15.6036777984     1.1428035180    -0.5599266605
   53      H      17.2088586499     3.1387157173     0.0483651498
   54      H      17.1663404697     1.7764628075     1.1526650248
   55      H      16.3694261868     3.3487233238     1.4707616996
   56      C      -5.7271041011     6.3557714541     0.7679859318
   57      C      -4.9652312554     5.8208320445    -0.2297533102
   58      N      -6.5186244160     5.6592223265     1.5992138813
   59      C      -5.0235255642     4.3793576300    -0.3536818614
   60      C      -6.5723550004     4.3075805577     1.5144167520
   61      C      -5.8238994493     3.5868258867     0.5153872268
   62      C      -5.8772109519     2.0953492015     0.4227147880
   63      C      -4.6848767528     1.3413333893     0.2202368572
   64      C      -7.0689123510     1.3668568795     0.4889017372
   65      N      -4.6712999077     0.0310670314    -0.1034740334
   66      N      -8.2667309958     1.9375056507     0.6983402106
   67      C      -7.1157469068     0.0117628867     0.1940343174
   68      C      -5.8854528711    -0.6244226425    -0.1355344283
   69      S      -9.3282658729     0.7183720798     0.5282606969
   70      N      -8.3293149042    -0.5783878933     0.1055426654
   71      C      -5.8677661467    -2.0335204644    -0.6814826933
   72      S      -7.1235974333    -2.7895576913    -1.7036512173
   73      C      -4.8778914076    -2.9322962012    -0.4103735348
   74      C      -6.1978461085    -4.2386605670    -1.9653367920
   75      S      -3.6845434336    -2.9562551367     0.8455016908
   76      C      -5.1288078381    -4.1533236042    -1.0822061226
   77      C      -6.5901588422    -5.3840793427    -2.6783084235
   78      C      -3.3937960879    -4.6704502040     0.4623003702
   79      C      -4.2243214892    -5.1549714581    -0.5716994905
   80      N      -5.7971046333    -6.4483462042    -2.7252878793
   81      S      -7.9997159580    -5.4906022835    -3.7656425949
   82      C      -6.3233858243    -7.4634865862    -3.4105287952
   83      C      -7.6128885913    -7.1965647384    -3.8170399769
   84      C      -5.5101487194     7.8524424037     1.1692482286
   85      H      -4.3681890526     6.4285727708    -0.9033984822
   86      H      -4.3638339956     3.9123929104    -1.0791851247
   87      H      -7.2325499174     3.7682042068     2.1928626406
   88      H      -3.7769469764     1.9225684351     0.0657721601
   89      H      -2.6648638973    -5.1671448087     1.0901780106
   90      H      -4.2810246634    -6.1920813254    -0.8819846387
   91      H      -5.8093028593    -8.4142290902    -3.4610104367
   92      H      -8.2146657585    -7.9192920097    -4.3525981273
   93      H      -5.9800612918     8.0832448027     2.1328718206
   94      C      -5.8738579914     8.8110734230     0.0103715594
   95      H      -4.4515371242     7.9306769498     1.4460276466
   96      H      -6.9024970012     8.6469991861    -0.3344754102
   97      H      -5.1879962785     8.6432267417    -0.8289276735
   98      C      -5.6142251536    10.3106383179     0.4067084306
   99      H      -5.8887607010    10.3774793561     1.4665062929
  100      C      -6.1316353866    11.3350943442    -0.5785938077
  101      H      -4.5262486159    10.4392575551     0.4755934450
  102      H      -7.2184625172    11.3569054910    -0.7286106803
  103      H      -5.6450604114    11.1096111919    -1.5352124054
  104      C      -5.7081201125    12.7743079732    -0.1827782665
  105      H      -5.8267782744    13.0179432735     0.8804879660
  106      C      -6.4079995996    13.7797253783    -1.1805505577
  107      H      -4.6161004362    12.7618431360    -0.2918958840
  108      H      -7.4320704466    14.0132715551    -0.8660333347
  109      H      -6.3768067418    13.4400000647    -2.2224736435
  110      H      -5.8582062086    14.7199674306    -1.0449699156
 ----------------------------------------------------------------

   10   -5663.5021305883      6.73E-06 Convergence criterion met
 Total energy in the final basis set = -5663.5021305883

                    Orbital Energies (a.u.)
 --------------------------------------------------------------

 Alpha MOs
 -- Occupied --
-88.990 -88.986 -88.930 -88.925 -88.924 -88.923 -88.918 -88.907
-14.398 -14.390 -14.390 -14.381 -14.357 -14.349 -14.341 -14.335
-14.328 -14.324 -10.268 -10.268 -10.267 -10.267 -10.258 -10.257
-10.255 -10.254 -10.246 -10.242 -10.242 -10.239 -10.238 -10.236
-10.235 -10.234 -10.232 -10.229 -10.228 -10.227 -10.226 -10.226
-10.226 -10.225 -10.225 -10.225 -10.224 -10.223 -10.223 -10.221
-10.219 -10.216 -10.212 -10.211 -10.207 -10.202 -10.196 -10.194
-10.187 -10.184 -10.184 -10.184 -10.182 -10.181 -10.181 -10.178
-10.177 -10.177 -10.176 -10.172  -8.045  -8.042  -7.991  -7.986
 -7.983  -7.982  -7.977  -7.968  -6.010  -6.007  -6.005  -6.003
 -6.001  -5.999  -5.955  -5.952  -5.949  -5.948  -5.947  -5.947
 -5.947  -5.943  -5.943  -5.942  -5.941  -5.939  -5.939  -5.938
 -5.933  -5.932  -5.929  -5.924  -1.046  -1.041  -0.973  -0.964
 -0.951  -0.947  -0.940  -0.934  -0.915  -0.914  -0.908  -0.906
 -0.843  -0.841  -0.832  -0.825  -0.809  -0.809  -0.806  -0.806
 -0.804  -0.800  -0.798  -0.793  -0.784  -0.781  -0.766  -0.763
 -0.750  -0.747  -0.741  -0.736  -0.722  -0.720  -0.710  -0.704
 -0.693  -0.691  -0.676  -0.675  -0.655  -0.653  -0.645  -0.642
 -0.636  -0.635  -0.628  -0.623  -0.613  -0.610  -0.599  -0.594
 -0.593  -0.589  -0.583  -0.581  -0.580  -0.578  -0.577  -0.574
 -0.550  -0.545  -0.541  -0.535  -0.531  -0.523  -0.520  -0.505
 -0.505  -0.504  -0.502  -0.502  -0.486  -0.484  -0.477  -0.476
 -0.472  -0.472  -0.470  -0.467  -0.466  -0.462  -0.448  -0.446
 -0.442  -0.440  -0.439  -0.437  -0.434  -0.433  -0.432  -0.430
 -0.429  -0.428  -0.424  -0.423  -0.416  -0.416  -0.414  -0.409
 -0.409  -0.407  -0.402  -0.400  -0.398  -0.397  -0.396  -0.396
 -0.395  -0.392  -0.391  -0.390  -0.386  -0.384  -0.383  -0.379
 -0.379  -0.378  -0.375  -0.374  -0.366  -0.361  -0.360  -0.354
 -0.353  -0.352  -0.351  -0.350  -0.347  -0.346  -0.345  -0.343
 -0.342  -0.337  -0.335  -0.335  -0.333  -0.332  -0.327  -0.327
 -0.324  -0.317  -0.315  -0.314  -0.307  -0.303  -0.299  -0.298
 -0.295  -0.294  -0.293  -0.290  -0.287  -0.283  -0.281  -0.279
 -0.274  -0.272  -0.267  -0.264  -0.259  -0.248  -0.245  -0.243
 -0.242  -0.240  -0.232  -0.232  -0.193  -0.189

          Ground-State Mulliken Net Atomic Charges

     Atom                 Charge (a.u.)
  ----------------------------------------
      1 C                     0.281828
      2 C                    -0.106133
      3 N                    -0.477891
      4 C                    -0.077448
      5 C                     0.088586
      6 C                    -0.000386
      7 C                     0.060353
      8 C                     0.064234
      9 C                     0.233973
     10 N                    -0.537118
     11 N                    -0.545182
     12 C                     0.212900
     13 C                     0.298555
     14 S                     0.595698
     15 N                    -0.561256
     16 C                    -0.223360
     17 S                     0.377673
     18 C                    -0.124767
     19 C                    -0.207762
     20 S                     0.299063
     21 C                     0.128342
     22 C                     0.042649
     23 C                    -0.306141
     24 C                    -0.088541
     25 N                    -0.436422
     26 S                     0.276839
     27 C                     0.127697
     28 C                    -0.319456
     29 C                    -0.243821
     30 H                     0.090288
     31 H                     0.099478
     32 H                     0.124510
     33 H                     0.104735
     34 H                     0.127832
     35 H                     0.128636
     36 H                     0.122588
     37 H                     0.135630
     38 H                     0.114491
     39 C                    -0.192232
     40 H                     0.110651
     41 H                     0.084849
     42 H                     0.094319
     43 C                    -0.173088
     44 H                     0.100866
     45 C                    -0.175875
     46 H                     0.100728
     47 H                     0.089620
     48 H                     0.091372
     49 C                    -0.169519
     50 H                     0.104472
     51 C                    -0.331887
     52 H                     0.104835
     53 H                     0.100936
     54 H                     0.096867
     55 H                     0.099276
     56 C                     0.271113
     57 C                    -0.097957
     58 N                    -0.489408
     59 C                    -0.101267
     60 C                     0.096584
     61 C                     0.029911
     62 C                     0.016831
     63 C                     0.059170
     64 C                     0.233476
     65 N                    -0.480191
     66 N                    -0.532741
     67 C                     0.232682
     68 C                     0.224710
     69 S                     0.597513
     70 N                    -0.558703
     71 C                    -0.212417
     72 S                     0.312673
     73 C                    -0.081995
     74 C                    -0.200834
     75 S                     0.270364
     76 C                     0.114032
     77 C                     0.065146
     78 C                    -0.313878
     79 C                    -0.048930
     80 N                    -0.433322
     81 S                     0.253222
     82 C                     0.131245
     83 C                    -0.305683
     84 C                    -0.230462
     85 H                     0.099240
     86 H                     0.098980
     87 H                     0.118994
     88 H                     0.111307
     89 H                     0.126561
     90 H                     0.122232
     91 H                     0.115801
     92 H                     0.120347
     93 H                     0.115950
     94 C                    -0.182468
     95 H                     0.105238
     96 H                     0.106742
     97 H                     0.090764
     98 C                    -0.183101
     99 H                     0.091557
    100 C                    -0.166351
    101 H                     0.086606
    102 H                     0.093880
    103 H                     0.092936
    104 C                    -0.180621
    105 H                     0.095814
    106 C                    -0.325667
    107 H                     0.090861
    108 H                     0.109047
    109 H                     0.107401
    110 H                     0.099987
  ----------------------------------------
  Sum of atomic charges =     0.000000

                    Cartesian Multipole Moments
 -----------------------------------------------------------------
    Charge (ESU x 10^10)
                 0.0000
    Dipole Moment (Debye)
         X      -0.8069      Y       0.9047      Z       1.0141
       Tot       1.5805
    Quadrupole Moments (Debye-Ang)
        XX    -443.4413     XY      38.8894     YY    -409.8401
        XZ      15.0416     YZ      -4.1574     ZZ    -431.9538

 Total job time:  86.03s(wall), 1001.74s(cpu)
        *  Thank you very much for using Q-Chem.  Have a nice day.  *
