 Q-Chem 4.4, Q-Chem, Inc., Pleasanton, CA (2016)
 Q-Chem 4.4.2 for Intel X86 Linux

User input:
--------------------------------------------------------------
$comment
SP
$end

$rem
MEM_STATIC 5000
MEM_TOTAL 20000
JOBTYPE SP
EXCHANGE B3LYP
BASIS 6-31g(d,p)
$end

$molecule
0 1
C         -22.579000    -26.318000      0.687000
C         -23.028000    -25.310000      1.546000
N         -23.346000    -27.426000      0.467000
C         -24.274000    -25.519000      2.197000
C         -24.443000    -27.648000      1.111000
C         -25.011000    -26.721000      2.041000
C         -26.281000    -26.793000      2.764000
C         -26.307000    -26.434000      4.136000
C         -27.487000    -27.172000      2.156000
N         -27.483000    -26.401000      4.888000
N         -27.602000    -27.567000      0.825000
C         -28.658000    -27.063000      2.895000
C         -28.683000    -26.573000      4.235000
S         -29.202000    -27.973000      0.698000
N         -29.763000    -27.534000      2.235000
C         -29.965000    -26.300000      4.956000
S         -31.615000    -26.888000      4.548000
C         -30.126000    -25.284000      5.885000
C         -32.388000    -25.700000      5.499000
S         -28.915000    -24.226000      6.527000
C         -31.459000    -24.982000      6.241000
C         -33.800000    -25.522000      5.494000
C         -30.219000    -23.464000      7.520000
C         -31.492000    -23.853000      7.131000
N         -34.365000    -24.592000      6.168000
S         -34.942000    -26.465000      4.474000
C         -35.736000    -24.528000      5.944000
C         -36.200000    -25.497000      5.101000
C         -21.333000    -26.106000     -0.171000
H         -22.417000    -24.460000      1.834000
H         -24.625000    -24.762000      2.892000
H         -25.019000    -28.551000      0.913000
H         -25.367000    -26.141000      4.601000
H         -29.861000    -22.829000      8.319000
H         -32.409000    -23.444000      7.539000
H         -36.267000    -23.742000      6.465000
H         -37.202000    -25.752000      4.782000
H         -20.662000    -25.467000      0.417000
C         -21.477000    -25.603000     -1.629000
H         -20.900000    -27.102000     -0.327000
H         -21.857000    -24.576000     -1.679000
H         -22.242000    -26.141000     -2.203000
C         -20.157000    -25.765000     -2.411000
H         -20.098000    -25.053000     -3.243000
C         -19.953000    -27.175000     -2.994000
H         -19.320000    -25.564000     -1.731000
H         -20.846000    -27.290000     -3.621000
H         -19.994000    -27.890000     -2.164000
C         -18.565000    -27.247000     -3.667000
H         -18.633000    -26.538000     -4.501000
C         -18.331000    -28.692000     -4.052000
H         -17.711000    -26.868000     -3.092000
H         -19.095000    -28.958000     -4.793000
H         -18.327000    -29.387000     -3.204000
H         -17.327000    -28.714000     -4.495000
C         -20.182000    -11.778000      2.353000
C         -19.523000    -12.961000      1.945000
N         -21.521000    -11.694000      2.637000
C         -20.339000    -14.061000      1.566000
C         -22.251000    -12.834000      2.299000
C         -21.697000    -14.051000      1.748000
C         -22.452000    -15.285000      1.304000
C         -23.496000    -15.779000      2.150000
C         -22.411000    -15.802000     -0.031000
N         -24.226000    -16.851000      1.916000
N         -21.555000    -15.367000     -0.967000
C         -23.229000    -16.900000     -0.301000
C         -24.050000    -17.514000      0.730000
S         -21.938000    -16.444000     -2.102000
N         -23.127000    -17.353000     -1.512000
C         -24.679000    -18.822000      0.445000
S         -24.316000    -19.981000     -0.878000
C         -25.521000    -19.456000      1.403000
C         -25.196000    -21.234000     -0.036000
S         -26.188000    -18.805000      2.913000
C         -25.840000    -20.760000      1.055000
C         -25.208000    -22.587000     -0.489000
C         -26.778000    -20.495000      3.152000
C         -26.503000    -21.353000      2.076000
N         -26.130000    -23.446000     -0.008000
S         -24.250000    -23.156000     -1.790000
C         -25.872000    -24.695000     -0.549000
C         -24.912000    -24.729000     -1.545000
C         -19.373000    -10.585000      2.695000
H         -18.449000    -13.048000      1.807000
H         -19.877000    -14.982000      1.223000
H         -23.276000    -12.718000      2.647000
H         -23.821000    -15.302000      3.073000
H         -27.195000    -20.751000      4.117000
H         -26.670000    -22.423000      2.049000
H         -26.384000    -25.598000     -0.242000
H         -24.568000    -25.572000     -2.129000
H         -19.419000    -10.377000      3.771000
C         -19.620000     -9.415000      1.720000
H         -18.347000    -10.933000      2.521000
H         -20.676000     -9.134000      1.628000
H         -19.325000     -9.664000      0.693000
C         -18.849000     -8.115000      2.174000
H         -19.261000     -7.291000      1.578000
C         -17.336000     -8.104000      1.969000
H         -19.086000     -7.908000      3.225000
H         -17.075000     -7.891000      0.925000
H         -16.875000     -9.037000      2.315000
C         -16.605000     -7.082000      2.882000
H         -16.822000     -6.062000      2.541000
C         -15.049000     -7.181000      2.756000
H         -17.021000     -7.334000      3.866000
H         -14.638000     -6.767000      1.827000
H         -14.705000     -8.203000      2.962000
H         -14.629000     -6.562000      3.558000
$end

--------------------------------------------------------------

             Standard Nuclear Orientation (Angstroms)
    I     Atom           X                Y                Z
 ----------------------------------------------------------------
    1      C       2.3237566316     4.9178116598     1.7745526268
    2      C       1.8820265331     3.6055798164     1.9706855137
    3      N       3.6321760836     5.1648823255     1.4723149327
    4      C       2.8553598986     2.5733584718     1.8861914003
    5      C       4.5287032122     4.2355751128     1.4648174649
    6      C       4.2301804721     2.8523551831     1.6756249595
    7      C       5.1163221469     1.6904365520     1.6013886695
    8      C       5.0169415184     0.6907702220     2.6027535977
    9      C       6.0431779517     1.5001310622     0.5657907081
   10      N       5.7677702371    -0.4861153256     2.5750833393
   11      N       6.2584874418     2.4084454689    -0.4683358615
   12      C       6.7282878953     0.2931315390     0.5108405841
   13      C       6.5188255835    -0.7576085726     1.4533880672
   14      S       7.4966543133     1.7121001699    -1.3186364100
   15      N       7.6640228634     0.2443899500    -0.4894045493
   16      C       7.1340039565    -2.1105188666     1.2828497846
   17      S       8.5119003942    -2.5781651306     0.2257706112
   18      C       6.5277769050    -3.2897500973     1.6867315330
   19      C       8.1248314820    -4.2397204292     0.2775938369
   20      S       5.0558681540    -3.4795669728     2.5786413840
   21      C       7.1027634358    -4.4791134974     1.1870974751
   22      C       8.7995057901    -5.2031874441    -0.5236544949
   23      C       5.3248303260    -5.2647945960     2.4907170777
   24      C       6.3264265201    -5.6173983066     1.5987267823
   25      N       8.4642733996    -6.4384989751    -0.5185883601
   26      S      10.0907874453    -4.8143513135    -1.7132809701
   27      C       9.1790787934    -7.1893063634    -1.4455481837
   28      C      10.1207428809    -6.4703989232    -2.1247733590
   29      C       1.3216842071     6.0678269090     1.6912472690
   30      H       0.8803372379     3.3612079975     2.3107825146
   31      H       2.5379725282     1.5505852858     2.0664003544
   32      H       5.5642035342     4.4780052971     1.2295395677
   33      H       4.2953217838     0.8455217547     3.4033726842
   34      H       4.7078338969    -5.8448591457     3.1634952913
   35      H       6.5807444340    -6.6374309464     1.3351175784
   36      H       8.9205737337    -8.2382815236    -1.5089851408
   37      H      10.8662891005    -6.7679602387    -2.8503132256
   38      H       0.4931817573     5.8004114674     2.3593630317
   39      C       0.8149193603     6.5506405080     0.3093683240
   40      H       1.8524337635     6.9582630545     2.0507877802
   41      H       0.2022973905     5.7951224803    -0.1961174147
   42      H       1.6184086003     6.6979097405    -0.4233402227
   43      C       0.0806181104     7.9027388906     0.4225038104
   44      H      -0.6324300563     8.0377773607    -0.3996737395
   45      C       1.0230207251     9.1199000943     0.4215467545
   46      H      -0.4799039861     7.9192016426     1.3653261464
   47      H       1.5535322416     8.9922691446    -0.5303307962
   48      H       1.7277940094     8.9987255492     1.2524603164
   49      C       0.1907254972    10.4028799054     0.6358000107
   50      H      -0.4465376485    10.4623347023    -0.2548299967
   51      C       1.1690854141    11.5430804818     0.8195403675
   52      H      -0.5362643171    10.3950784800     1.4573880751
   53      H       1.7318440299    11.6416421844    -0.1170071919
   54      H       1.8339636769    11.4285731724     1.6838146132
   55      H       0.5484121299    12.4297369988     1.0021708553
   56      C     -10.5561704764    -2.3504670039     0.6734768074
   57      C     -10.0379829081    -1.0751231030     0.9978432338
   58      N      -9.8114094875    -3.3852651372     0.1683462373
   59      C      -8.7278159554    -0.7708501237     0.5391739522
   60      C      -8.5136915893    -3.0301703792    -0.2012210361
   61      C      -7.9254544826    -1.7189080383    -0.0394366747
   62      C      -6.5510698883    -1.2677573648    -0.4837868258
   63      C      -5.4406661879    -2.1352339956    -0.2304571648
   64      C      -6.3285169383    -0.1955731135    -1.4068719333
   65      N      -4.1844507162    -1.8765408856    -0.5335092455
   66      N      -7.2938932451     0.6394369651    -1.8178022862
   67      C      -5.0049384617     0.0435224785    -1.7791639076
   68      C      -3.9037069482    -0.7288420436    -1.2271311201
   69      S      -6.3493995242     1.6345736887    -2.6618861164
   70      N      -4.8534883210     1.0475404388    -2.5860993389
   71      C      -2.5225899178    -0.2520518373    -1.4571677423
   72      S      -1.9684823248     1.3556281330    -2.0348431603
   73      C      -1.4023711984    -0.9845537413    -0.9701000045
   74      C      -0.3427975536     0.9980610790    -1.5031780152
   75      S      -1.3476091242    -2.6156023482    -0.2733421145
   76      C      -0.2121995830    -0.2823334425    -1.0869724898
   77      C       0.6954824801     1.9764677581    -1.5288088944
   78      C       0.3849810192    -2.2124482989     0.0379763844
   79      C       0.7792625168    -0.9627080027    -0.4642748404
   80      N       1.9825043867     1.5902398113    -1.4116398499
   81      S       0.4326039034     3.6225645854    -1.9229993167
   82      C       2.7693658535     2.7302730999    -1.3911671128
   83      C       2.1135322986     3.9151905133    -1.6751126564
   84      C     -11.9418337223    -2.6875162634     1.0747612025
   85      H     -10.6081356018    -0.2864064569     1.4804828074
   86      H      -8.2980216130     0.2051781747     0.7440631520
   87      H      -7.9685792654    -3.9253198081    -0.4957461696
   88      H      -5.5187793609    -3.1235456169     0.2192332525
   89      H       0.9554825046    -2.8892276749     0.6601883509
   90      H       1.7338085934    -0.4771827952    -0.3011029668
   91      H       3.8319856628     2.7208928623    -1.1848829590
   92      H       2.5183090128     4.9156710685    -1.7474692057
   93      H     -11.9457337328    -3.4479250299     1.8652795753
   94      C     -12.8642832800    -2.9040114280    -0.1429212919
   95      H     -12.2786777836    -1.7678826850     1.5696007319
   96      H     -12.4899517573    -3.6528414817    -0.8512224014
   97      H     -12.9655050470    -1.9963084655    -0.7508558984
   98      C     -14.2997903753    -3.3864022425     0.3011231667
   99      H     -14.7999169576    -3.7380166483    -0.6100171690
  100      C     -15.2118353256    -2.3407064324     0.9383117426
  101      H     -14.1953376715    -4.2496792668     0.9700487321
  102      H     -15.6673389251    -1.6915661745     0.1803147793
  103      H     -14.6841819129    -1.7562935772     1.7017051475
  104      C     -16.3420394306    -2.9636646174     1.8025893490
  105      H     -17.0805295419    -3.4470301193     1.1508530933
  106      C     -17.1804348397    -1.8781077432     2.5545683455
  107      H     -15.7729207151    -3.6529285117     2.4396412869
  108      H     -17.8700426121    -1.3104017430     1.9177724460
  109      H     -16.5311281544    -1.2374577084     3.1654892580
  110      H     -17.8201153613    -2.4130883950     3.2668671118
 ----------------------------------------------------------------

   10   -5663.4980319404      5.00E-06 Convergence criterion met
 Total energy in the final basis set = -5663.4980319404

                    Orbital Energies (a.u.)
 --------------------------------------------------------------

 Alpha MOs
 -- Occupied --
-88.993 -88.983 -88.929 -88.927 -88.926 -88.923 -88.914 -88.909
-14.397 -14.397 -14.391 -14.390 -14.360 -14.347 -14.344 -14.343
-14.334 -14.330 -10.276 -10.269 -10.265 -10.265 -10.263 -10.261
-10.256 -10.252 -10.249 -10.246 -10.246 -10.242 -10.238 -10.236
-10.235 -10.233 -10.233 -10.233 -10.232 -10.232 -10.230 -10.230
-10.227 -10.225 -10.225 -10.225 -10.224 -10.221 -10.215 -10.214
-10.214 -10.213 -10.204 -10.203 -10.203 -10.198 -10.198 -10.191
-10.190 -10.185 -10.180 -10.180 -10.180 -10.178 -10.177 -10.177
-10.175 -10.173 -10.172 -10.172  -8.048  -8.040  -7.988  -7.988
 -7.986  -7.985  -7.973  -7.969  -6.013  -6.007  -6.005  -6.005
 -5.999  -5.998  -5.952  -5.952  -5.951  -5.949  -5.948  -5.948
 -5.947  -5.945  -5.945  -5.944  -5.943  -5.941  -5.937  -5.934
 -5.933  -5.930  -5.929  -5.925  -1.066  -1.025  -0.979  -0.965
 -0.955  -0.948  -0.945  -0.935  -0.921  -0.915  -0.914  -0.899
 -0.847  -0.843  -0.838  -0.829  -0.814  -0.813  -0.809  -0.806
 -0.805  -0.801  -0.796  -0.793  -0.789  -0.780  -0.767  -0.761
 -0.753  -0.749  -0.743  -0.738  -0.725  -0.720  -0.712  -0.706
 -0.697  -0.688  -0.674  -0.672  -0.658  -0.654  -0.648  -0.642
 -0.638  -0.636  -0.627  -0.624  -0.613  -0.605  -0.599  -0.594
 -0.593  -0.590  -0.587  -0.585  -0.585  -0.576  -0.572  -0.560
 -0.558  -0.553  -0.539  -0.537  -0.526  -0.518  -0.516  -0.512
 -0.508  -0.504  -0.500  -0.494  -0.492  -0.487  -0.482  -0.482
 -0.478  -0.475  -0.471  -0.467  -0.465  -0.463  -0.451  -0.450
 -0.446  -0.442  -0.439  -0.438  -0.437  -0.436  -0.433  -0.431
 -0.431  -0.426  -0.424  -0.420  -0.420  -0.416  -0.415  -0.415
 -0.409  -0.406  -0.405  -0.403  -0.401  -0.400  -0.398  -0.395
 -0.392  -0.391  -0.390  -0.388  -0.386  -0.385  -0.382  -0.381
 -0.380  -0.379  -0.373  -0.373  -0.367  -0.362  -0.359  -0.357
 -0.356  -0.355  -0.354  -0.353  -0.350  -0.348  -0.347  -0.343
 -0.343  -0.341  -0.338  -0.337  -0.335  -0.335  -0.328  -0.327
 -0.321  -0.319  -0.317  -0.308  -0.307  -0.304  -0.303  -0.299
 -0.296  -0.293  -0.292  -0.290  -0.288  -0.284  -0.281  -0.278
 -0.277  -0.272  -0.268  -0.262  -0.256  -0.255  -0.255  -0.247
 -0.246  -0.245  -0.236  -0.228  -0.198  -0.191

          Ground-State Mulliken Net Atomic Charges

     Atom                 Charge (a.u.)
  ----------------------------------------
      1 C                     0.255825
      2 C                    -0.107398
      3 N                    -0.481190
      4 C                    -0.081471
      5 C                     0.109946
      6 C                     0.000012
      7 C                     0.015133
      8 C                     0.059363
      9 C                     0.247547
     10 N                    -0.511854
     11 N                    -0.562759
     12 C                     0.220197
     13 C                     0.271064
     14 S                     0.608214
     15 N                    -0.559472
     16 C                    -0.207736
     17 S                     0.328014
     18 C                    -0.117279
     19 C                    -0.227109
     20 S                     0.265283
     21 C                     0.161705
     22 C                     0.094951
     23 C                    -0.306559
     24 C                    -0.057216
     25 N                    -0.443568
     26 S                     0.252957
     27 C                     0.118027
     28 C                    -0.306198
     29 C                    -0.216083
     30 H                     0.096583
     31 H                     0.102660
     32 H                     0.106871
     33 H                     0.124682
     34 H                     0.134581
     35 H                     0.126630
     36 H                     0.116251
     37 H                     0.142176
     38 H                     0.097130
     39 C                    -0.181792
     40 H                     0.117781
     41 H                     0.099683
     42 H                     0.091929
     43 C                    -0.189168
     44 H                     0.086685
     45 C                    -0.166141
     46 H                     0.090197
     47 H                     0.094551
     48 H                     0.097181
     49 C                    -0.177089
     50 H                     0.093790
     51 C                    -0.310135
     52 H                     0.095224
     53 H                     0.105751
     54 H                     0.107311
     55 H                     0.092867
     56 C                     0.259965
     57 C                    -0.119204
     58 N                    -0.469917
     59 C                    -0.068953
     60 C                     0.055175
     61 C                     0.056690
     62 C                    -0.045125
     63 C                     0.067420
     64 C                     0.230261
     65 N                    -0.517593
     66 N                    -0.511675
     67 C                     0.201303
     68 C                     0.308976
     69 S                     0.577639
     70 N                    -0.535161
     71 C                    -0.222461
     72 S                     0.323893
     73 C                    -0.137666
     74 C                    -0.235819
     75 S                     0.294704
     76 C                     0.198828
     77 C                     0.063510
     78 C                    -0.319521
     79 C                    -0.063959
     80 N                    -0.455591
     81 S                     0.268202
     82 C                     0.119161
     83 C                    -0.305908
     84 C                    -0.216946
     85 H                     0.095295
     86 H                     0.097742
     87 H                     0.101380
     88 H                     0.113949
     89 H                     0.129708
     90 H                     0.125845
     91 H                     0.135992
     92 H                     0.143074
     93 H                     0.116017
     94 C                    -0.180135
     95 H                     0.095002
     96 H                     0.114201
     97 H                     0.094080
     98 C                    -0.182729
     99 H                     0.087672
    100 C                    -0.165770
    101 H                     0.089587
    102 H                     0.088596
    103 H                     0.088201
    104 C                    -0.176672
    105 H                     0.093336
    106 C                    -0.324163
    107 H                     0.093536
    108 H                     0.106619
    109 H                     0.099766
    110 H                     0.101111
  ----------------------------------------
  Sum of atomic charges =     0.000000

                    Cartesian Multipole Moments
 -----------------------------------------------------------------
    Charge (ESU x 10^10)
                 0.0000
    Dipole Moment (Debye)
         X       1.4364      Y       1.5027      Z      -0.0737
       Tot       2.0801
    Quadrupole Moments (Debye-Ang)
        XX    -426.0741     XY     -34.7411     YY    -425.7528
        XZ     -27.3716     YZ       1.4404     ZZ    -445.4460

 Total job time:  93.37s(wall), 1110.25s(cpu)
        *  Thank you very much for using Q-Chem.  Have a nice day.  *
