 Q-Chem 4.4, Q-Chem, Inc., Pleasanton, CA (2016)
 Q-Chem 4.4.2 for Intel X86 Linux

User input:
--------------------------------------------------------------
$comment
SP
$end

$rem
MEM_STATIC 5000
MEM_TOTAL 20000
JOBTYPE SP
EXCHANGE B3LYP
BASIS 6-31g(d,p)
$end

$molecule
0 1
C          -1.727000      7.060000     15.776000
C          -2.678000      6.107000     16.034000
N          -0.973000      6.964000     14.684000
C          -2.983000      5.036000     15.174000
C          -1.214000      5.931000     13.882000
C          -2.128000      4.881000     14.082000
C          -2.137000      3.741000     13.109000
C          -0.887000      3.309000     12.551000
C          -3.256000      3.281000     12.488000
N          -0.749000      2.521000     11.529000
N          -4.466000      3.455000     12.981000
C          -3.167000      2.425000     11.403000
C          -1.846000      2.089000     10.903000
S          -5.485000      2.787000     11.793000
N          -4.338000      2.101000     10.815000
C          -1.536000      1.323000      9.656000
S          -0.027000      1.490000      8.833000
C          -2.265000      0.315000      9.041000
C          -0.569000      0.535000      7.466000
S          -3.743000     -0.434000      9.489000
C          -1.715000     -0.105000      7.838000
C           0.130000      0.390000      6.203000
C          -3.643000     -1.398000      7.929000
C          -2.569000     -1.059000      7.172000
N          -0.431000     -0.266000      5.187000
S           1.497000      1.403000      5.772000
C           0.281000     -0.009000      4.001000
C           1.373000      0.790000      4.163000
C          -1.730000      8.380000     16.603000
H          -3.382000      6.248000     16.849000
H          -3.661000      4.227000     15.431000
H          -0.576000      6.025000     13.004000
H           0.080000      3.720000     12.838000
H          -4.450000     -2.052000      7.625000
H          -2.270000     -1.492000      6.225000
H           0.012000     -0.559000      3.109000
H           2.048000      1.005000      3.346000
H          -1.354000      9.248000     16.046000
C          -0.753000      8.348000     17.768000
H          -2.755000      8.643000     16.892000
H          -0.785000      7.337000     18.193000
H          -1.039000      9.151000     18.458000
C           0.701000      8.601000     17.292000
H           0.993000      7.819000     16.580000
C           1.751000      8.853000     18.437000
H           0.704000      9.507000     16.672000
H           1.278000      9.609000     19.076000
H           2.660000      9.283000     17.999000
C           2.053000      7.595000     19.212000
H           1.150000      7.000000     19.397000
C           2.842000      8.064000     20.455000
H           2.475000      6.827000     18.552000
H           3.699000      8.726000     20.274000
H           3.066000      7.101000     20.930000
H           2.280000      8.662000     21.183000
C           7.250000      8.315000     13.196000
C           6.087000      8.349000     12.483000
N           7.900000      7.201000     13.569000
C           5.556000      7.059000     12.095000
C           7.432000      5.984000     13.199000
C           6.215000      5.846000     12.439000
C           5.699000      4.505000     12.025000
C           5.200000      4.299000     10.706000
C           5.639000      3.408000     12.890000
N           4.511000      3.202000     10.327000
N           6.092000      3.445000     14.154000
C           4.969000      2.242000     12.548000
C           4.380000      2.187000     11.253000
S           5.655000      2.010000     14.780000
N           4.803000      1.300000     13.504000
C           3.450000      1.057000     10.876000
S           2.348000      0.180000     11.976000
C           3.376000      0.532000      9.619000
C           1.611000     -0.733000     10.692000
S           4.480000      0.626000      8.287000
C           2.400000     -0.493000      9.574000
C           0.628000     -1.730000     10.810000
C           3.597000     -0.722000      7.530000
C           2.531000     -1.200000      8.323000
N           0.217000     -2.396000      9.737000
S          -0.337000     -2.060000     12.273000
C          -0.692000     -3.330000     10.017000
C          -0.908000     -3.448000     11.373000
C           8.050000      9.643000     13.407000
H           5.576000      9.275000     12.236000
H           4.680000      7.051000     11.453000
H           7.972000      5.096000     13.526000
H           5.154000      5.184000     10.073000
H           3.999000     -1.065000      6.585000
H           1.939000     -2.079000      8.095000
H          -1.053000     -3.992000      9.241000
H          -1.584000     -4.182000     11.792000
H           9.071000      9.447000     13.756000
C           7.248000     10.663000     14.250000
H           8.259000     10.022000     12.399000
H           6.947000     10.234000     15.214000
H           6.348000     10.962000     13.699000
C           8.041000     12.010000     14.423000
H           9.092000     11.712000     14.521000
C           7.435000     12.992000     15.401000
H           8.064000     12.496000     13.439000
H           7.378000     12.662000     16.446000
H           6.421000     13.197000     15.037000
C           8.198000     14.343000     15.402000
H           9.292000     14.259000     15.411000
C           7.588000     15.246000     16.546000
H           8.010000     14.747000     14.399000
H           8.031000     15.015000     17.522000
H           6.493000     15.207000     16.584000
H           7.949000     16.256000     16.313000
$end

--------------------------------------------------------------

             Standard Nuclear Orientation (Angstroms)
    I     Atom           X                Y                Z
 ----------------------------------------------------------------
    1      C       3.1361511211    -5.3971478600     0.5165285973
    2      C       2.1333730583    -6.1624118362    -0.0201102044
    3      N       2.8579167528    -4.1937098544     1.0110168207
    4      C       0.7742134944    -5.7986965230    -0.0280127867
    5      C       1.5848591488    -3.8116843171     0.9691261790
    6      C       0.4982226501    -4.4992902462     0.3996393872
    7      C      -0.8345962827    -3.8160486209     0.3432073601
    8      C      -0.8675523269    -2.4011663794     0.1033946379
    9      C      -1.9919229946    -4.3698145191     0.7941399624
   10      N      -1.8991598883    -1.6314035836     0.2698971231
   11      N      -2.1635899203    -5.6723967627     0.9001350824
   12      C      -3.1274570638    -3.5978281579     0.9743660313
   13      C      -3.0284161725    -2.1690095647     0.7364472851
   14      S      -3.7138101510    -5.8199580960     1.5864089995
   15      N      -4.1915458480    -4.2363245022     1.5054013198
   16      C      -4.0790421174    -1.1446171571     1.0274289325
   17      S      -3.6866836728     0.5161577221     1.2923452430
   18      C      -5.4605579246    -1.2739704853     1.0071363021
   19      C      -5.3224124980     0.9131716474     1.7835164490
   20      S      -6.4560712518    -2.6169158715     0.6177266146
   21      C      -6.1255726902    -0.1299559454     1.4255799592
   22      C      -5.7475623055     2.1645949449     2.3818327297
   23      C      -7.9048777240    -1.5779986644     1.0587559139
   24      C      -7.5495042654    -0.3491033685     1.5114943113
   25      N      -6.9952447533     2.3162366160     2.8263620461
   26      S      -4.5992570682     3.3581720423     2.9626836523
   27      C      -7.0796753246     3.4686280472     3.6291412611
   28      C      -5.9154841187     4.1697542525     3.7300861983
   29      C       4.5227753186    -6.0492197905     0.7965527611
   30      H       2.3281914949    -7.1924683266    -0.3042781185
   31      H       0.0005596824    -6.3579471101    -0.5465805836
   32      H       1.5016333633    -2.8475975391     1.4695001921
   33      H       0.0170535955    -1.7996976686    -0.1017559215
   34      H      -8.9046305375    -1.9923518943     1.0724202068
   35      H      -8.2090442253     0.4562522144     1.8116749677
   36      H      -8.0548157157     3.7863653549     3.9736252534
   37      H      -5.8621752141     5.1130528181     4.2560947314
   38      H       5.0524721827    -5.6054791796     1.6495266777
   39      C       5.5267585574    -5.8013650894    -0.3185094360
   40      H       4.3978829365    -7.1086073704     1.0523160274
   41      H       4.9810631048    -5.8622718410    -1.2683919765
   42      H       6.3356077186    -6.5324076869    -0.1999988665
   43      C       6.1319498987    -4.3766044782    -0.2263050921
   44      H       5.3302311015    -3.6331684838    -0.3173099963
   45      C       7.3681347002    -4.1073488634    -1.1624554809
   46      H       6.4891822638    -4.2237131676     0.8004637643
   47      H       8.0321059651    -4.9627310568    -0.9862469038
   48      H       7.8761740387    -3.1944098675    -0.8285941022
   49      C       6.9675080765    -4.0173752795    -2.6135916091
   50      H       6.2134990875    -4.7689346492    -2.8787103716
   51      C       8.2946817339    -4.0567706963    -3.4039010955
   52      H       6.2610641796    -3.1924896470    -2.7685390642
   53      H       9.0792407498    -3.3580532236    -3.0849731352
   54      H       7.9253241539    -3.9346082414    -4.4294844967
   55      H       8.8467044955    -5.0041076976    -3.3684683897
   56      C       6.8267395007     3.2737214439     0.6328768996
   57      C       5.9671876495     2.6411747843     1.4832587777
   58      N       6.4876739916     3.8344878717    -0.5389595199
   59      C       4.5816025058     2.6155432598     1.0636138868
   60      C       5.1934217065     3.8401845390    -0.9413170354
   61      C       4.1591064948     3.2160646813    -0.1549332575
   62      C       2.7296740413     3.2252375702    -0.5937632007
   63      C       1.6892944304     3.5015540715     0.3402911105
   64      C       2.3290551096     2.9350282277    -1.9016305522
   65      N       0.3789074976     3.3033943220     0.0845768167
   66      N       3.1964817332     2.6773933077    -2.8943386163
   67      C       0.9950286834     2.7466299671    -2.2337443727
   68      C       0.0372177633     2.9079051527    -1.1928027049
   69      S       2.2561576160     2.2480641969    -4.1487456751
   70      N       0.7063521641     2.2934928749    -3.4747877414
   71      C      -1.4055384768     2.5106062713    -1.4038406889
   72      S      -1.9975553557     1.1813622869    -2.4412217399
   73      C      -2.4574292287     3.1721866275    -0.8408244562
   74      C      -3.6488828227     1.3641954609    -1.9263590133
   75      S      -2.5579046457     4.7586207866    -0.1516166868
   76      C      -3.6768203837     2.5506474833    -1.2041429159
   77      C      -4.7689067149     0.6499358263    -2.3841817467
   78      C      -4.3309378856     4.6305692136    -0.2506011553
   79      C      -4.7669986069     3.4150562899    -0.8216251298
   80      N      -5.9847164702     0.9589340943    -1.9481396508
   81      S      -4.7135543330    -0.8426949515    -3.3585961734
   82      C      -6.9434356041     0.2148036387    -2.4996507452
   83      C      -6.4467177345    -0.6277669800    -3.4705586248
   84      C       8.2731104126     3.6091520949     1.1264379025
   85      H       6.2939779937     2.1681983160     2.4047289787
   86      H       3.8566693684     2.1977454253     1.7560883743
   87      H       4.9479492403     4.2908017613    -1.9024415785
   88      H       2.0023492204     3.6232239806     1.3762559418
   89      H      -4.8765596674     5.5061241323     0.0779995990
   90      H      -5.7970151284     3.1844926516    -1.0685975458
   91      H      -7.9844274835     0.4163250147    -2.2840909116
   92      H      -7.0828101399    -1.2799637761    -4.0547835738
   93      H       8.7661475682     4.3329909714     0.4664154453
   94      C       9.0851864495     2.3260040602     1.4236190445
   95      H       8.1403683389     4.2247614817     2.0246531466
   96      H       9.1173501841     1.6634868505     0.5495627299
   97      H       8.6212792274     1.7876969692     2.2590934995
   98      C      10.5232911839     2.6712111121     1.9582907795
   99      H      10.8286353618     3.5645536125     1.3999780445
  100      C      11.4639110501     1.4929475112     2.0806556193
  101      H      10.3972595091     3.0983328424     2.9616172689
  102      H      11.7201301324     0.9787245314     1.1457221945
  103      H      10.9731342387     0.7809654316     2.7551455301
  104      C      12.8049553047     1.8983919526     2.7474285283
  105      H      13.2426845724     2.8348085651     2.3793388436
  106      C      13.7689833837     0.6474412142     2.7025162459
  107      H      12.5134811028     2.1710106876     3.7698231756
  108      H      14.2897344319     0.5735017930     1.7404677503
  109      H      13.2638082669    -0.2915740319     2.9575426539
  110      H      14.5593112522     0.8906273736     3.4242865363
 ----------------------------------------------------------------

   10   -5663.4779168993      8.03E-06 Convergence criterion met
 Total energy in the final basis set = -5663.4779168993

                    Orbital Energies (a.u.)
 --------------------------------------------------------------

 Alpha MOs
 -- Occupied --
-88.988 -88.983 -88.922 -88.921 -88.920 -88.915 -88.907 -88.903
-14.396 -14.393 -14.388 -14.379 -14.355 -14.342 -14.340 -14.333
-14.326 -14.324 -10.266 -10.265 -10.264 -10.264 -10.257 -10.256
-10.255 -10.246 -10.240 -10.240 -10.234 -10.234 -10.233 -10.233
-10.229 -10.226 -10.225 -10.225 -10.224 -10.223 -10.223 -10.223
-10.223 -10.222 -10.222 -10.221 -10.219 -10.219 -10.217 -10.216
-10.212 -10.207 -10.205 -10.200 -10.199 -10.195 -10.191 -10.191
-10.183 -10.182 -10.182 -10.179 -10.177 -10.176 -10.175 -10.175
-10.173 -10.171 -10.170 -10.167  -8.044  -8.039  -7.983  -7.981
 -7.980  -7.975  -7.968  -7.964  -6.008  -6.004  -6.003  -6.001
 -5.998  -5.996  -5.947  -5.945  -5.944  -5.944  -5.942  -5.941
 -5.940  -5.939  -5.938  -5.936  -5.935  -5.932  -5.931  -5.929
 -5.928  -5.925  -5.924  -5.920  -1.039  -1.032  -0.970  -0.969
 -0.957  -0.950  -0.946  -0.932  -0.914  -0.913  -0.907  -0.906
 -0.840  -0.840  -0.830  -0.830  -0.806  -0.805  -0.803  -0.802
 -0.801  -0.797  -0.794  -0.791  -0.782  -0.782  -0.765  -0.761
 -0.745  -0.745  -0.738  -0.735  -0.720  -0.719  -0.704  -0.703
 -0.691  -0.689  -0.676  -0.673  -0.653  -0.651  -0.643  -0.643
 -0.634  -0.630  -0.626  -0.622  -0.611  -0.609  -0.594  -0.592
 -0.587  -0.586  -0.584  -0.580  -0.577  -0.576  -0.575  -0.560
 -0.549  -0.548  -0.540  -0.534  -0.521  -0.518  -0.507  -0.504
 -0.503  -0.502  -0.499  -0.499  -0.484  -0.483  -0.477  -0.475
 -0.470  -0.468  -0.468  -0.465  -0.465  -0.452  -0.447  -0.445
 -0.439  -0.437  -0.436  -0.434  -0.431  -0.431  -0.429  -0.427
 -0.426  -0.423  -0.421  -0.418  -0.416  -0.414  -0.410  -0.408
 -0.407  -0.406  -0.404  -0.398  -0.396  -0.396  -0.395  -0.394
 -0.393  -0.391  -0.389  -0.387  -0.383  -0.382  -0.382  -0.381
 -0.378  -0.377  -0.373  -0.372  -0.369  -0.360  -0.356  -0.354
 -0.351  -0.350  -0.349  -0.344  -0.344  -0.343  -0.341  -0.340
 -0.339  -0.335  -0.332  -0.331  -0.327  -0.325  -0.322  -0.321
 -0.318  -0.314  -0.313  -0.301  -0.300  -0.299  -0.297  -0.297
 -0.292  -0.286  -0.285  -0.284  -0.281  -0.279  -0.279  -0.278
 -0.272  -0.272  -0.265  -0.265  -0.250  -0.249  -0.247  -0.242
 -0.240  -0.234  -0.234  -0.228  -0.191  -0.186

          Ground-State Mulliken Net Atomic Charges

     Atom                 Charge (a.u.)
  ----------------------------------------
      1 C                     0.275410
      2 C                    -0.131506
      3 N                    -0.465714
      4 C                    -0.058389
      5 C                     0.051011
      6 C                     0.045953
      7 C                    -0.021209
      8 C                     0.060244
      9 C                     0.281992
     10 N                    -0.488873
     11 N                    -0.561321
     12 C                     0.219077
     13 C                     0.280053
     14 S                     0.582165
     15 N                    -0.540979
     16 C                    -0.233104
     17 S                     0.337872
     18 C                    -0.110454
     19 C                    -0.216940
     20 S                     0.258004
     21 C                     0.149965
     22 C                     0.065459
     23 C                    -0.318106
     24 C                    -0.029156
     25 N                    -0.449305
     26 S                     0.287605
     27 C                     0.112867
     28 C                    -0.305938
     29 C                    -0.227640
     30 H                     0.083436
     31 H                     0.114528
     32 H                     0.096869
     33 H                     0.111749
     34 H                     0.122586
     35 H                     0.130212
     36 H                     0.113205
     37 H                     0.129625
     38 H                     0.114305
     39 C                    -0.170075
     40 H                     0.098085
     41 H                     0.095232
     42 H                     0.088807
     43 C                    -0.195850
     44 H                     0.106293
     45 C                    -0.164227
     46 H                     0.079664
     47 H                     0.086646
     48 H                     0.092199
     49 C                    -0.169756
     50 H                     0.092550
     51 C                    -0.319197
     52 H                     0.094477
     53 H                     0.106829
     54 H                     0.096051
     55 H                     0.105061
     56 C                     0.271503
     57 C                    -0.098088
     58 N                    -0.489707
     59 C                    -0.100198
     60 C                     0.096386
     61 C                     0.029626
     62 C                     0.017127
     63 C                     0.058623
     64 C                     0.233925
     65 N                    -0.481410
     66 N                    -0.532453
     67 C                     0.231670
     68 C                     0.224222
     69 S                     0.596448
     70 N                    -0.558790
     71 C                    -0.204223
     72 S                     0.318862
     73 C                    -0.080245
     74 C                    -0.191320
     75 S                     0.263361
     76 C                     0.102916
     77 C                     0.069781
     78 C                    -0.304027
     79 C                    -0.055820
     80 N                    -0.435631
     81 S                     0.253728
     82 C                     0.139620
     83 C                    -0.305306
     84 C                    -0.230879
     85 H                     0.100019
     86 H                     0.099157
     87 H                     0.118689
     88 H                     0.110042
     89 H                     0.132859
     90 H                     0.127757
     91 H                     0.116222
     92 H                     0.119054
     93 H                     0.115649
     94 C                    -0.182322
     95 H                     0.104908
     96 H                     0.106948
     97 H                     0.091464
     98 C                    -0.183027
     99 H                     0.091348
    100 C                    -0.167046
    101 H                     0.086554
    102 H                     0.093755
    103 H                     0.093506
    104 C                    -0.180804
    105 H                     0.095733
    106 C                    -0.325453
    107 H                     0.090937
    108 H                     0.108794
    109 H                     0.107449
    110 H                     0.099756
  ----------------------------------------
  Sum of atomic charges =     0.000000

                    Cartesian Multipole Moments
 -----------------------------------------------------------------
    Charge (ESU x 10^10)
                 0.0000
    Dipole Moment (Debye)
         X      -2.4108      Y      -0.8324      Z       0.7659
       Tot       2.6630
    Quadrupole Moments (Debye-Ang)
        XX    -416.5783     XY      -8.6949     YY    -420.8035
        XZ      10.4128     YZ      17.4209     ZZ    -437.5957

 Total job time:  102.88s(wall), 1218.27s(cpu)
        *  Thank you very much for using Q-Chem.  Have a nice day.  *
