 Q-Chem 4.4, Q-Chem, Inc., Pleasanton, CA (2016)
 Q-Chem 4.4.2 for Intel X86 Linux

User input:
--------------------------------------------------------------
$comment
SP
$end

$rem
MEM_STATIC 5000
MEM_TOTAL 20000
JOBTYPE SP
EXCHANGE B3LYP
BASIS 6-31g(d,p)
$end

$molecule
0 1
C         -27.074000    -21.003000    -14.941000
C         -26.520000    -22.298000    -14.931000
N         -26.643000    -20.040000    -14.051000
C         -25.385000    -22.548000    -14.147000
C         -25.523000    -20.282000    -13.376000
C         -24.860000    -21.521000    -13.358000
C         -23.723000    -21.856000    -12.440000
C         -23.692000    -23.204000    -11.841000
C         -22.574000    -21.098000    -12.121000
N         -22.742000    -23.620000    -10.989000
N         -22.308000    -19.902000    -12.707000
C         -21.661000    -21.547000    -11.181000
C         -21.793000    -22.794000    -10.553000
S         -20.833000    -19.449000    -12.173000
N         -20.671000    -20.664000    -11.057000
C         -20.913000    -23.286000     -9.483000
S         -19.757000    -22.251000     -8.674000
C         -21.140000    -24.445000     -8.712000
C         -19.714000    -23.336000     -7.275000
S         -22.244000    -25.733000     -9.005000
C         -20.502000    -24.398000     -7.542000
C         -19.175000    -23.127000     -6.001000
C         -21.926000    -26.107000     -7.326000
C         -20.999000    -25.391000     -6.646000
N         -18.316000    -24.070000     -5.617000
S         -19.640000    -21.918000     -4.834000
C         -17.922000    -23.806000     -4.319000
C         -18.491000    -22.693000     -3.710000
C         -28.249000    -20.723000    -15.844000
H         -26.944000    -23.012000    -15.631000
H         -25.053000    -23.579000    -14.063000
H         -25.098000    -19.501000    -12.748000
H         -24.436000    -23.981000    -12.014000
H         -22.531000    -26.879000     -6.867000
H         -20.765000    -25.511000     -5.595000
H         -17.170000    -24.464000     -3.906000
H         -18.382000    -22.311000     -2.703000
H         -29.064000    -21.416000    -15.603000
C         -27.932000    -20.825000    -17.339000
H         -28.622000    -19.722000    -15.597000
H         -27.678000    -21.832000    -17.695000
H         -26.944000    -20.388000    -17.532000
C         -28.946000    -19.999000    -18.215000
H         -29.949000    -20.361000    -17.960000
C         -28.518000    -20.171000    -19.707000
H         -28.848000    -18.943000    -17.933000
H         -28.565000    -21.232000    -19.984000
H         -27.483000    -19.844000    -19.865000
C         -29.372000    -19.221000    -20.553000
H         -29.074000    -18.165000    -20.556000
C         -30.906000    -19.116000    -20.268000
H         -29.205000    -19.404000    -21.622000
H         -31.081000    -18.734000    -19.255000
H         -31.309000    -20.135000    -20.311000
H         -31.378000    -18.545000    -21.077000
C         -21.403000    -20.886000      1.375000
C         -21.361000    -21.542000      0.101000
N         -20.976000    -19.641000      1.554000
C         -20.835000    -20.822000     -0.966000
C         -20.570000    -18.936000      0.460000
C         -20.412000    -19.494000     -0.853000
C         -19.798000    -18.739000     -2.026000
C         -20.365000    -19.041000     -3.286000
C         -18.686000    -17.838000     -2.032000
N         -19.946000    -18.446000     -4.439000
N         -18.023000    -17.470000     -0.904000
C         -18.237000    -17.182000     -3.243000
C         -18.978000    -17.485000     -4.428000
S         -16.834000    -16.377000     -1.381000
N         -17.210000    -16.323000     -3.034000
C         -18.633000    -16.877000     -5.633000
S         -17.524000    -15.383000     -5.750000
C         -18.888000    -17.328000     -6.942000
C         -17.399000    -15.583000     -7.490000
S         -19.579000    -18.855000     -7.352000
C         -18.203000    -16.591000     -7.920000
C         -16.514000    -14.849000     -8.361000
C         -18.865000    -18.590000     -8.989000
C         -18.185000    -17.434000     -9.121000
N         -15.421000    -14.573000     -7.759000
S         -16.595000    -14.647000    -10.120000
C         -14.432000    -14.285000     -8.723000
C         -14.898000    -14.280000    -10.003000
C         -21.952000    -21.574000      2.657000
H         -21.996000    -22.418000      0.003000
H         -20.736000    -21.317000     -1.927000
H         -20.136000    -17.971000      0.716000
H         -21.209000    -19.706000     -3.464000
H         -18.976000    -19.348000     -9.754000
H         -17.536000    -17.154000     -9.943000
H         -13.461000    -13.932000     -8.401000
H         -14.337000    -13.987000    -10.881000
H         -23.038000    -21.644000      2.521000
C         -21.718000    -20.866000      4.038000
H         -21.552000    -22.579000      2.840000
H         -22.173000    -19.870000      3.970000
H         -20.629000    -20.833000      4.164000
C         -22.302000    -21.681000      5.213000
H         -21.838000    -22.664000      5.365000
C         -23.862000    -21.925000      5.213000
H         -22.153000    -21.151000      6.161000
H         -24.249000    -22.470000      4.343000
H         -24.421000    -20.982000      5.174000
C         -24.219000    -22.721000      6.475000
H         -23.659000    -23.656000      6.351000
C         -25.718000    -22.938000      6.623000
H         -23.801000    -22.199000      7.345000
H         -26.009000    -23.141000      7.661000
H         -25.972000    -23.713000      5.890000
H         -26.343000    -22.068000      6.387000
$end

--------------------------------------------------------------

             Standard Nuclear Orientation (Angstroms)
    I     Atom           X                Y                Z
 ----------------------------------------------------------------
    1      C      -9.2521517957    -2.6616220104     1.6703926301
    2      C      -9.1129995870    -3.1470383124     0.3554596749
    3      N      -8.2362489304    -1.9490626970     2.2749011851
    4      C      -8.0167385814    -2.7304435204    -0.4126819700
    5      C      -7.2476834962    -1.5090871893     1.5017589375
    6      C      -7.0640137944    -1.8833223584     0.1596607746
    7      C      -5.8433819658    -1.5572631225    -0.6474707597
    8      C      -5.3159618584    -2.5953213775    -1.5536324944
    9      C      -5.1457850699    -0.3341402796    -0.7651783720
   10      N      -4.2206381842    -2.4362623265    -2.3128599090
   11      N      -5.5714344461     0.8050536648    -0.1605067541
   12      C      -3.9802078573    -0.2458688739    -1.5084198673
   13      C      -3.4737870121    -1.3370821030    -2.2292586954
   14      S      -4.5771804260     1.9942276061    -0.6736483340
   15      N      -3.5135058363     1.0014132243    -1.4679033123
   16      C      -2.1972828680    -1.3344795629    -2.9585696010
   17      S      -1.0233824452    -0.0487397410    -2.7828627211
   18      C      -1.5826538008    -2.4700544367    -3.5259775810
   19      C       0.2749001520    -1.1109817493    -3.3506471991
   20      S      -2.2607236646    -4.0238437503    -3.8252584340
   21      C      -0.2691115952    -2.3005276847    -3.6809632395
   22      C       1.6611706240    -0.9288319898    -3.3021328356
   23      C      -0.5832116433    -4.4916161396    -3.9901323562
   24      C       0.3835457867    -3.5451055892    -3.9278198405
   25      N       2.2649413853    -1.0640262072    -4.4818655983
   26      S       2.6615927547    -0.7463343014    -1.8859248162
   27      C       3.6295484554    -0.9520431377    -4.2946669436
   28      C       4.0649035882    -0.7605347515    -2.9880677524
   29      C     -10.4727673871    -3.0548567509     2.4640537776
   30      H      -9.9376351802    -3.7374590507    -0.0330650865
   31      H      -7.8688734841    -3.2125300917    -1.3749550346
   32      H      -6.4884257712    -0.8542867477     1.9257095110
   33      H      -5.7464230684    -3.5878432159    -1.6832378458
   34      H      -0.3706955439    -5.5491165169    -4.0861524555
   35      H       1.4489934651    -3.7371687777    -3.9689291605
   36      H       4.2370083530    -0.9781803379    -5.1887286415
   37      H       5.0671507251    -0.6915885117    -2.5848294946
   38      H     -10.5309337293    -4.1484600741     2.5206527895
   39      C     -11.7903639928    -2.5128090297     1.9018781356
   40      H     -10.3215034167    -2.7077374152     3.4930175175
   41      H     -12.0831228979    -2.9181977872     0.9245075924
   42      H     -11.6408024782    -1.4830599914     1.5531514927
   43      C     -12.9138147255    -2.4353382190     3.0017439114
   44      H     -13.0067243331    -3.4414320471     3.4274445269
   45      C     -14.1956203936    -1.8638471963     2.3167590647
   46      H     -12.5766535505    -1.7332025469     3.7747845571
   47      H     -14.5119097437    -2.5351986074     1.5081136975
   48      H     -14.0019275631    -0.8842821941     1.8628279091
   49      C     -15.2349037842    -1.5999299468     3.4111857271
   50      H     -15.1035401556    -0.6844457566     4.0015934630
   51      C     -15.4521837728    -2.6699040547     4.5307172429
   52      H     -16.2001960067    -1.3275577277     2.9660303617
   53      H     -14.5351489644    -2.7998728206     5.1179763679
   54      H     -15.6593391533    -3.6215546747     4.0266669022
   55      H     -16.3481192824    -2.4041603031     5.1051611663
   56      C       8.0132945703    -2.9001125748     1.1874122667
   57      C       6.7965327672    -2.9780639291     0.4333629973
   58      N       8.3651910283    -1.8158312899     1.8692465414
   59      C       5.9812342669    -1.8516488504     0.4268494872
   60      C       7.4853750923    -0.7758091273     1.9237884530
   61      C       6.2724211131    -0.6973064401     1.1603246540
   62      C       5.3862244557     0.5413730308     1.1030651337
   63      C       4.0008266569     0.2737939084     1.0062800504
   64      C       5.7695641649     1.9194169286     1.0538037585
   65      N       3.0652717930     1.2645348015     0.9597550120
   66      N       7.0631501616     2.3323772616     1.1127616472
   67      C       4.7909457207     2.9870155346     1.0222259619
   68      C       3.4208251793     2.5782840262     1.0509184041
   69      S       7.0323029138     4.0154930825     1.0672799973
   70      N       5.3490754033     4.2217457189     1.0371801981
   71      C       2.4128372767     3.5398834743     1.0518615769
   72      S       2.7119398439     5.3421760459     1.4231904615
   73      C       1.0754264729     3.4020524789     0.6344385798
   74      C       1.0973524461     5.7490671127     0.8657210053
   75      S       0.4099837662     2.0056310074    -0.1300894304
   76      C       0.3958953710     4.6271226927     0.5549498833
   77      C       0.5830155127     7.0831840108     0.6754274923
   78      C      -0.9014901253     3.1065314124    -0.7026665258
   79      C      -0.7663154547     4.3881364061    -0.3084883319
   80      N       1.5128790715     7.8705574148     0.2899072145
   81      S      -1.1007059016     7.6212647564     0.5450537583
   82      C       0.9273845852     9.0023474933    -0.3155747626
   83      C      -0.4333337329     9.0158915169    -0.2535810690
   84      C       9.0259468496    -4.0771708093     1.2730759930
   85      H       6.4683176332    -3.9807533352     0.1743383254
   86      H       5.0849487734    -1.8637822395    -0.1854185057
   87      H       7.9021109013     0.1056159665     2.4080797595
   88      H       3.5377460138    -0.7118614062     1.0231595906
   89      H      -1.6891047021     2.7210891532    -1.3376527801
   90      H      -1.3264892144     5.2412478429    -0.6741264527
   91      H       1.5559613123     9.8296070124    -0.6183403258
   92      H      -1.0742079011     9.8311768122    -0.5634910362
   93      H       8.5470555144    -4.8432414484     1.8948403092
   94      C      10.4342485840    -3.8005055884     1.9081536105
   95      H       9.2902531837    -4.5204160102     0.3049903286
   96      H      10.2608781115    -3.4315193257     2.9267098521
   97      H      10.9032726199    -3.0545344231     1.2551379335
   98      C      11.3297336503    -5.0590660789     1.9019901814
   99      H      11.5859844095    -5.4350066548     0.9031442315
  100      C      10.8214929731    -6.3066014729     2.7256908884
  101      H      12.2943700703    -4.8477537285     2.3780455014
  102      H       9.8539762689    -6.7137035111     2.4065148280
  103      H      10.6403430286    -6.0529666578     3.7774061912
  104      C      11.8726885867    -7.4173920828     2.6038672336
  105      H      11.9001424639    -7.6224367293     1.5266467466
  106      C      11.5250733642    -8.6430666945     3.4362610125
  107      H      12.8492809085    -7.0041606487     2.8860289229
  108      H      12.4071390234    -9.2521739828     3.6692470297
  109      H      10.7213614418    -9.1476205017     2.8868043706
  110      H      11.1336185067    -8.4328051894     4.4391439538
 ----------------------------------------------------------------

   10   -5663.4834610543      4.34E-06 Convergence criterion met
 Total energy in the final basis set = -5663.4834610543

                    Orbital Energies (a.u.)
 --------------------------------------------------------------

 Alpha MOs
 -- Occupied --
-88.991 -88.983 -88.938 -88.931 -88.924 -88.921 -88.913 -88.912
-14.389 -14.383 -14.383 -14.379 -14.350 -14.347 -14.347 -14.345
-14.331 -14.327 -10.273 -10.263 -10.261 -10.261 -10.259 -10.258
-10.254 -10.252 -10.244 -10.244 -10.242 -10.238 -10.237 -10.237
-10.236 -10.236 -10.232 -10.231 -10.231 -10.231 -10.230 -10.229
-10.229 -10.225 -10.225 -10.223 -10.220 -10.219 -10.216 -10.214
-10.212 -10.210 -10.208 -10.202 -10.201 -10.198 -10.197 -10.195
-10.186 -10.185 -10.185 -10.184 -10.184 -10.178 -10.177 -10.176
-10.175 -10.173 -10.173 -10.171  -8.046  -8.037  -7.999  -7.991
 -7.983  -7.979  -7.973  -7.971  -6.012  -6.006  -6.004  -6.003
 -5.997  -5.995  -5.963  -5.959  -5.955  -5.955  -5.952  -5.948
 -5.947  -5.944  -5.943  -5.940  -5.940  -5.937  -5.936  -5.935
 -5.934  -5.932  -5.929  -5.927  -1.036  -1.012  -0.985  -0.968
 -0.961  -0.947  -0.935  -0.935  -0.924  -0.908  -0.898  -0.892
 -0.852  -0.840  -0.832  -0.827  -0.818  -0.810  -0.808  -0.807
 -0.803  -0.800  -0.799  -0.795  -0.786  -0.777  -0.766  -0.765
 -0.750  -0.750  -0.742  -0.740  -0.728  -0.721  -0.710  -0.709
 -0.693  -0.692  -0.679  -0.675  -0.657  -0.651  -0.644  -0.643
 -0.640  -0.635  -0.624  -0.624  -0.614  -0.610  -0.602  -0.598
 -0.591  -0.587  -0.584  -0.579  -0.578  -0.574  -0.566  -0.560
 -0.558  -0.546  -0.543  -0.541  -0.524  -0.523  -0.519  -0.517
 -0.506  -0.505  -0.502  -0.491  -0.487  -0.480  -0.475  -0.472
 -0.472  -0.471  -0.468  -0.461  -0.461  -0.457  -0.454  -0.451
 -0.447  -0.446  -0.444  -0.443  -0.440  -0.437  -0.433  -0.426
 -0.425  -0.424  -0.421  -0.419  -0.416  -0.415  -0.414  -0.412
 -0.410  -0.409  -0.409  -0.403  -0.402  -0.402  -0.399  -0.397
 -0.395  -0.391  -0.391  -0.390  -0.389  -0.388  -0.387  -0.383
 -0.378  -0.377  -0.375  -0.373  -0.369  -0.366  -0.359  -0.359
 -0.356  -0.352  -0.350  -0.347  -0.346  -0.345  -0.342  -0.340
 -0.338  -0.334  -0.331  -0.329  -0.329  -0.324  -0.320  -0.320
 -0.314  -0.310  -0.309  -0.307  -0.305  -0.300  -0.297  -0.297
 -0.296  -0.295  -0.294  -0.290  -0.288  -0.287  -0.286  -0.283
 -0.274  -0.272  -0.265  -0.263  -0.259  -0.252  -0.249  -0.248
 -0.246  -0.242  -0.235  -0.233  -0.196  -0.195

          Ground-State Mulliken Net Atomic Charges

     Atom                 Charge (a.u.)
  ----------------------------------------
      1 C                     0.263846
      2 C                    -0.111084
      3 N                    -0.485459
      4 C                    -0.081320
      5 C                     0.096828
      6 C                     0.052864
      7 C                    -0.002557
      8 C                     0.052722
      9 C                     0.209021
     10 N                    -0.530007
     11 N                    -0.558102
     12 C                     0.265893
     13 C                     0.343513
     14 S                     0.605594
     15 N                    -0.619299
     16 C                    -0.237493
     17 S                     0.327066
     18 C                    -0.106998
     19 C                    -0.226947
     20 S                     0.294798
     21 C                     0.187212
     22 C                    -0.031365
     23 C                    -0.307274
     24 C                    -0.043256
     25 N                    -0.389765
     26 S                     0.311572
     27 C                     0.115714
     28 C                    -0.319479
     29 C                    -0.238684
     30 H                     0.089889
     31 H                     0.098465
     32 H                     0.111376
     33 H                     0.115316
     34 H                     0.112642
     35 H                     0.115030
     36 H                     0.115318
     37 H                     0.144329
     38 H                     0.110292
     39 C                    -0.193184
     40 H                     0.118530
     41 H                     0.090278
     42 H                     0.101375
     43 C                    -0.176891
     44 H                     0.102667
     45 C                    -0.172707
     46 H                     0.107032
     47 H                     0.096236
     48 H                     0.100159
     49 C                    -0.192066
     50 H                     0.094656
     51 C                    -0.315652
     52 H                     0.084036
     53 H                     0.108273
     54 H                     0.099420
     55 H                     0.100930
     56 C                     0.262836
     57 C                    -0.121140
     58 N                    -0.466413
     59 C                    -0.094651
     60 C                     0.058725
     61 C                     0.053735
     62 C                     0.025973
     63 C                     0.043701
     64 C                     0.216985
     65 N                    -0.541689
     66 N                    -0.563279
     67 C                     0.254564
     68 C                     0.319748
     69 S                     0.587782
     70 N                    -0.589711
     71 C                    -0.220628
     72 S                     0.352931
     73 C                    -0.130368
     74 C                    -0.178541
     75 S                     0.312045
     76 C                     0.103093
     77 C                     0.045394
     78 C                    -0.323215
     79 C                    -0.065274
     80 N                    -0.398518
     81 S                     0.275428
     82 C                     0.108457
     83 C                    -0.297406
     84 C                    -0.242296
     85 H                     0.099612
     86 H                     0.088814
     87 H                     0.119436
     88 H                     0.128271
     89 H                     0.147123
     90 H                     0.107411
     91 H                     0.122475
     92 H                     0.138942
     93 H                     0.113813
     94 C                    -0.164267
     95 H                     0.103788
     96 H                     0.111362
     97 H                     0.101400
     98 C                    -0.187597
     99 H                     0.086168
    100 C                    -0.175377
    101 H                     0.094584
    102 H                     0.085579
    103 H                     0.089421
    104 C                    -0.174835
    105 H                     0.094387
    106 C                    -0.319106
    107 H                     0.090601
    108 H                     0.100581
    109 H                     0.103960
    110 H                     0.101885
  ----------------------------------------
  Sum of atomic charges =     0.000000

                    Cartesian Multipole Moments
 -----------------------------------------------------------------
    Charge (ESU x 10^10)
                 0.0000
    Dipole Moment (Debye)
         X      -2.6649      Y       0.8191      Z      -1.8738
       Tot       3.3591
    Quadrupole Moments (Debye-Ang)
        XX    -426.8129     XY      -7.7548     YY    -390.4832
        XZ      -1.1776     YZ      -0.6137     ZZ    -465.0319

 Total job time:  91.25s(wall), 1075.52s(cpu)
        *  Thank you very much for using Q-Chem.  Have a nice day.  *
