 Q-Chem 4.4, Q-Chem, Inc., Pleasanton, CA (2016)
 Q-Chem 4.4.2 for Intel X86 Linux

User input:
--------------------------------------------------------------
$comment
SP
$end

$rem
MEM_STATIC 5000
MEM_TOTAL 20000
JOBTYPE SP
EXCHANGE B3LYP
BASIS 6-31g(d,p)
$end

$molecule
0 1
C           8.266000    -18.490000     -2.068000
C           9.353000    -18.076000     -1.296000
N           8.289000    -18.783000     -3.381000
C          10.513000    -17.723000     -1.987000
C           9.409000    -18.388000     -4.004000
C          10.551000    -17.794000     -3.437000
C          11.696000    -17.200000     -4.199000
C          12.996000    -17.408000     -3.841000
C          11.464000    -16.332000     -5.296000
N          14.058000    -16.990000     -4.587000
N          10.246000    -15.985000     -5.782000
C          12.529000    -15.811000     -5.988000
C          13.810000    -16.153000     -5.585000
S          10.575000    -14.942000     -6.960000
N          12.229000    -14.951000     -6.985000
C          14.977000    -15.763000     -6.423000
S          15.087000    -14.339000     -7.592000
C          16.282000    -16.342000     -6.251000
C          16.894000    -14.629000     -7.694000
S          16.787000    -17.770000     -5.438000
C          17.253000    -15.778000     -6.976000
C          17.848000    -13.665000     -8.155000
C          18.379000    -17.564000     -6.039000
C          18.504000    -16.448000     -6.855000
N          17.318000    -12.753000     -8.952000
S          19.481000    -13.305000     -7.541000
C          18.352000    -11.967000     -9.402000
C          19.568000    -12.145000     -8.812000
C           7.007000    -19.026000     -1.365000
H           9.264000    -18.000000     -0.216000
H          11.358000    -17.311000     -1.443000
H           9.445000    -18.490000     -5.088000
H          13.229000    -17.999000     -2.956000
H          19.169000    -18.259000     -5.785000
H          19.387000    -16.170000     -7.420000
H          18.111000    -11.293000    -10.214000
H          20.546000    -11.752000     -9.060000
H           6.777000    -18.214000     -0.664000
C           7.295000    -20.393000     -0.666000
H           6.133000    -19.088000     -2.025000
H           8.102000    -20.105000      0.018000
H           7.661000    -21.120000     -1.401000
C           6.075000    -21.069000      0.079000
H           5.321000    -21.302000     -0.684000
C           5.380000    -20.173000      1.165000
H           6.466000    -21.969000      0.570000
H           4.484000    -20.766000      1.387000
H           4.979000    -19.220000      0.799000
C           6.207000    -19.951000      2.424000
H           6.334000    -20.933000      2.898000
C           5.438000    -19.074000      3.430000
H           7.174000    -19.503000      2.165000
H           4.496000    -19.569000      3.694000
H           5.187000    -18.107000      2.977000
H           6.035000    -18.917000      4.338000
C          13.777000    -19.646000     -7.011000
C          14.967000    -20.268000     -6.657000
N          13.656000    -18.924000     -8.134000
C          15.977000    -20.237000     -7.570000
C          14.740000    -18.780000     -8.963000
C          15.985000    -19.442000     -8.745000
C          17.210000    -19.027000     -9.461000
C          17.544000    -17.694000     -9.809000
C          18.253000    -20.021000     -9.741000
N          18.760000    -17.299000    -10.223000
N          18.169000    -21.375000     -9.655000
C          19.528000    -19.595000    -10.237000
C          19.781000    -18.197000    -10.424000
S          19.602000    -22.039000     -9.974000
N          20.342000    -20.653000    -10.449000
C          21.128000    -17.673000    -10.785000
S          22.463000    -18.633000    -11.383000
C          21.362000    -16.358000    -10.883000
C          23.323000    -17.147000    -11.752000
S          20.347000    -14.979000    -10.513000
C          22.641000    -16.023000    -11.400000
C          24.606000    -17.073000    -12.365000
C          21.689000    -13.950000    -11.058000
C          22.842000    -14.607000    -11.420000
N          25.228000    -18.242000    -12.483000
S          25.322000    -15.707000    -13.257000
C          26.311000    -18.070000    -13.293000
C          26.576000    -16.841000    -13.783000
C          12.501000    -19.806000     -6.154000
H          15.012000    -20.831000     -5.729000
H          16.908000    -20.746000     -7.339000
H          14.622000    -18.166000     -9.855000
H          16.840000    -16.884000     -9.621000
H          21.550000    -12.877000    -11.036000
H          23.778000    -14.121000    -11.673000
H          27.026000    -18.859000    -13.486000
H          27.330000    -16.489000    -14.475000
H          12.808000    -19.521000     -5.140000
C          11.925000    -21.222000     -6.211000
H          11.757000    -19.071000     -6.486000
H          12.714000    -21.983000     -6.170000
H          11.532000    -21.391000     -7.221000
C          10.870000    -21.612000     -5.076000
H           9.953000    -21.019000     -5.179000
C          11.379000    -21.564000     -3.636000
H          10.528000    -22.624000     -5.326000
H          11.812000    -20.575000     -3.441000
H          12.229000    -22.256000     -3.596000
C          10.264000    -21.829000     -2.642000
H           9.407000    -21.151000     -2.742000
C          10.860000    -21.856000     -1.105000
H           9.874000    -22.821000     -2.901000
H          11.516000    -21.020000     -0.832000
H          11.414000    -22.790000     -0.948000
H          10.081000    -21.814000     -0.334000
$end

--------------------------------------------------------------

             Standard Nuclear Orientation (Angstroms)
    I     Atom           X                Y                Z
 ----------------------------------------------------------------
    1      C      -9.0407428045    -0.5209809098     0.2149302962
    2      C      -8.5343565666    -0.8355767659    -1.0474291714
    3      N      -8.3231479510    -0.1369125036     1.2863294214
    4      C      -7.1497432550    -0.9781086818    -1.1485263052
    5      C      -7.0030720759    -0.3311375688     1.1513097638
    6      C      -6.3087504672    -0.8018410850     0.0222195533
    7      C      -4.8595313768    -1.1796351021    -0.0170323127
    8      C      -4.0405268767    -0.8217002162    -1.0478292114
    9      C      -4.2947121334    -1.9926884408     0.9981427906
   10      N      -2.6943118668    -1.0380036060    -1.0492401372
   11      N      -4.9537222585    -2.4678913067     2.0844286146
   12      C      -2.9610159287    -2.3141265030     0.9485241871
   13      C      -2.2032112209    -1.8294952766    -0.1056098648
   14      S      -3.8619749472    -3.3717292591     2.8426757801
   15      N      -2.5091225727    -3.1355087475     1.9204977480
   16      C      -0.7240837474    -1.9974047318    -0.0907326320
   17      S       0.2429320015    -3.3082451914     0.7770316395
   18      C       0.1480031979    -1.2592170978    -0.9638840374
   19      C       1.7207137845    -2.7681116531    -0.1632713770
   20      S      -0.1197855373     0.1642332478    -1.8897654050
   21      C       1.4307483414    -1.6336717496    -0.9337077127
   22      C       2.9008905368    -3.5585426426    -0.3485675834
   23      C       1.5415753914     0.2196235243    -2.3079911596
   24      C       2.2741559397    -0.8093725506    -1.7322917431
   25      N       3.0610892249    -4.4766013206     0.5891731292
   26      S       3.9309097451    -3.7343101398    -1.7912911250
   27      C       4.2728512737    -5.0809859324     0.3529444732
   28      C       4.8969941651    -4.7803014408    -0.8211400585
   29      C     -10.5401204443    -0.2119447256     0.3664206598
   30      H      -9.2064204138    -0.9979886756    -1.8853131472
   31      H      -6.7106362705    -1.3078650128    -2.0856233217
   32      H      -6.3756279600    -0.1499824531     2.0232344770
   33      H      -4.4424832621    -0.2674884224    -1.8952224801
   34      H       1.9323872356     0.9964958074    -2.9524882955
   35      H       3.3516278546    -0.9243383165    -1.7774043266
   36      H       4.6395851327    -5.7233909524     1.1432121917
   37      H       5.8893975639    -5.0180178064    -1.1831668857
   38      H     -11.0001860355    -1.0945290905    -0.0951305189
   39      C     -10.9099222772     1.1295632278    -0.3433941156
   40      H     -10.8839507478    -0.2239424730     1.4080332444
   41      H     -10.5996798928     0.9074176436    -1.3712316526
   42      H     -10.3075253434     1.9490652541     0.0667818991
   43      C     -12.4227200029     1.5793443352    -0.2457160917
   44      H     -12.6369496225     1.7598656204     0.8156470581
   45      C     -13.4647670100     0.5235333300    -0.7601460250
   46      H     -12.5204612232     2.4878845660    -0.8531395873
   47      H     -14.4063530352     0.9718846663    -0.4193442696
   48      H     -13.4378615391    -0.4474459585    -0.2507922021
   49      C     -13.4738922002     0.3293163661    -2.2702753247
   50      H     -13.7883389530     1.2840662573    -2.7115290895
   51      C     -14.5334806909    -0.7122433330    -2.6764176935
   52      H     -12.4758294706     0.0365139373    -2.6181424336
   53      H     -15.5212492932    -0.3699334521    -2.3459299726
   54      H     -14.3336636105    -1.6705439205    -2.1814105031
   55      H     -14.5400783546    -0.8491660662    -3.7657893638
   56      C      -1.9524411116     1.7170639266     1.1571831388
   57      C      -1.2830962598     2.4693923333     0.2010035333
   58      N      -1.3051171458     1.0652376275     2.1334762091
   59      C       0.0568352855     2.6400564363     0.3744602074
   60      C       0.0643507255     1.1284805256     2.1934018734
   61      C       0.8491902775     1.9373043935     1.3184025430
   62      C       2.3100263063     1.7441089105     1.1994924824
   63      C       2.9798790468     0.4966035553     1.2671437550
   64      C       3.1628054816     2.8881286698     0.8555862907
   65      N       4.2593998926     0.3009250837     0.9057390776
   66      N       2.8406577467     4.2087190905     0.8610431726
   67      C       4.5412580846     2.6755700115     0.5272507335
   68      C       5.0641887395     1.3415778729     0.5074895524
   69      S       4.0815547907     5.0825363958     0.3199666132
   70      N       5.1602929478     3.8468691730     0.2593736862
   71      C       6.4394061046     1.0325986691     0.0251877274
   72      S       7.7139685262     2.2049780877    -0.2247045141
   73      C       6.8839611879    -0.2281581689    -0.0551115452
   74      C       8.8450837304     0.8794789956    -0.4428502266
   75      S       6.0613140484    -1.7550830187     0.1908928997
   76      C       8.2637400580    -0.3487827717    -0.3665838149
   77      C      10.2428644945     1.0240038106    -0.6723181180
   78      C       7.6132668957    -2.5509822202    -0.1479534087
   79      C       8.6527173453    -1.7192782889    -0.4942384557
   80      N      10.6362815196     2.2722648581    -0.9056342163
   81      S      11.5352253592    -0.1661487825    -0.3763177791
   82      C      11.9984291217     2.3063791337    -0.8613270347
   83      C      12.6770008304     1.1621199440    -0.6355454080
   84      C      -3.4957469604     1.6414969102     1.1840472994
   85      H      -1.8574679881     2.9673004167    -0.5751167269
   86      H       0.6031228441     3.2539537627    -0.3354010296
   87      H       0.5669319455     0.5677118521     2.9805070837
   88      H       2.4259331432    -0.4129470060     1.4971909505
   89      H       7.6509654317    -3.6318179661    -0.1091344607
   90      H       9.6280314018    -2.0542782506    -0.8301529042
   91      H      12.5673037804     3.1970256212    -1.0939758194
   92      H      13.7330893739     0.9652720985    -0.5043512235
   93      H      -3.7779000769     1.3311532090     0.1702690169
   94      C      -4.1449508038     2.9662060452     1.5887213378
   95      H      -3.7990590652     0.8367991176     1.8655516865
   96      H      -3.6443626851     3.8229887362     1.1211125742
   97      H      -3.9171422799     3.1499098730     2.6458240670
   98      C      -5.7014949286     3.1287193823     1.2660608307
   99      H      -6.2961694868     2.4248130897     1.8610609155
  100      C      -6.0971380787     3.0504810890    -0.2078218876
  101      H      -5.9905524079     4.0995407331     1.6874391387
  102      H      -5.7067014201     2.1186279429    -0.6354244247
  103      H      -5.5360947052     3.8474667724    -0.7108210463
  104      C      -7.6034988470     3.0910989987    -0.3830743369
  105      H      -8.1383659403     2.3111695862     0.1734868044
  106      C      -7.9949528142     3.0920907182    -1.9846600537
  107      H      -7.9233160262     4.0362359663     0.0726427731
  108      H      -7.4912152439     2.3364190260    -2.6002652469
  109      H      -7.7766823851     4.0797082140    -2.4099725291
  110      H      -9.0562562943     2.8906766313    -2.1746950205
 ----------------------------------------------------------------

    9   -5663.5172263970      9.59E-06 Convergence criterion met
 Total energy in the final basis set = -5663.5172263970

                    Orbital Energies (a.u.)
 --------------------------------------------------------------

 Alpha MOs
 -- Occupied --
-88.990 -88.987 -88.928 -88.927 -88.926 -88.924 -88.912 -88.908
-14.388 -14.384 -14.378 -14.374 -14.353 -14.348 -14.342 -14.339
-14.333 -14.324 -10.267 -10.267 -10.265 -10.257 -10.257 -10.254
-10.252 -10.246 -10.246 -10.240 -10.239 -10.237 -10.234 -10.234
-10.229 -10.229 -10.229 -10.227 -10.227 -10.225 -10.224 -10.224
-10.224 -10.224 -10.224 -10.223 -10.223 -10.221 -10.219 -10.218
-10.212 -10.208 -10.207 -10.203 -10.202 -10.202 -10.198 -10.190
-10.185 -10.184 -10.182 -10.181 -10.181 -10.180 -10.180 -10.177
-10.175 -10.175 -10.174 -10.172  -8.045  -8.042  -7.987  -7.986
 -7.984  -7.983  -7.971  -7.969  -6.010  -6.007  -6.005  -6.003
 -6.002  -6.000  -5.951  -5.950  -5.949  -5.948  -5.947  -5.947
 -5.945  -5.944  -5.944  -5.943  -5.941  -5.939  -5.935  -5.933
 -5.931  -5.929  -5.927  -5.925  -1.043  -1.029  -0.971  -0.970
 -0.964  -0.950  -0.943  -0.929  -0.915  -0.914  -0.908  -0.890
 -0.846  -0.839  -0.835  -0.826  -0.809  -0.807  -0.807  -0.804
 -0.803  -0.798  -0.795  -0.794  -0.784  -0.781  -0.766  -0.763
 -0.746  -0.745  -0.740  -0.735  -0.728  -0.724  -0.708  -0.707
 -0.692  -0.691  -0.676  -0.671  -0.657  -0.650  -0.646  -0.640
 -0.638  -0.632  -0.628  -0.621  -0.611  -0.609  -0.599  -0.597
 -0.596  -0.594  -0.588  -0.585  -0.577  -0.572  -0.563  -0.555
 -0.543  -0.542  -0.540  -0.538  -0.525  -0.521  -0.519  -0.516
 -0.509  -0.503  -0.498  -0.495  -0.489  -0.485  -0.475  -0.474
 -0.473  -0.468  -0.467  -0.462  -0.462  -0.455  -0.452  -0.450
 -0.447  -0.441  -0.437  -0.437  -0.435  -0.433  -0.432  -0.431
 -0.429  -0.426  -0.423  -0.421  -0.417  -0.415  -0.412  -0.410
 -0.408  -0.405  -0.404  -0.403  -0.399  -0.398  -0.397  -0.394
 -0.392  -0.391  -0.390  -0.389  -0.385  -0.384  -0.382  -0.379
 -0.378  -0.376  -0.371  -0.370  -0.363  -0.361  -0.358  -0.355
 -0.353  -0.351  -0.348  -0.347  -0.346  -0.345  -0.343  -0.340
 -0.339  -0.334  -0.331  -0.330  -0.328  -0.327  -0.324  -0.317
 -0.314  -0.313  -0.312  -0.306  -0.302  -0.301  -0.300  -0.298
 -0.297  -0.295  -0.292  -0.290  -0.289  -0.285  -0.282  -0.280
 -0.277  -0.272  -0.269  -0.267  -0.258  -0.253  -0.250  -0.247
 -0.246  -0.242  -0.237  -0.229  -0.195  -0.187

          Ground-State Mulliken Net Atomic Charges

     Atom                 Charge (a.u.)
  ----------------------------------------
      1 C                     0.235504
      2 C                    -0.088504
      3 N                    -0.463249
      4 C                    -0.093063
      5 C                     0.092497
      6 C                     0.041459
      7 C                     0.041460
      8 C                     0.025333
      9 C                     0.225889
     10 N                    -0.530000
     11 N                    -0.536420
     12 C                     0.256689
     13 C                     0.308711
     14 S                     0.610445
     15 N                    -0.566505
     16 C                    -0.235076
     17 S                     0.354100
     18 C                    -0.114087
     19 C                    -0.249698
     20 S                     0.303648
     21 C                     0.147870
     22 C                     0.068959
     23 C                    -0.324186
     24 C                    -0.077690
     25 N                    -0.426974
     26 S                     0.279596
     27 C                     0.128400
     28 C                    -0.316027
     29 C                    -0.224938
     30 H                     0.100089
     31 H                     0.097553
     32 H                     0.104913
     33 H                     0.112186
     34 H                     0.130109
     35 H                     0.125919
     36 H                     0.110248
     37 H                     0.132684
     38 H                     0.092358
     39 C                    -0.173955
     40 H                     0.109168
     41 H                     0.091071
     42 H                     0.113470
     43 C                    -0.189500
     44 H                     0.095567
     45 C                    -0.172491
     46 H                     0.094999
     47 H                     0.088590
     48 H                     0.091789
     49 C                    -0.168995
     50 H                     0.094922
     51 C                    -0.316766
     52 H                     0.091227
     53 H                     0.104519
     54 H                     0.100941
     55 H                     0.098215
     56 C                     0.266998
     57 C                    -0.084055
     58 N                    -0.496040
     59 C                    -0.057401
     60 C                     0.056716
     61 C                     0.047044
     62 C                     0.023553
     63 C                     0.077445
     64 C                     0.211825
     65 N                    -0.544369
     66 N                    -0.556904
     67 C                     0.219556
     68 C                     0.311314
     69 S                     0.610044
     70 N                    -0.587701
     71 C                    -0.220043
     72 S                     0.368464
     73 C                    -0.126304
     74 C                    -0.243138
     75 S                     0.324256
     76 C                     0.158016
     77 C                     0.058342
     78 C                    -0.318979
     79 C                    -0.074920
     80 N                    -0.437665
     81 S                     0.256047
     82 C                     0.131602
     83 C                    -0.304570
     84 C                    -0.221454
     85 H                     0.092833
     86 H                     0.091745
     87 H                     0.105233
     88 H                     0.130689
     89 H                     0.117369
     90 H                     0.116565
     91 H                     0.109429
     92 H                     0.137626
     93 H                     0.108013
     94 C                    -0.192355
     95 H                     0.108773
     96 H                     0.090289
     97 H                     0.103344
     98 C                    -0.194837
     99 H                     0.100578
    100 C                    -0.159282
    101 H                     0.088233
    102 H                     0.089692
    103 H                     0.086085
    104 C                    -0.188334
    105 H                     0.121157
    106 C                    -0.336285
    107 H                     0.092391
    108 H                     0.098021
    109 H                     0.103087
    110 H                     0.099291
  ----------------------------------------
  Sum of atomic charges =     0.000000

                    Cartesian Multipole Moments
 -----------------------------------------------------------------
    Charge (ESU x 10^10)
                 0.0000
    Dipole Moment (Debye)
         X       1.8405      Y      -0.5536      Z      -3.7234
       Tot       4.1901
    Quadrupole Moments (Debye-Ang)
        XX    -379.7643     XY     -13.4690     YY    -432.9447
        XZ       8.5561     YZ      -3.2320     ZZ    -450.5816

 Total job time:  100.63s(wall), 1222.10s(cpu)
        *  Thank you very much for using Q-Chem.  Have a nice day.  *
