 Q-Chem 4.4, Q-Chem, Inc., Pleasanton, CA (2016)
 Q-Chem 4.4.2 for Intel X86 Linux

User input:
--------------------------------------------------------------
$comment
SP
$end

$rem
MEM_STATIC 5000
MEM_TOTAL 20000
JOBTYPE SP
EXCHANGE B3LYP
BASIS 6-31g(d,p)
$end

$molecule
0 1
C          10.750000    -15.784000    -10.305000
C          11.325000    -16.931000     -9.711000
N           9.511000    -15.371000    -10.071000
C          10.460000    -17.662000     -8.910000
C           8.662000    -16.220000     -9.408000
C           9.100000    -17.352000     -8.722000
C           8.234000    -18.203000     -7.768000
C           8.529000    -19.600000     -7.583000
C           7.143000    -17.691000     -6.978000
N           7.814000    -20.416000     -6.790000
N           6.817000    -16.392000     -6.969000
C           6.465000    -18.519000     -6.170000
C           6.727000    -19.913000     -6.138000
S           5.405000    -16.410000     -5.958000
N           5.499000    -17.947000     -5.452000
C           6.043000    -20.960000     -5.386000
S           6.900000    -22.306000     -4.644000
C           4.722000    -21.132000     -5.221000
C           5.370000    -22.870000     -3.837000
S           3.341000    -20.215000     -5.886000
C           4.365000    -22.186000     -4.377000
C           5.313000    -23.737000     -2.738000
C           2.232000    -21.367000     -5.068000
C           2.939000    -22.282000     -4.337000
N           4.213000    -23.830000     -1.944000
S           6.768000    -24.253000     -2.045000
C           4.569000    -24.669000     -0.937000
C           5.870000    -25.078000     -0.881000
C          11.613000    -14.866000    -11.196000
H          12.370000    -17.209000     -9.812000
H          10.806000    -18.569000     -8.423000
H           7.633000    -15.886000     -9.284000
H           9.369000    -20.089000     -8.072000
H           1.157000    -21.306000     -5.175000
H           2.469000    -23.061000     -3.747000
H           3.790000    -24.853000     -0.209000
H           6.422000    -25.711000     -0.199000
H          12.343000    -15.448000    -11.772000
C          12.254000    -13.779000    -10.364000
H          11.008000    -14.526000    -12.047000
H          12.890000    -14.249000     -9.603000
H          11.459000    -13.131000     -9.975000
C          13.195000    -12.859000    -11.210000
H          12.715000    -12.393000    -12.079000
C          14.504000    -13.437000    -11.660000
H          13.417000    -12.038000    -10.518000
H          14.279000    -14.185000    -12.430000
H          14.973000    -13.897000    -10.781000
C          15.432000    -12.351000    -12.290000
H          14.945000    -11.826000    -13.121000
C          16.753000    -13.015000    -12.764000
H          15.687000    -11.614000    -11.520000
H          17.249000    -13.465000    -11.895000
H          17.393000    -12.266000    -13.246000
H          16.493000    -13.803000    -13.482000
C          13.777000    -19.646000     -7.011000
C          14.967000    -20.268000     -6.657000
N          13.656000    -18.924000     -8.134000
C          15.977000    -20.237000     -7.570000
C          14.740000    -18.780000     -8.963000
C          15.985000    -19.442000     -8.745000
C          17.210000    -19.027000     -9.461000
C          17.544000    -17.694000     -9.809000
C          18.253000    -20.021000     -9.741000
N          18.760000    -17.299000    -10.223000
N          18.169000    -21.375000     -9.655000
C          19.528000    -19.595000    -10.237000
C          19.781000    -18.197000    -10.424000
S          19.602000    -22.039000     -9.974000
N          20.342000    -20.653000    -10.449000
C          21.128000    -17.673000    -10.785000
S          22.463000    -18.633000    -11.383000
C          21.362000    -16.358000    -10.883000
C          23.323000    -17.147000    -11.752000
S          20.347000    -14.979000    -10.513000
C          22.641000    -16.023000    -11.400000
C          24.606000    -17.073000    -12.365000
C          21.689000    -13.950000    -11.058000
C          22.842000    -14.607000    -11.420000
N          25.228000    -18.242000    -12.483000
S          25.322000    -15.707000    -13.257000
C          26.311000    -18.070000    -13.293000
C          26.576000    -16.841000    -13.783000
C          12.501000    -19.806000     -6.154000
H          15.012000    -20.831000     -5.729000
H          16.908000    -20.746000     -7.339000
H          14.622000    -18.166000     -9.855000
H          16.840000    -16.884000     -9.621000
H          21.550000    -12.877000    -11.036000
H          23.778000    -14.121000    -11.673000
H          27.026000    -18.859000    -13.486000
H          27.330000    -16.489000    -14.475000
H          12.808000    -19.521000     -5.140000
C          11.925000    -21.222000     -6.211000
H          11.757000    -19.071000     -6.486000
H          12.714000    -21.983000     -6.170000
H          11.532000    -21.391000     -7.221000
C          10.870000    -21.612000     -5.076000
H           9.953000    -21.019000     -5.179000
C          11.379000    -21.564000     -3.636000
H          10.528000    -22.624000     -5.326000
H          11.812000    -20.575000     -3.441000
H          12.229000    -22.256000     -3.596000
C          10.264000    -21.829000     -2.642000
H           9.407000    -21.151000     -2.742000
C          10.860000    -21.856000     -1.105000
H           9.874000    -22.821000     -2.901000
H          11.516000    -21.020000     -0.832000
H          11.414000    -22.790000     -0.948000
H          10.081000    -21.814000     -0.334000
$end

--------------------------------------------------------------

             Standard Nuclear Orientation (Angstroms)
    I     Atom           X                Y                Z
 ----------------------------------------------------------------
    1      C       0.6150415328     4.4184065794     0.7899821126
    2      C       0.6195872630     3.0045294895     0.7909365010
    3      N       1.7053715531     5.1624374082     0.6556520240
    4      C       1.8806883907     2.4307821072     0.7229299789
    5      C       2.9253766794     4.5444169545     0.7596193774
    6      C       3.0843197268     3.1602340382     0.7082504967
    7      C       4.4363617066     2.4255171493     0.5800062841
    8      C       4.5847389917     1.0953497915     1.1105701178
    9      C       5.5946876974     2.9559393226    -0.0933867788
   10      N       5.7303768452     0.3946463365     1.0609860790
   11      N       5.5749208901     4.1380552208    -0.7226476759
   12      C       6.7164897140     2.2240656971    -0.1570517748
   13      C       6.8320665252     0.9740137765     0.5039445918
   14      S       7.2327843032     4.2779406565    -1.2207540585
   15      N       7.7210442264     2.7820805479    -0.8318507506
   16      C       7.9892962835     0.0906691886     0.6043966963
   17      S       7.8514612420    -1.6620180673     0.5281216390
   18      C       9.2648752916     0.4233155431     0.8575658037
   19      C       9.6629962812    -1.8305575152     0.5146956898
   20      S       9.9998790767     2.0108431932     1.2178440237
   21      C      10.1714373499    -0.6382476927     0.8136371002
   22      C      10.3614902970    -2.9704759613     0.0958507947
   23      C      11.5845830610     1.1888704397     1.4157911748
   24      C      11.4715866289    -0.1485936958     1.1514873862
   25      N      11.6745363862    -2.9281619875    -0.2551541842
   26      S       9.4760426830    -4.2752075838    -0.5183054690
   27      C      11.9642323346    -4.1760107797    -0.7064364123
   28      C      10.9342346269    -5.0638225097    -0.8243900222
   29      C      -0.7251962446     5.1822088163     0.8317294851
   30      H      -0.2783114504     2.3935631500     0.7881023310
   31      H       1.9873238328     1.3500221263     0.7339184294
   32      H       3.8048991058     5.1845488954     0.7101785077
   33      H       3.7633962519     0.5601546774     1.5825916147
   34      H      12.4777901473     1.7235646606     1.7108813157
   35      H      12.3103928203    -0.8345590516     1.1926784519
   36      H      12.9888045175    -4.3112441332    -1.0268186561
   37      H      10.8710325090    -6.0887852356    -1.1649394354
   38      H      -1.4617822741     4.6532242136     1.4489946724
   39      C      -1.2197270654     5.4512698447    -0.5710247451
   40      H      -0.6124941153     6.0623975198     1.4785618252
   41      H      -1.3646911580     4.4908111338    -1.0819273546
   42      H      -0.5163720568     6.1387756746    -1.0566969244
   43      C      -2.6114058730     6.1658651833    -0.5844634358
   44      H      -2.6466879698     7.1044672234    -0.0183376688
   45      C      -3.8105434936     5.3500753822    -0.2015522619
   46      H      -2.7276264686     6.4498050420    -1.6371076919
   47      H      -3.7404178160     5.1592146801     0.8762619993
   48      H      -3.7629687985     4.4166466271    -0.7765734855
   49      C      -5.1440632139     6.1138881881    -0.4768614578
   50      H      -5.1720947582     7.0872179887     0.0283101286
   51      C      -6.3427891046     5.2335778396    -0.0310779574
   52      H      -5.2380804658     6.2835473334    -1.5555043694
   53      H      -6.3254957047     4.3013827516    -0.6093428244
   54      H      -7.2814931074     5.7803011950    -0.1822512608
   55      H      -6.2112915373     5.0028434044     1.0335994633
   56      C       0.1836905189    -1.3317904686    -0.5051546415
   57      C      -0.5777116837    -2.4716582693    -0.7271187888
   58      N      -0.3322071480    -0.2263504540     0.0506384597
   59      C      -1.8439397006    -2.4774215230    -0.2258569866
   60      C      -1.6573547934    -0.2061154377     0.4064576020
   61      C      -2.5122569692    -1.3438837638     0.3043865206
   62      C      -3.9818735259    -1.2092633077     0.3916247536
   63      C      -4.7364270516    -0.1202706787    -0.1126500036
   64      C      -4.7778874176    -2.3243807591     0.9180845846
   65      N      -6.0723582144    -0.1248193170    -0.2587466772
   66      N      -4.3442961823    -3.4229265196     1.5911104776
   67      C      -6.2062684081    -2.2935974139     0.8090106110
   68      C      -6.8403163313    -1.1862844432     0.1569191942
   69      S      -5.5800050760    -4.4141252593     1.8855499255
   70      N      -6.7571792298    -3.3952639957     1.3655463323
   71      C      -8.3018277103    -1.1622237343    -0.1306770008
   72      S      -9.4915669856    -2.2360591109     0.5713394098
   73      C      -8.8635208034    -0.1516913586    -0.8066283207
   74      C     -10.7564129668    -1.2298026447    -0.1153698216
   75      S      -8.1486050374     1.2261036885    -1.6186272466
   76      C     -10.2820142465    -0.1874598527    -0.8508093895
   77      C     -12.1542620005    -1.4383882224     0.0573847314
   78      C      -9.8005382004     1.7384859922    -2.0253350043
   79      C     -10.8075236777     0.8857012446    -1.6369532039
   80      N     -12.4711033079    -2.5907412485     0.6396759724
   81      S     -13.4723888825    -0.2510138331    -0.1068090040
   82      C     -13.7944766809    -2.5553817135     0.9652610131
   83      C     -14.5199162615    -1.4628204652     0.6477498582
   84      C       1.6936862286    -1.2980719486    -0.8322647426
   85      H      -0.1108341655    -3.3353751163    -1.1920882406
   86      H      -2.4526566871    -3.3680559710    -0.3501023503
   87      H      -2.0574953135     0.7137257565     0.8311501281
   88      H      -4.2329028195     0.7454888169    -0.5415833824
   89      H      -9.9262502937     2.6554548951    -2.5861366631
   90      H     -11.8531996319     1.0020616814    -1.9002459072
   91      H     -14.3147695780    -3.4065383898     1.3845730851
   92      H     -15.5482728793    -1.1963441800     0.8545276525
   93      H       1.7598346984    -1.6182163409    -1.8795478695
   94      C       2.5199985508    -2.1853114216     0.1005241208
   95      H       2.0423603138    -0.2586041010    -0.7884700384
   96      H       2.0212436123    -3.1422369400     0.2976536814
   97      H       2.5036746513    -1.7376393083     1.1017399863
   98      C       4.0010523024    -2.5450461255    -0.3794974698
   99      H       4.6284879417    -1.6457788995    -0.4076039593
  100      C       4.1160036825    -3.3185994776    -1.6922755896
  101      H       4.4462099298    -3.1199237817     0.4420610292
  102      H       3.5738644269    -2.7765689324    -2.4770831555
  103      H       3.5463469549    -4.2441982110    -1.5448910674
  104      C       5.5636680103    -3.4933563951    -2.1108613201
  105      H       6.1188489903    -2.5510684504    -2.2003068834
  106      C       5.6585158655    -4.4039903321    -3.4820154752
  107      H       6.0428725191    -4.0285928360    -1.2819282763
  108      H       4.9871066942    -4.1099769523    -4.2984264362
  109      H       5.4555430695    -5.4534395535    -3.2342668610
  110      H       6.6460814574    -4.3741718830    -3.9583253132
 ----------------------------------------------------------------

   10   -5663.5205162626      3.91E-06 Convergence criterion met
 Total energy in the final basis set = -5663.5205162626

                    Orbital Energies (a.u.)
 --------------------------------------------------------------

 Alpha MOs
 -- Occupied --
-88.994 -88.986 -88.929 -88.927 -88.923 -88.920 -88.915 -88.906
-14.390 -14.385 -14.382 -14.379 -14.357 -14.349 -14.344 -14.342
-14.336 -14.319 -10.272 -10.269 -10.262 -10.261 -10.261 -10.259
-10.253 -10.252 -10.248 -10.238 -10.237 -10.237 -10.237 -10.235
-10.235 -10.234 -10.233 -10.232 -10.230 -10.229 -10.228 -10.227
-10.226 -10.226 -10.225 -10.222 -10.222 -10.220 -10.216 -10.212
-10.210 -10.209 -10.208 -10.202 -10.201 -10.196 -10.195 -10.189
-10.188 -10.188 -10.186 -10.178 -10.177 -10.177 -10.177 -10.176
-10.174 -10.173 -10.169 -10.168  -8.049  -8.042  -7.989  -7.987
 -7.985  -7.979  -7.974  -7.966  -6.015  -6.009  -6.007  -6.007
 -6.001  -5.999  -5.953  -5.950  -5.950  -5.950  -5.947  -5.946
 -5.946  -5.944  -5.943  -5.942  -5.940  -5.938  -5.935  -5.935
 -5.931  -5.930  -5.927  -5.922  -1.038  -1.033  -0.975  -0.972
 -0.955  -0.955  -0.940  -0.928  -0.918  -0.916  -0.904  -0.894
 -0.848  -0.841  -0.833  -0.821  -0.819  -0.812  -0.811  -0.805
 -0.805  -0.803  -0.802  -0.796  -0.787  -0.775  -0.768  -0.763
 -0.749  -0.746  -0.740  -0.737  -0.731  -0.723  -0.711  -0.706
 -0.696  -0.691  -0.680  -0.676  -0.655  -0.652  -0.648  -0.641
 -0.635  -0.631  -0.629  -0.620  -0.614  -0.607  -0.599  -0.598
 -0.595  -0.590  -0.590  -0.585  -0.577  -0.576  -0.567  -0.559
 -0.555  -0.547  -0.541  -0.541  -0.526  -0.524  -0.519  -0.513
 -0.512  -0.501  -0.500  -0.496  -0.493  -0.479  -0.477  -0.475
 -0.472  -0.470  -0.468  -0.467  -0.460  -0.456  -0.455  -0.447
 -0.444  -0.443  -0.441  -0.441  -0.439  -0.436  -0.435  -0.431
 -0.429  -0.425  -0.424  -0.419  -0.419  -0.417  -0.415  -0.414
 -0.410  -0.407  -0.406  -0.404  -0.402  -0.401  -0.398  -0.397
 -0.397  -0.390  -0.389  -0.387  -0.384  -0.384  -0.380  -0.377
 -0.376  -0.374  -0.372  -0.368  -0.365  -0.360  -0.359  -0.355
 -0.352  -0.351  -0.350  -0.348  -0.345  -0.343  -0.340  -0.338
 -0.337  -0.335  -0.334  -0.332  -0.330  -0.330  -0.322  -0.318
 -0.316  -0.311  -0.308  -0.307  -0.306  -0.305  -0.302  -0.299
 -0.298  -0.297  -0.295  -0.292  -0.291  -0.289  -0.284  -0.283
 -0.277  -0.276  -0.274  -0.259  -0.256  -0.254  -0.251  -0.250
 -0.245  -0.238  -0.237  -0.227  -0.199  -0.192

          Ground-State Mulliken Net Atomic Charges

     Atom                 Charge (a.u.)
  ----------------------------------------
      1 C                     0.248441
      2 C                    -0.098690
      3 N                    -0.477477
      4 C                    -0.091459
      5 C                     0.056575
      6 C                     0.064361
      7 C                     0.017936
      8 C                     0.060492
      9 C                     0.275211
     10 N                    -0.508057
     11 N                    -0.574557
     12 C                     0.225563
     13 C                     0.254997
     14 S                     0.585324
     15 N                    -0.531237
     16 C                    -0.223526
     17 S                     0.304652
     18 C                    -0.105862
     19 C                    -0.265640
     20 S                     0.242382
     21 C                     0.202029
     22 C                     0.052396
     23 C                    -0.300046
     24 C                    -0.049088
     25 N                    -0.436918
     26 S                     0.294894
     27 C                     0.122803
     28 C                    -0.314218
     29 C                    -0.214093
     30 H                     0.106877
     31 H                     0.097010
     32 H                     0.113082
     33 H                     0.119577
     34 H                     0.135484
     35 H                     0.119520
     36 H                     0.106505
     37 H                     0.136302
     38 H                     0.088637
     39 C                    -0.169100
     40 H                     0.107943
     41 H                     0.092309
     42 H                     0.115841
     43 C                    -0.183297
     44 H                     0.087734
     45 C                    -0.160767
     46 H                     0.083443
     47 H                     0.090411
     48 H                     0.083158
     49 C                    -0.180299
     50 H                     0.093417
     51 C                    -0.316624
     52 H                     0.092574
     53 H                     0.110819
     54 H                     0.094666
     55 H                     0.102586
     56 C                     0.269380
     57 C                    -0.093933
     58 N                    -0.506749
     59 C                    -0.059505
     60 C                     0.059353
     61 C                     0.046156
     62 C                     0.017377
     63 C                     0.075762
     64 C                     0.214950
     65 N                    -0.538399
     66 N                    -0.556883
     67 C                     0.220186
     68 C                     0.314961
     69 S                     0.615154
     70 N                    -0.586687
     71 C                    -0.215798
     72 S                     0.370810
     73 C                    -0.117223
     74 C                    -0.242243
     75 S                     0.302472
     76 C                     0.159889
     77 C                     0.058959
     78 C                    -0.310943
     79 C                    -0.074054
     80 N                    -0.437125
     81 S                     0.258810
     82 C                     0.131931
     83 C                    -0.304257
     84 C                    -0.221903
     85 H                     0.098901
     86 H                     0.099822
     87 H                     0.101558
     88 H                     0.118746
     89 H                     0.128077
     90 H                     0.118507
     91 H                     0.110281
     92 H                     0.138731
     93 H                     0.104960
     94 C                    -0.194730
     95 H                     0.117372
     96 H                     0.092161
     97 H                     0.100706
     98 C                    -0.195709
     99 H                     0.110083
    100 C                    -0.160409
    101 H                     0.095565
    102 H                     0.090807
    103 H                     0.087316
    104 C                    -0.183655
    105 H                     0.110732
    106 C                    -0.336705
    107 H                     0.102866
    108 H                     0.103905
    109 H                     0.104370
    110 H                     0.100295
  ----------------------------------------
  Sum of atomic charges =     0.000000

                    Cartesian Multipole Moments
 -----------------------------------------------------------------
    Charge (ESU x 10^10)
                 0.0000
    Dipole Moment (Debye)
         X      -2.4563      Y      -2.9685      Z      -1.4299
       Tot       4.1097
    Quadrupole Moments (Debye-Ang)
        XX    -368.9336     XY     -19.7795     YY    -431.2783
        XZ      -3.1842     YZ       0.5698     ZZ    -448.8270

 Total job time:  92.58s(wall), 1096.90s(cpu)
        *  Thank you very much for using Q-Chem.  Have a nice day.  *
