 Q-Chem 4.4, Q-Chem, Inc., Pleasanton, CA (2016)
 Q-Chem 4.4.2 for Intel X86 Linux

User input:
--------------------------------------------------------------
$comment
SP
$end

$rem
MEM_STATIC 5000
MEM_TOTAL 20000
JOBTYPE SP
EXCHANGE B3LYP
BASIS 6-31g(d,p)
$end

$molecule
0 1
C          21.945000    -21.252000    -16.699000
C          21.637000    -22.560000    -16.345000
N          22.902000    -20.523000    -16.041000
C          22.230000    -23.066000    -15.142000
C          23.385000    -21.062000    -14.898000
C          23.094000    -22.308000    -14.337000
C          23.565000    -22.729000    -12.959000
C          22.687000    -23.410000    -12.082000
C          24.857000    -22.560000    -12.446000
N          23.002000    -23.823000    -10.882000
N          25.818000    -21.859000    -13.113000
C          25.272000    -23.184000    -11.295000
C          24.291000    -23.798000    -10.515000
S          27.116000    -21.953000    -12.241000
N          26.518000    -22.860000    -10.939000
C          24.599000    -24.269000     -9.164000
S          26.200000    -24.095000     -8.329000
C          23.806000    -25.149000     -8.450000
C          25.632000    -25.049000     -6.940000
S          22.209000    -25.708000     -8.776000
C          24.379000    -25.506000     -7.221000
C          26.365000    -25.274000     -5.788000
C          22.251000    -26.539000     -7.243000
C          23.462000    -26.356000     -6.542000
N          27.437000    -24.534000     -5.553000
S          26.041000    -26.589000     -4.709000
C          28.028000    -24.951000     -4.306000
C          27.353000    -26.009000     -3.716000
C          21.432000    -20.654000    -17.970000
H          21.061000    -23.251000    -16.954000
H          21.993000    -24.043000    -14.732000
H          24.115000    -20.465000    -14.354000
H          21.625000    -23.497000    -12.310000
H          21.295000    -26.912000     -6.897000
H          23.555000    -26.538000     -5.477000
H          28.798000    -24.326000     -3.873000
H          27.551000    -26.550000     -2.800000
H          22.218000    -20.023000    -18.403000
C          20.089000    -19.839000    -17.803000
H          21.202000    -21.343000    -18.792000
H          20.044000    -19.062000    -18.576000
H          20.120000    -19.289000    -16.855000
C          18.789000    -20.774000    -17.748000
H          18.843000    -21.468000    -18.596000
C          17.440000    -20.017000    -17.563000
H          18.888000    -21.299000    -16.790000
H          17.280000    -19.405000    -18.459000
H          17.659000    -19.491000    -16.625000
C          16.208000    -20.927000    -17.519000
H          16.270000    -21.612000    -18.373000
C          14.787000    -20.352000    -17.521000
H          16.374000    -21.639000    -16.701000
H          13.987000    -21.102000    -17.555000
H          14.576000    -19.760000    -18.420000
H          14.584000    -19.655000    -16.699000
C          13.777000    -19.646000     -7.011000
C          14.967000    -20.268000     -6.657000
N          13.656000    -18.924000     -8.134000
C          15.977000    -20.237000     -7.570000
C          14.740000    -18.780000     -8.963000
C          15.985000    -19.442000     -8.745000
C          17.210000    -19.027000     -9.461000
C          17.544000    -17.694000     -9.809000
C          18.253000    -20.021000     -9.741000
N          18.760000    -17.299000    -10.223000
N          18.169000    -21.375000     -9.655000
C          19.528000    -19.595000    -10.237000
C          19.781000    -18.197000    -10.424000
S          19.602000    -22.039000     -9.974000
N          20.342000    -20.653000    -10.449000
C          21.128000    -17.673000    -10.785000
S          22.463000    -18.633000    -11.383000
C          21.362000    -16.358000    -10.883000
C          23.323000    -17.147000    -11.752000
S          20.347000    -14.979000    -10.513000
C          22.641000    -16.023000    -11.400000
C          24.606000    -17.073000    -12.365000
C          21.689000    -13.950000    -11.058000
C          22.842000    -14.607000    -11.420000
N          25.228000    -18.242000    -12.483000
S          25.322000    -15.707000    -13.257000
C          26.311000    -18.070000    -13.293000
C          26.576000    -16.841000    -13.783000
C          12.501000    -19.806000     -6.154000
H          15.012000    -20.831000     -5.729000
H          16.908000    -20.746000     -7.339000
H          14.622000    -18.166000     -9.855000
H          16.840000    -16.884000     -9.621000
H          21.550000    -12.877000    -11.036000
H          23.778000    -14.121000    -11.673000
H          27.026000    -18.859000    -13.486000
H          27.330000    -16.489000    -14.475000
H          12.808000    -19.521000     -5.140000
C          11.925000    -21.222000     -6.211000
H          11.757000    -19.071000     -6.486000
H          12.714000    -21.983000     -6.170000
H          11.532000    -21.391000     -7.221000
C          10.870000    -21.612000     -5.076000
H           9.953000    -21.019000     -5.179000
C          11.379000    -21.564000     -3.636000
H          10.528000    -22.624000     -5.326000
H          11.812000    -20.575000     -3.441000
H          12.229000    -22.256000     -3.596000
C          10.264000    -21.829000     -2.642000
H           9.407000    -21.151000     -2.742000
C          10.860000    -21.856000     -1.105000
H           9.874000    -22.821000     -2.901000
H          11.516000    -21.020000     -0.832000
H          11.414000    -22.790000     -0.948000
H          10.081000    -21.814000     -0.334000
$end

--------------------------------------------------------------

             Standard Nuclear Orientation (Angstroms)
    I     Atom           X                Y                Z
 ----------------------------------------------------------------
    1      C      -3.1669999431     4.5842603208     3.1451987305
    2      C      -2.8931052010     3.6311536193     4.1186530364
    3      N      -3.7247898000     4.2549050988     1.9366253511
    4      C      -3.0463088074     2.2557615058     3.7448627352
    5      C      -3.8025465255     2.9344469295     1.6527184741
    6      C      -3.4604719345     1.8515617040     2.4665136341
    7      C      -3.4268154073     0.4189333504     1.9721360064
    8      C      -2.3647241298    -0.4396206044     2.3444547206
    9      C      -4.4081153350    -0.2028174139     1.1901702533
   10      N      -2.2527424668    -1.6903853076     1.9799800790
   11      N      -5.4662926246     0.4831130931     0.6709678232
   12      C      -4.4294387372    -1.5616600334     0.9914391592
   13      C      -3.3012916080    -2.2805803826     1.3891759898
   14      S      -6.3478918409    -0.5713333868    -0.0806633647
   15      N      -5.4100266883    -1.9604285980     0.1767865325
   16      C      -3.1328899440    -3.6806780483     0.9976745131
   17      S      -4.2784652059    -4.6268265281    -0.0430763569
   18      C      -2.2314513461    -4.5478642628     1.5879638690
   19      C      -3.3409326639    -6.1181979796     0.1996270139
   20      S      -0.9416774684    -4.2210657268     2.6828848987
   21      C      -2.3403748851    -5.8527458362     1.0863278038
   22      C      -3.6116908296    -7.3266022022    -0.4180033372
   23      C      -0.4993550262    -5.9045803042     2.5708870203
   24      C      -1.3344391528    -6.6447281837     1.7070429267
   25      N      -4.4318763667    -7.3484595049    -1.4566692811
   26      S      -3.0536909646    -8.8446853729     0.2004638305
   27      C      -4.5571905569    -8.7063761654    -1.9241494377
   28      C      -3.8300107099    -9.6086437549    -1.1624331736
   29      C      -3.1028847532     6.0458528599     3.4547960364
   30      H      -2.6640831924     3.8500349639     5.1577766463
   31      H      -2.7810867446     1.4321283657     4.4006704112
   32      H      -4.2079138957     2.6739984981     0.6764557483
   33      H      -1.4803239087    -0.0495569622     2.8475288742
   34      H       0.4701911741    -6.1527023616     2.9846461411
   35      H      -1.0430970722    -7.6023689629     1.2898595974
   36      H      -5.0377427800    -8.8740962755    -2.8791120158
   37      H      -3.7298913489   -10.6829302846    -1.2450501560
   38      H      -3.9201838628     6.5523964448     2.9267034668
   39      C      -1.7145063257     6.7171647194     3.1120005736
   40      H      -3.2718926976     6.3463190615     4.4961707895
   41      H      -1.8767623309     7.7781459027     2.8855609185
   42      H      -1.3302226770     6.2876504480     2.1792580754
   43      C      -0.5972885525     6.4571021417     4.2306792151
   44      H      -1.0382720364     6.7047423350     5.2042622376
   45      C       0.7970355418     7.0824636977     3.9275979647
   46      H      -0.3885431117     5.3837791800     4.1435404703
   47      H       0.6770458440     8.1726697305     3.9312419192
   48      H       1.0017217834     6.6004436155     2.9631078492
   49      C       1.8501947826     6.8285626697     5.0112260750
   50      H       1.4005788268     7.0840843667     5.9781485923
   51      C       3.2214658986     7.5125944107     4.9714001561
   52      H       1.9247478538     5.7400481560     5.1261260014
   53      H       3.8647682036     7.3048400425     5.8354928982
   54      H       3.1451930404     8.6062249560     5.0080154716
   55      H       3.7904123847     7.3237733187     4.0530600823
   56      C       8.1446758442    -0.0201702426    -0.5961932656
   57      C       7.1123534229    -0.9484398966    -0.6266213448
   58      N       7.9160976004     1.3006278153    -0.5789167901
   59      C       5.8446949845    -0.4688704975    -0.4936353501
   60      C       6.6237898622     1.7615428552    -0.6019610069
   61      C       5.4857684028     0.9026043664    -0.5478793063
   62      C       4.1350024519     1.3967158435    -0.8896265729
   63      C       3.8420919338     2.3531205200    -1.8941376594
   64      C       2.9616014101     0.7845047845    -0.2551089495
   65      N       2.6099697429     2.6026267445    -2.3692150749
   66      N       2.9242087944    -0.0416526944     0.8237022537
   67      C       1.6479132694     1.1011745912    -0.7316178188
   68      C       1.4966903405     1.9895961466    -1.8457186964
   69      S       1.4126281167    -0.5298012698     1.0938518846
   70      N       0.7039620885     0.4557239129    -0.0110252918
   71      C       0.1775707222     2.2397281224    -2.4912134116
   72      S      -1.3797415093     1.8226959198    -1.8112930077
   73      C       0.0680162942     3.0156915823    -3.5772445052
   74      C      -2.1486656255     2.7535657300    -3.0865161646
   75      S       1.2908995889     3.7726182797    -4.5774366979
   76      C      -1.2670521996     3.2953185718    -3.9706347232
   77      C      -3.5514955777     2.9566666129    -3.2212461039
   78      C      -0.0373946385     4.4582373752    -5.5378485373
   79      C      -1.3061772156     4.0768408855    -5.1679438338
   80      N      -4.2955081753     2.2214991674    -2.4006712556
   81      S      -4.3955758207     4.2615190933    -4.0925465962
   82      C      -5.5767784920     2.6839853348    -2.4556796224
   83      C      -5.8702812422     3.7081844074    -3.2837124691
   84      C       9.6226356165    -0.4646560477    -0.5168693679
   85      H       7.3555688157    -2.0069272341    -0.6516978091
   86      H       5.0175066028    -1.1721887550    -0.4761479304
   87      H       6.4667984334     2.8394018674    -0.6145165272
   88      H       4.6488231023     2.8472297413    -2.4346012560
   89      H       0.2152856700     5.0935116625    -6.3767247151
   90      H      -2.2103852013     4.3225327183    -5.7141529895
   91      H      -6.3932329853     2.2031489324    -1.9330005482
   92      H      -6.7848449425     4.2637379289    -3.4456307285
   93      H       9.7483948336    -1.1664643524    -1.3507277028
   94      C       9.9786878879    -1.0934826007     0.8314202695
   95      H      10.2643582556     0.4013099715    -0.7224901549
   96      H       9.1842516615    -1.7588097315     1.1913284400
   97      H       9.9462612942    -0.3067150872     1.5950009107
   98      C      11.3315958012    -1.9416907006     0.8908609761
   99      H      12.2026814786    -1.2931826411     0.7366078092
  100      C      11.4041964888    -3.1618740082    -0.0261269387
  101      H      11.4438936388    -2.2452747864     1.9391137598
  102      H      11.1850430032    -2.8511787147    -1.0552407246
  103      H      10.5606511400    -3.8017566115     0.2601343029
  104      C      12.7734268497    -3.8133860839     0.0210560443
  105      H      13.5995506808    -3.1330868747    -0.2215246674
  106      C      12.7938502898    -5.1738558728    -0.9100824183
  107      H      12.9287794614    -4.0865719448     1.0719985030
  108      H      12.3816375996    -5.0671903648    -1.9212521209
  109      H      12.2404555328    -5.9711244361    -0.3981858653
  110      H      13.8036210347    -5.5578372698    -1.0997329641
 ----------------------------------------------------------------

   10   -5663.5311745767      3.29E-06 Convergence criterion met
 Total energy in the final basis set = -5663.5311745767

                    Orbital Energies (a.u.)
 --------------------------------------------------------------

 Alpha MOs
 -- Occupied --
-88.989 -88.989 -88.925 -88.925 -88.922 -88.919 -88.914 -88.910
-14.383 -14.381 -14.377 -14.373 -14.352 -14.350 -14.343 -14.341
-14.327 -14.326 -10.267 -10.265 -10.261 -10.258 -10.256 -10.253
-10.251 -10.247 -10.243 -10.237 -10.236 -10.235 -10.232 -10.232
-10.232 -10.232 -10.230 -10.230 -10.227 -10.227 -10.226 -10.226
-10.226 -10.225 -10.225 -10.223 -10.222 -10.216 -10.214 -10.211
-10.209 -10.206 -10.206 -10.206 -10.205 -10.205 -10.199 -10.194
-10.189 -10.185 -10.184 -10.183 -10.182 -10.181 -10.180 -10.180
-10.178 -10.178 -10.177 -10.173  -8.045  -8.043  -7.987  -7.985
 -7.981  -7.976  -7.975  -7.969  -6.010  -6.009  -6.005  -6.003
 -6.003  -6.001  -5.951  -5.949  -5.947  -5.946  -5.945  -5.944
 -5.942  -5.942  -5.941  -5.939  -5.937  -5.937  -5.935  -5.934
 -5.933  -5.931  -5.930  -5.926  -1.043  -1.028  -0.972  -0.968
 -0.959  -0.950  -0.932  -0.929  -0.914  -0.913  -0.904  -0.888
 -0.844  -0.844  -0.836  -0.827  -0.810  -0.806  -0.805  -0.803
 -0.801  -0.799  -0.796  -0.795  -0.784  -0.780  -0.765  -0.764
 -0.748  -0.745  -0.740  -0.736  -0.726  -0.721  -0.710  -0.708
 -0.695  -0.694  -0.679  -0.676  -0.655  -0.652  -0.643  -0.641
 -0.637  -0.631  -0.624  -0.622  -0.610  -0.609  -0.599  -0.596
 -0.595  -0.594  -0.588  -0.584  -0.572  -0.572  -0.567  -0.564
 -0.547  -0.543  -0.541  -0.537  -0.524  -0.521  -0.515  -0.515
 -0.505  -0.505  -0.497  -0.494  -0.487  -0.482  -0.481  -0.475
 -0.472  -0.470  -0.469  -0.464  -0.462  -0.459  -0.450  -0.449
 -0.440  -0.440  -0.438  -0.435  -0.434  -0.433  -0.431  -0.430
 -0.428  -0.426  -0.420  -0.419  -0.416  -0.416  -0.413  -0.411
 -0.408  -0.407  -0.403  -0.401  -0.400  -0.397  -0.397  -0.394
 -0.393  -0.392  -0.390  -0.387  -0.386  -0.382  -0.380  -0.380
 -0.375  -0.375  -0.372  -0.368  -0.362  -0.361  -0.359  -0.357
 -0.356  -0.355  -0.348  -0.346  -0.345  -0.344  -0.342  -0.337
 -0.334  -0.333  -0.332  -0.330  -0.329  -0.327  -0.319  -0.319
 -0.317  -0.310  -0.308  -0.305  -0.305  -0.304  -0.300  -0.299
 -0.296  -0.293  -0.289  -0.288  -0.288  -0.283  -0.281  -0.280
 -0.276  -0.272  -0.268  -0.262  -0.257  -0.253  -0.252  -0.246
 -0.245  -0.244  -0.232  -0.231  -0.194  -0.193

          Ground-State Mulliken Net Atomic Charges

     Atom                 Charge (a.u.)
  ----------------------------------------
      1 C                     0.271777
      2 C                    -0.109095
      3 N                    -0.479823
      4 C                    -0.108287
      5 C                     0.068575
      6 C                     0.075689
      7 C                     0.027144
      8 C                     0.058387
      9 C                     0.197839
     10 N                    -0.507534
     11 N                    -0.516941
     12 C                     0.253339
     13 C                     0.284158
     14 S                     0.615599
     15 N                    -0.579666
     16 C                    -0.225878
     17 S                     0.362490
     18 C                    -0.125251
     19 C                    -0.206969
     20 S                     0.292396
     21 C                     0.151786
     22 C                     0.064910
     23 C                    -0.312266
     24 C                    -0.102774
     25 N                    -0.446664
     26 S                     0.274070
     27 C                     0.106281
     28 C                    -0.302714
     29 C                    -0.237593
     30 H                     0.099747
     31 H                     0.087834
     32 H                     0.125107
     33 H                     0.107148
     34 H                     0.133098
     35 H                     0.113055
     36 H                     0.121820
     37 H                     0.134551
     38 H                     0.118085
     39 C                    -0.191118
     40 H                     0.098620
     41 H                     0.094715
     42 H                     0.106290
     43 C                    -0.188959
     44 H                     0.084086
     45 C                    -0.165069
     46 H                     0.098310
     47 H                     0.091189
     48 H                     0.096965
     49 C                    -0.171369
     50 H                     0.090931
     51 C                    -0.322923
     52 H                     0.087424
     53 H                     0.104396
     54 H                     0.100212
     55 H                     0.104730
     56 C                     0.257616
     57 C                    -0.091352
     58 N                    -0.487329
     59 C                    -0.062315
     60 C                     0.052651
     61 C                     0.046869
     62 C                     0.018310
     63 C                     0.074467
     64 C                     0.212170
     65 N                    -0.538010
     66 N                    -0.558740
     67 C                     0.219612
     68 C                     0.313783
     69 S                     0.621703
     70 N                    -0.590059
     71 C                    -0.215380
     72 S                     0.370090
     73 C                    -0.117066
     74 C                    -0.243772
     75 S                     0.300167
     76 C                     0.160055
     77 C                     0.062646
     78 C                    -0.310740
     79 C                    -0.074049
     80 N                    -0.446980
     81 S                     0.261686
     82 C                     0.141498
     83 C                    -0.304072
     84 C                    -0.216248
     85 H                     0.093659
     86 H                     0.097809
     87 H                     0.102796
     88 H                     0.119385
     89 H                     0.126450
     90 H                     0.117469
     91 H                     0.103917
     92 H                     0.138431
     93 H                     0.101091
     94 C                    -0.189395
     95 H                     0.118089
     96 H                     0.091476
     97 H                     0.105209
     98 C                    -0.190144
     99 H                     0.091035
    100 C                    -0.156765
    101 H                     0.090122
    102 H                     0.094126
    103 H                     0.090346
    104 C                    -0.179755
    105 H                     0.100529
    106 C                    -0.334382
    107 H                     0.097252
    108 H                     0.104932
    109 H                     0.107029
    110 H                     0.100218
  ----------------------------------------
  Sum of atomic charges =     0.000000

                    Cartesian Multipole Moments
 -----------------------------------------------------------------
    Charge (ESU x 10^10)
                 0.0000
    Dipole Moment (Debye)
         X      -0.7583      Y      -2.5051      Z       0.3750
       Tot       2.6441
    Quadrupole Moments (Debye-Ang)
        XX    -435.3240     XY     -21.8954     YY    -404.5852
        XZ       9.2280     YZ      -3.8077     ZZ    -425.0665

 Total job time:  90.24s(wall), 1052.47s(cpu)
        *  Thank you very much for using Q-Chem.  Have a nice day.  *
