 Q-Chem 4.4, Q-Chem, Inc., Pleasanton, CA (2016)
 Q-Chem 4.4.2 for Intel X86 Linux

User input:
--------------------------------------------------------------
$comment
SP
$end

$rem
MEM_STATIC 5000
MEM_TOTAL 20000
JOBTYPE SP
EXCHANGE B3LYP
BASIS 6-31g(d,p)
$end

$molecule
0 1
C          15.355000    -24.362000    -11.115000
C          15.660000    -23.364000    -10.193000
N          14.691000    -25.501000    -10.778000
C          15.254000    -23.529000     -8.862000
C          14.321000    -25.612000     -9.535000
C          14.514000    -24.659000     -8.482000
C          13.968000    -24.882000     -7.112000
C          12.738000    -25.498000     -7.009000
C          14.486000    -24.483000     -5.864000
N          12.069000    -25.749000     -5.831000
N          15.627000    -23.780000     -5.744000
C          13.820000    -24.691000     -4.623000
C          12.659000    -25.474000     -4.636000
S          15.917000    -23.599000     -4.119000
N          14.486000    -24.217000     -3.555000
C          11.897000    -25.778000     -3.414000
S          12.412000    -25.320000     -1.796000
C          10.640000    -26.408000     -3.379000
C          10.933000    -26.047000     -1.079000
S           9.535000    -26.902000     -4.671000
C          10.137000    -26.539000     -2.068000
C          10.493000    -25.982000      0.336000
C           8.345000    -27.074000     -3.378000
C           8.800000    -26.928000     -2.103000
N           9.652000    -26.879000      0.827000
S          11.200000    -24.982000      1.556000
C           9.671000    -26.970000      2.177000
C          10.307000    -25.913000      2.769000
C          15.820000    -24.316000    -12.515000
H          16.079000    -22.419000    -10.525000
H          15.393000    -22.664000     -8.220000
H          13.766000    -26.523000     -9.313000
H          12.254000    -25.827000     -7.927000
H           7.362000    -27.383000     -3.709000
H           8.124000    -26.830000     -1.262000
H           9.053000    -27.700000      2.683000
H          10.207000    -25.605000      3.801000
H          16.647000    -23.602000    -12.622000
C          14.675000    -24.036000    -13.516000
H          16.206000    -25.329000    -12.677000
H          14.283000    -23.021000    -13.369000
H          13.801000    -24.663000    -13.301000
C          15.037000    -24.177000    -15.006000
H          15.898000    -23.525000    -15.201000
C          13.924000    -23.945000    -15.972000
H          15.479000    -25.166000    -15.174000
H          14.339000    -24.121000    -16.972000
H          13.633000    -22.889000    -15.899000
C          12.629000    -24.896000    -15.780000
H          12.078000    -24.788000    -14.837000
C          12.993000    -26.324000    -15.840000
H          11.959000    -24.650000    -16.613000
H          12.114000    -26.973000    -15.936000
H          13.566000    -26.642000    -14.960000
H          13.572000    -26.581000    -16.736000
C          13.777000    -19.646000     -7.011000
C          14.967000    -20.268000     -6.657000
N          13.656000    -18.924000     -8.134000
C          15.977000    -20.237000     -7.570000
C          14.740000    -18.780000     -8.963000
C          15.985000    -19.442000     -8.745000
C          17.210000    -19.027000     -9.461000
C          17.544000    -17.694000     -9.809000
C          18.253000    -20.021000     -9.741000
N          18.760000    -17.299000    -10.223000
N          18.169000    -21.375000     -9.655000
C          19.528000    -19.595000    -10.237000
C          19.781000    -18.197000    -10.424000
S          19.602000    -22.039000     -9.974000
N          20.342000    -20.653000    -10.449000
C          21.128000    -17.673000    -10.785000
S          22.463000    -18.633000    -11.383000
C          21.362000    -16.358000    -10.883000
C          23.323000    -17.147000    -11.752000
S          20.347000    -14.979000    -10.513000
C          22.641000    -16.023000    -11.400000
C          24.606000    -17.073000    -12.365000
C          21.689000    -13.950000    -11.058000
C          22.842000    -14.607000    -11.420000
N          25.228000    -18.242000    -12.483000
S          25.322000    -15.707000    -13.257000
C          26.311000    -18.070000    -13.293000
C          26.576000    -16.841000    -13.783000
C          12.501000    -19.806000     -6.154000
H          15.012000    -20.831000     -5.729000
H          16.908000    -20.746000     -7.339000
H          14.622000    -18.166000     -9.855000
H          16.840000    -16.884000     -9.621000
H          21.550000    -12.877000    -11.036000
H          23.778000    -14.121000    -11.673000
H          27.026000    -18.859000    -13.486000
H          27.330000    -16.489000    -14.475000
H          12.808000    -19.521000     -5.140000
C          11.925000    -21.222000     -6.211000
H          11.757000    -19.071000     -6.486000
H          12.714000    -21.983000     -6.170000
H          11.532000    -21.391000     -7.221000
C          10.870000    -21.612000     -5.076000
H           9.953000    -21.019000     -5.179000
C          11.379000    -21.564000     -3.636000
H          10.528000    -22.624000     -5.326000
H          11.812000    -20.575000     -3.441000
H          12.229000    -22.256000     -3.596000
C          10.264000    -21.829000     -2.642000
H           9.407000    -21.151000     -2.742000
C          10.860000    -21.856000     -1.105000
H           9.874000    -22.821000     -2.901000
H          11.516000    -21.020000     -0.832000
H          11.414000    -22.790000     -0.948000
H          10.081000    -21.814000     -0.334000
$end

--------------------------------------------------------------

             Standard Nuclear Orientation (Angstroms)
    I     Atom           X                Y                Z
 ----------------------------------------------------------------
    1      C      -0.6697231895    -4.1008117388    -0.7408709681
    2      C      -0.7879262791    -2.7498512356    -0.4245692949
    3      N       0.4939262289    -4.6594554435    -1.1717111266
    4      C       0.3422115586    -1.9293148369    -0.5391576294
    5      C       1.5234334313    -3.8672625662    -1.2542663524
    6      C       1.5775160727    -2.4742852062    -0.9211655532
    7      C       2.8502686078    -1.6996744806    -0.9906220738
    8      C       4.0109401028    -2.3471179076    -0.6209956550
    9      C       3.0585715262    -0.3432909244    -1.3097811918
   10      N       5.2650268637    -1.7775094885    -0.5884588267
   11      N       2.0484056796     0.4958015055    -1.6030027059
   12      C       4.3280186004     0.2994190153    -1.2615208631
   13      C       5.4513630617    -0.5051057875    -1.0334505602
   14      S       2.7306470039     1.9567063742    -2.0002302731
   15      N       4.2974441244     1.6031583338    -1.5904357317
   16      C       6.8175140951     0.0404380107    -0.9848983385
   17      S       7.2187915439     1.7164623399    -1.3353720992
   18      C       7.9624605398    -0.6763941301    -0.5932054475
   19      C       8.9578198798     1.4088992506    -1.0018389027
   20      S       8.1615711311    -2.3087092278     0.0627117684
   21      C       9.1295438282     0.1150383048    -0.6142363507
   22      C      10.0541911100     2.4064113225    -0.9471599122
   23      C       9.7929195134    -1.7766893158     0.4788731177
   24      C      10.1754015044    -0.5543122732     0.0168472610
   25      N      11.3147387347     2.0393188266    -1.1181388155
   26      S       9.8439233739     4.1221766793    -0.9607878067
   27      C      12.1399192987     3.0523615913    -1.4702231716
   28      C      11.5802993970     4.2844536556    -1.2677788316
   29      C      -1.8249330522    -5.0194044236    -0.7365521140
   30      H      -1.6967165218    -2.3702358156     0.0323797478
   31      H       0.2303295429    -0.9220034580    -0.1486244036
   32      H       2.4419953655    -4.3590232184    -1.5730851633
   33      H       3.9424071282    -3.3972368590    -0.3421150007
   34      H      10.3924736078    -2.5196739937     0.9886178150
   35      H      11.0748242844    -0.0647176054     0.3706787521
   36      H      13.1844286303     2.8584071523    -1.6757515924
   37      H      12.1133468203     5.2224971796    -1.1914716122
   38      H      -2.7655699588    -4.4540677444    -0.7643126791
   39      C      -1.7839439483    -6.0254399282     0.4371763286
   40      H      -1.7104207428    -5.5594341681    -1.6834754509
   41      H      -1.9042376036    -5.4980235694     1.3926130983
   42      H      -0.7884792178    -6.4753563433     0.5364496364
   43      C      -2.8377795240    -7.1473946595     0.3962720472
   44      H      -3.8243303461    -6.6727724747     0.3194524069
   45      C      -2.7753041549    -8.1411987332     1.5072172715
   46      H      -2.7750214961    -7.6611242700    -0.5700882982
   47      H      -3.5593249300    -8.8815042082     1.3060699920
   48      H      -3.0251360586    -7.6169503188     2.4388253542
   49      C      -1.3648325554    -8.9184645553     1.6644359371
   50      H      -0.4928476169    -8.3031460754     1.9204426465
   51      C      -0.9845776171    -9.6067296418     0.4166469515
   52      H      -1.5244370302    -9.6567174460     2.4599320598
   53      H      -0.1590224228   -10.3130835274     0.5669160754
   54      H      -0.6997403396    -8.9016071252    -0.3742531445
   55      H      -1.7788610654   -10.2554770729     0.0263309586
   56      C       0.6267160982     1.1030548031     2.8385946607
   57      C       0.3318167447     1.4360111856     1.5231196823
   58      N      -0.2873485015     0.5700046594     3.6616362463
   59      C      -0.8911246641     1.0674447424     1.0506759423
   60      C      -1.5618937517     0.3513012300     3.2025761028
   61      C      -1.9550706262     0.5745603503     1.8492984851
   62      C      -3.3813144544     0.6342557163     1.4648885402
   63      C      -4.4216952589     1.1801514740     2.2580812049
   64      C      -3.7812092215     0.2258623045     0.1130068899
   65      N      -5.6547123269     1.4623469925     1.8040860513
   66      N      -3.0515698514    -0.4546675051    -0.8101797477
   67      C      -5.1160003695     0.4796502422    -0.3420109930
   68      C      -6.0376129812     1.1596277006     0.5191758914
   69      S      -3.8852091340    -0.5910701418    -2.1822533125
   70      N      -5.2943464907     0.0158500180    -1.5989859383
   71      C      -7.3857089839     1.5945129575     0.0578538986
   72      S      -8.1825526692     1.0506402731    -1.4018281367
   73      C      -8.2040381144     2.2937168072     0.8547456170
   74      C      -9.6548734368     1.8326705548    -0.8498705335
   75      S      -7.9468650439     2.9864197934     2.4430751120
   76      C      -9.5119822363     2.4839722952     0.3366336375
   77      C     -10.9019449342     1.8103148937    -1.5366360718
   78      C      -9.6325487683     3.5445434284     2.3814440401
   79      C     -10.3089066541     3.2871498931     1.2116617619
   80      N     -10.8463412849     1.2984629997    -2.7623133836
   81      S     -12.5317943980     2.0728207861    -0.8665932508
   82      C     -12.1219081299     1.1091842702    -3.2046659427
   83      C     -13.1523408032     1.4662945656    -2.4100297097
   84      C       2.0525760974     1.2726618798     3.4098929210
   85      H       1.1081828502     1.8765034947     0.9039265009
   86      H      -1.1386333590     1.2801073978     0.0149554003
   87      H      -2.2920535629    -0.0576664776     3.8998537120
   88      H      -4.2163704364     1.5290279488     3.2696082300
   89      H     -10.0211649873     4.0874267495     3.2331418351
   90      H     -11.3030327366     3.6525128994     0.9781575744
   91      H     -12.3471474689     0.7711518838    -4.2076596345
   92      H     -14.2228057303     1.3579820572    -2.5268939060
   93      H       2.3154446259     2.3168218036     3.1994168171
   94      C       3.0530162754     0.2872816050     2.8030765038
   95      H       2.0123979754     1.1621404082     4.5008355056
   96      H       2.9037288401     0.1711394455     1.7225454952
   97      H       2.7962006409    -0.7200129001     3.1530958031
   98      C       4.6019403140     0.6237278397     3.0055320639
   99      H       4.8769591395     0.5603703972     4.0654837043
  100      C       5.0909614198     1.9405103224     2.4039281648
  101      H       5.1473321681    -0.2214256806     2.5675009547
  102      H       4.4633267616     2.7600417599     2.7755165916
  103      H       4.8688373641     1.8801467705     1.3315564263
  104      C       6.5390516397     2.2137253519     2.7643088835
  105      H       6.7368918340     2.2174610395     3.8436504894
  106      C       7.0620315695     3.5947332170     2.0310809041
  107      H       7.1017931440     1.3565604347     2.3746483850
  108      H       6.4027815689     4.4663863486     2.1278861452
  109      H       7.2167417946     3.4007573407     0.9622688973
  110      H       8.0143269209     3.9663009092     2.4287202053
 ----------------------------------------------------------------

   10   -5663.5530862091      4.95E-06 Convergence criterion met
 Total energy in the final basis set = -5663.5530862091

                    Orbital Energies (a.u.)
 --------------------------------------------------------------

 Alpha MOs
 -- Occupied --
-88.995 -88.990 -88.929 -88.929 -88.927 -88.927 -88.915 -88.912
-14.391 -14.384 -14.384 -14.380 -14.357 -14.351 -14.344 -14.339
-14.330 -14.323 -10.273 -10.272 -10.269 -10.264 -10.263 -10.259
-10.258 -10.258 -10.248 -10.245 -10.243 -10.237 -10.237 -10.237
-10.235 -10.233 -10.232 -10.231 -10.231 -10.230 -10.230 -10.229
-10.227 -10.226 -10.222 -10.221 -10.220 -10.219 -10.219 -10.213
-10.210 -10.210 -10.209 -10.204 -10.200 -10.198 -10.191 -10.186
-10.185 -10.184 -10.183 -10.178 -10.177 -10.176 -10.175 -10.174
-10.173 -10.173 -10.169 -10.162  -8.050  -8.045  -7.989  -7.988
 -7.987  -7.986  -7.974  -7.971  -6.016  -6.010  -6.010  -6.008
 -6.005  -6.002  -5.953  -5.952  -5.951  -5.950  -5.950  -5.948
 -5.948  -5.946  -5.946  -5.945  -5.944  -5.942  -5.938  -5.935
 -5.935  -5.932  -5.930  -5.927  -1.035  -1.032  -0.973  -0.972
 -0.955  -0.950  -0.943  -0.936  -0.918  -0.912  -0.904  -0.895
 -0.849  -0.845  -0.833  -0.830  -0.811  -0.806  -0.805  -0.804
 -0.801  -0.801  -0.800  -0.794  -0.785  -0.785  -0.770  -0.767
 -0.750  -0.748  -0.742  -0.738  -0.731  -0.723  -0.713  -0.710
 -0.695  -0.694  -0.680  -0.676  -0.653  -0.652  -0.646  -0.646
 -0.635  -0.633  -0.628  -0.620  -0.613  -0.607  -0.599  -0.598
 -0.597  -0.593  -0.587  -0.584  -0.578  -0.576  -0.565  -0.553
 -0.548  -0.547  -0.541  -0.538  -0.526  -0.524  -0.519  -0.510
 -0.510  -0.503  -0.502  -0.499  -0.491  -0.489  -0.479  -0.477
 -0.473  -0.472  -0.468  -0.460  -0.458  -0.456  -0.454  -0.452
 -0.447  -0.444  -0.442  -0.439  -0.438  -0.435  -0.434  -0.430
 -0.428  -0.425  -0.425  -0.421  -0.417  -0.415  -0.414  -0.411
 -0.408  -0.408  -0.407  -0.404  -0.402  -0.401  -0.399  -0.397
 -0.396  -0.392  -0.389  -0.387  -0.385  -0.384  -0.383  -0.380
 -0.378  -0.373  -0.372  -0.369  -0.365  -0.362  -0.360  -0.359
 -0.357  -0.354  -0.351  -0.350  -0.348  -0.347  -0.339  -0.339
 -0.337  -0.336  -0.334  -0.334  -0.330  -0.328  -0.317  -0.315
 -0.313  -0.310  -0.309  -0.308  -0.303  -0.303  -0.301  -0.299
 -0.296  -0.294  -0.292  -0.292  -0.291  -0.288  -0.283  -0.277
 -0.275  -0.273  -0.271  -0.267  -0.256  -0.252  -0.252  -0.250
 -0.248  -0.245  -0.236  -0.230  -0.199  -0.196

          Ground-State Mulliken Net Atomic Charges

     Atom                 Charge (a.u.)
  ----------------------------------------
      1 C                     0.253846
      2 C                    -0.115139
      3 N                    -0.469419
      4 C                    -0.067030
      5 C                     0.073837
      6 C                     0.029716
      7 C                     0.084421
      8 C                     0.045195
      9 C                     0.197283
     10 N                    -0.532679
     11 N                    -0.569562
     12 C                     0.240994
     13 C                     0.323938
     14 S                     0.590123
     15 N                    -0.583575
     16 C                    -0.242142
     17 S                     0.335590
     18 C                    -0.112983
     19 C                    -0.220718
     20 S                     0.291040
     21 C                     0.160951
     22 C                     0.031098
     23 C                    -0.308785
     24 C                    -0.045310
     25 N                    -0.417867
     26 S                     0.262184
     27 C                     0.126728
     28 C                    -0.312708
     29 C                    -0.220584
     30 H                     0.107402
     31 H                     0.110978
     32 H                     0.090179
     33 H                     0.118382
     34 H                     0.125005
     35 H                     0.120154
     36 H                     0.119076
     37 H                     0.135370
     38 H                     0.090983
     39 C                    -0.175051
     40 H                     0.118540
     41 H                     0.087330
     42 H                     0.114214
     43 C                    -0.176342
     44 H                     0.082759
     45 C                    -0.176449
     46 H                     0.091446
     47 H                     0.090781
     48 H                     0.087548
     49 C                    -0.177342
     50 H                     0.099471
     51 C                    -0.312363
     52 H                     0.090574
     53 H                     0.095094
     54 H                     0.113574
     55 H                     0.094660
     56 C                     0.261072
     57 C                    -0.089516
     58 N                    -0.485426
     59 C                    -0.082906
     60 C                     0.053895
     61 C                     0.042016
     62 C                     0.020245
     63 C                     0.075569
     64 C                     0.222031
     65 N                    -0.537706
     66 N                    -0.568833
     67 C                     0.219130
     68 C                     0.313941
     69 S                     0.620003
     70 N                    -0.586029
     71 C                    -0.215107
     72 S                     0.370431
     73 C                    -0.116312
     74 C                    -0.242331
     75 S                     0.301784
     76 C                     0.159311
     77 C                     0.058931
     78 C                    -0.310679
     79 C                    -0.073951
     80 N                    -0.437454
     81 S                     0.259030
     82 C                     0.131921
     83 C                    -0.304100
     84 C                    -0.214773
     85 H                     0.098898
     86 H                     0.105645
     87 H                     0.104232
     88 H                     0.121412
     89 H                     0.127767
     90 H                     0.118446
     91 H                     0.110496
     92 H                     0.138798
     93 H                     0.101775
     94 C                    -0.194657
     95 H                     0.118889
     96 H                     0.088606
     97 H                     0.106600
     98 C                    -0.194715
     99 H                     0.089341
    100 C                    -0.165619
    101 H                     0.101777
    102 H                     0.089605
    103 H                     0.098418
    104 C                    -0.181368
    105 H                     0.097015
    106 C                    -0.340718
    107 H                     0.105039
    108 H                     0.100088
    109 H                     0.117465
    110 H                     0.098162
  ----------------------------------------
  Sum of atomic charges =     0.000000

                    Cartesian Multipole Moments
 -----------------------------------------------------------------
    Charge (ESU x 10^10)
                 0.0000
    Dipole Moment (Debye)
         X      -1.6382      Y       3.6918      Z      -0.3308
       Tot       4.0525
    Quadrupole Moments (Debye-Ang)
        XX    -355.9115     XY      11.7209     YY    -438.1540
        XZ       4.9010     YZ      -2.8737     ZZ    -450.8974

 Total job time:  99.53s(wall), 1205.71s(cpu)
        *  Thank you very much for using Q-Chem.  Have a nice day.  *
