 Q-Chem 4.4, Q-Chem, Inc., Pleasanton, CA (2016)
 Q-Chem 4.4.2 for Intel X86 Linux

User input:
--------------------------------------------------------------
$comment
SP
$end

$rem
MEM_STATIC 5000
MEM_TOTAL 20000
JOBTYPE SP
EXCHANGE B3LYP
BASIS 6-31g(d,p)
$end

$molecule
0 1
C           8.125000     20.703000     -3.017000
C           8.636000     21.252000     -1.781000
N           6.938000     20.142000     -3.097000
C           7.894000     21.067000     -0.640000
C           6.247000     19.852000     -1.957000
C           6.725000     20.264000     -0.692000
C           6.013000     19.836000      0.589000
C           4.572000     19.713000      0.613000
C           6.647000     19.532000      1.821000
N           3.789000     19.277000      1.613000
N           7.924000     19.655000      2.114000
C           5.869000     18.980000      2.856000
C           4.392000     18.939000      2.738000
S           8.040000     19.145000      3.611000
N           6.556000     18.612000      3.950000
C           3.439000     18.439000      3.769000
S           3.940000     17.464000      5.234000
C           2.066000     18.696000      3.816000
C           2.296000     17.523000      5.860000
S           1.022000     19.697000      2.766000
C           1.477000     18.217000      4.957000
C           1.937000     16.886000      7.077000
C          -0.295000     19.401000      3.898000
C           0.074000     18.588000      4.964000
N           0.917000     17.408000      7.767000
S           2.807000     15.579000      7.819000
C           0.775000     16.646000      8.941000
C           1.659000     15.613000      9.119000
C           8.915000     20.849000     -4.291000
H           9.576000     21.794000     -1.813000
H           8.276000     21.475000      0.291000
H           5.336000     19.257000     -2.002000
H           4.009000     20.109000     -0.231000
H          -1.255000     19.863000      3.710000
H          -0.558000     18.286000      5.791000
H          -0.024000     16.903000      9.624000
H           1.735000     14.844000      9.877000
H           8.264000     21.315000     -5.041000
C           9.473000     19.504000     -4.876000
H           9.716000     21.583000     -4.139000
H           8.648000     18.786000     -4.962000
H          10.131000     19.047000     -4.127000
C          10.175000     19.688000     -6.156000
H           9.619000     20.260000     -6.910000
C          10.526000     18.268000     -6.717000
H          11.090000     20.229000     -5.883000
H           9.611000     17.721000     -6.976000
H          11.090000     17.769000     -5.919000
C          11.281000     18.424000     -8.091000
H          10.546000     18.894000     -8.757000
C          11.704000     17.061000     -8.721000
H          12.140000     19.099000     -7.995000
H          10.879000     16.361000     -8.903000
H          12.475000     16.540000     -8.140000
H          12.106000     17.399000     -9.685000
C           3.290000      9.359000      2.509000
C           1.965000      9.161000      2.012000
N           3.851000     10.536000      2.572000
C           1.220000     10.286000      1.574000
C           3.179000     11.581000      2.194000
C           1.845000     11.524000      1.744000
C           1.135000     12.821000      1.506000
C           1.903000     13.893000      0.802000
C          -0.132000     13.128000      2.000000
N           1.370000     15.099000      0.609000
N          -0.992000     12.349000      2.608000
C          -0.649000     14.358000      1.820000
C           0.156000     15.348000      1.125000
S          -2.367000     13.132000      2.834000
N          -1.862000     14.594000      2.331000
C          -0.377000     16.736000      0.861000
S          -1.768000     17.547000      1.489000
C           0.304000     17.683000      0.004000
C          -1.468000     19.047000      0.722000
S           1.608000     17.495000     -1.105000
C          -0.364000     18.869000     -0.090000
C          -2.295000     20.237000      0.875000
C           1.395000     19.195000     -1.548000
C           0.259000     19.784000     -0.967000
N          -1.820000     21.448000      0.585000
S          -3.919000     20.072000      1.435000
C          -2.842000     22.333000      0.667000
C          -4.007000     21.781000      1.157000
C           4.299000      8.199000      2.636000
H           1.512000      8.175000      1.972000
H           0.194000     10.287000      1.219000
H           3.658000     12.547000      2.350000
H           2.869000     13.717000      0.331000
H           2.066000     19.661000     -2.257000
H          -0.039000     20.799000     -1.202000
H          -2.636000     23.359000      0.391000
H          -4.970000     22.274000      1.136000
H           3.766000      7.271000      2.393000
C           4.684000      8.056000      4.122000
H           5.187000      8.268000      1.996000
H           3.883000      8.404000      4.786000
H           5.495000      8.748000      4.382000
C           4.906000      6.533000      4.536000
H           3.941000      6.024000      4.420000
C           5.434000      6.248000      6.006000
H           5.523000      6.063000      3.761000
H           4.868000      6.660000      6.851000
H           6.455000      6.642000      6.088000
C           5.534000      4.721000      6.339000
H           6.249000      4.231000      5.666000
C           4.171000      3.875000      6.190000
H           5.871000      4.518000      7.363000
H           4.186000      2.854000      6.591000
H           3.952000      3.745000      5.123000
H           3.322000      4.358000      6.689000
$end

--------------------------------------------------------------

             Standard Nuclear Orientation (Angstroms)
    I     Atom           X                Y                Z
 ----------------------------------------------------------------
    1      C      -7.8644844552    -2.1446177670    -0.5621247993
    2      C      -7.7120028184    -1.9265472661    -1.9831851805
    3      N      -7.0374741830    -1.6258573980     0.3193692104
    4      C      -6.5955188684    -1.2523925859    -2.4140552963
    5      C      -5.8705719345    -1.0562478599    -0.0990386248
    6      C      -5.5930764675    -0.8938097734    -1.4756515456
    7      C      -4.2383558220    -0.3663621535    -1.9421491136
    8      C      -3.5448528381     0.6399662984    -1.1684937263
    9      C      -3.5535884318    -0.7786392502    -3.1140352927
   10      N      -2.3236149279     1.1576127669    -1.3777904062
   11      N      -3.9895733018    -1.5968420986    -4.0479348013
   12      C      -2.2338395446    -0.3306080757    -3.3108701004
   13      C      -1.6667946932     0.7250693061    -2.4384370646
   14      S      -2.7909442348    -1.6964618896    -5.0813414284
   15      N      -1.6096608885    -0.8513335007    -4.3802040226
   16      C      -0.3129068307     1.3360612769    -2.5602831450
   17      S       1.0268127991     0.6486225670    -3.5997206532
   18      C       0.1054980219     2.5356378615    -1.9777538349
   19      C       2.0396874626     2.0456880837    -3.2527540006
   20      S      -0.7794452150     3.7315404271    -0.9872340113
   21      C       1.3606203599     2.9100065195    -2.3811878749
   22      C       3.3538403671     2.1639723943    -3.7769199720
   23      C       0.6451391394     4.7644074446    -1.0725225885
   24      C       1.6892103639     4.1956252393    -1.7935552375
   25      N       3.8297383924     3.3987533142    -3.9713965757
   26      S       4.3361688694     0.8420647377    -4.3276502698
   27      C       5.1143753491     3.2669502831    -4.5294466188
   28      C       5.5651210436     1.9909453630    -4.7505094216
   29      C      -9.0536577601    -2.9066954346    -0.0390602912
   30      H      -8.4911046992    -2.2954344477    -2.6429658309
   31      H      -6.4756726156    -1.0894420603    -3.4809353279
   32      H      -5.1131739103    -0.7583365769     0.6245414333
   33      H      -4.0897131801     1.1370231524    -0.3671307051
   34      H       0.6116683038     5.7354937285    -0.5968555489
   35      H       2.6525601885     4.6489866176    -1.9959844254
   36      H       5.6767520078     4.1678621757    -4.7368815616
   37      H       6.5154723064     1.6057710800    -5.0971709985
   38      H      -9.5539518319    -2.2802745119     0.7097785896
   39      C      -8.7111520588    -4.2924658592     0.6128171319
   40      H      -9.7969821032    -3.0126182542    -0.8388791939
   41      H      -7.9293802870    -4.1448897799     1.3681972995
   42      H      -8.2205228039    -4.9186633502    -0.1421488518
   43      C      -9.8936809307    -4.9659526369     1.1723714433
   44      H     -10.5083291517    -4.3446974185     1.8365141372
   45      C      -9.3998973317    -6.2390489928     1.9403072650
   46      H     -10.4791308453    -5.2538870661     0.2898879239
   47      H      -8.8019455641    -5.9520092461     2.8141361198
   48      H      -8.8123040474    -6.8112310533     1.2114432023
   49      C     -10.6413738027    -6.9892331967     2.5552843638
   50      H     -11.0594427508    -6.2800874876     3.2812400910
   51      C     -10.2577466157    -8.2945451237     3.3185595138
   52      H     -11.4016767453    -7.1872961111     1.7901487436
   53      H      -9.5458180714    -8.1554152437     4.1416935395
   54      H      -9.8704339130    -9.0802964619     2.6582363317
   55      H     -11.2329236689    -8.5812613520     3.7332491801
   56      C       5.2259669927    -4.5329450966     1.7907905105
   57      C       5.6110724529    -3.7681059832     2.9347104881
   58      N       4.2243485557    -4.1984117193     1.0234138585
   59      C       4.8841176739    -2.5917959218     3.2514523209
   60      C       3.5581037138    -3.1147939029     1.2849157488
   61      C       3.8782959892    -2.2446919481     2.3459079707
   62      C       3.1386158938    -0.9449946214     2.4272296491
   63      C       1.6643175726    -0.9896883236     2.1841845232
   64      C       3.7466410212     0.2988559032     2.5906778576
   65      N       0.9409928446     0.1294295849     2.1719189390
   66      N       5.0003229467     0.5772477226     2.8492984768
   67      C       3.0080259173     1.4237953107     2.5513324922
   68      C       1.5801265404     1.3015905922     2.3119178389
   69      S       5.1657341435     2.1466228915     3.1032486987
   70      N       3.6526750381     2.5859863844     2.6994048369
   71      C       0.6893707116     2.5207434483     2.2884792622
   72      S       1.0829038141     4.2025977431     2.2294552959
   73      C      -0.7548535241     2.4308947256     2.2543828704
   74      C      -0.5297262835     4.7649722750     2.1224597150
   75      S      -1.8281128651     1.1075571174     2.5044487850
   76      C      -1.3494503118     3.6588916891     2.2428019561
   77      C      -0.9135330368     6.1654434417     2.0007597256
   78      C      -3.1722651244     2.2468067120     2.3401835574
   79      C      -2.7597516954     3.5881836891     2.2658971095
   80      N      -2.1143865789     6.5130279648     1.5388270792
   81      S       0.2053028045     7.3928000323     2.4698046696
   82      C      -2.2509011103     7.8526962240     1.6840363692
   83      C      -1.0978053605     8.4781415660     2.1097326411
   84      C       5.6817477293    -5.9930659101     1.5904879138
   85      H       6.4508018639    -4.0584187734     3.5588723262
   86      H       5.0942789436    -1.8961699073     4.0580740964
   87      H       2.7908367221    -2.8326389215     0.5647609529
   88      H       1.1043808910    -1.9209026501     2.1114948348
   89      H      -4.1936057605     1.8918959072     2.3714825307
   90      H      -3.4741241188     4.4023604349     2.2336129460
   91      H      -3.2053804492     8.2880075726     1.4180265549
   92      H      -1.0513072379     9.5054268313     2.4464549426
   93      H       6.3931205975    -6.2287811992     2.3921792165
   94      C       6.5108860757    -6.0651250185     0.2927178697
   95      H       4.8846451125    -6.7463527914     1.6000426385
   96      H       7.0002535534    -5.1092973419     0.0679648402
   97      H       5.8569360855    -6.1827364668    -0.5806102230
   98      C       7.7124760648    -7.1055713660     0.4104544237
   99      H       8.3906173948    -6.7276801238     1.1857508481
  100      C       8.5704753515    -7.3774596886    -0.8975298897
  101      H       7.3163078083    -8.0233830750     0.8608835294
  102      H       9.0273221858    -6.5199465426    -1.4075173155
  103      H       7.9277902288    -7.8767418977    -1.6337867122
  104      C       9.7766544871    -8.3457801087    -0.6523657471
  105      H       9.4148498740    -9.3285417044    -0.3244464461
  106      C      10.8305865220    -7.8890347245     0.4773673717
  107      H      10.3901161959    -8.5149300427    -1.5459019980
  108      H      11.7652815539    -8.4608942403     0.5301773286
  109      H      10.3712246789    -8.0269012217     1.4639420146
  110      H      11.1482991253    -6.8462217011     0.3561621744
 ----------------------------------------------------------------

   10   -5663.5163238512      4.26E-06 Convergence criterion met
 Total energy in the final basis set = -5663.5163238512

                    Orbital Energies (a.u.)
 --------------------------------------------------------------

 Alpha MOs
 -- Occupied --
-88.990 -88.982 -88.932 -88.923 -88.922 -88.919 -88.904 -88.901
-14.387 -14.382 -14.377 -14.371 -14.348 -14.344 -14.343 -14.341
-14.324 -14.321 -10.271 -10.264 -10.263 -10.260 -10.255 -10.251
-10.247 -10.245 -10.244 -10.241 -10.240 -10.235 -10.233 -10.232
-10.230 -10.227 -10.227 -10.227 -10.226 -10.226 -10.226 -10.223
-10.223 -10.223 -10.220 -10.219 -10.216 -10.215 -10.214 -10.210
-10.208 -10.203 -10.203 -10.202 -10.195 -10.195 -10.190 -10.189
-10.184 -10.184 -10.184 -10.183 -10.180 -10.179 -10.178 -10.176
-10.174 -10.173 -10.172 -10.171  -8.046  -8.039  -7.994  -7.984
 -7.982  -7.978  -7.963  -7.959  -6.012  -6.006  -6.004  -6.004
 -5.998  -5.996  -5.958  -5.955  -5.951  -5.948  -5.946  -5.945
 -5.942  -5.942  -5.941  -5.939  -5.939  -5.935  -5.928  -5.924
 -5.924  -5.920  -5.920  -5.915  -1.055  -1.055  -0.976  -0.959
 -0.958  -0.957  -0.955  -0.936  -0.918  -0.914  -0.907  -0.898
 -0.846  -0.835  -0.832  -0.827  -0.816  -0.810  -0.806  -0.805
 -0.796  -0.795  -0.790  -0.787  -0.776  -0.775  -0.759  -0.759
 -0.745  -0.743  -0.732  -0.731  -0.719  -0.716  -0.703  -0.703
 -0.686  -0.684  -0.676  -0.666  -0.654  -0.649  -0.646  -0.645
 -0.630  -0.628  -0.626  -0.622  -0.609  -0.600  -0.596  -0.588
 -0.587  -0.586  -0.581  -0.577  -0.575  -0.573  -0.570  -0.563
 -0.553  -0.547  -0.536  -0.532  -0.524  -0.519  -0.514  -0.511
 -0.502  -0.500  -0.499  -0.490  -0.490  -0.486  -0.478  -0.475
 -0.473  -0.472  -0.465  -0.463  -0.460  -0.455  -0.448  -0.443
 -0.438  -0.437  -0.436  -0.433  -0.429  -0.428  -0.424  -0.424
 -0.423  -0.422  -0.419  -0.418  -0.416  -0.412  -0.409  -0.409
 -0.408  -0.406  -0.404  -0.403  -0.401  -0.397  -0.392  -0.391
 -0.389  -0.388  -0.386  -0.385  -0.384  -0.381  -0.381  -0.381
 -0.380  -0.371  -0.370  -0.370  -0.363  -0.361  -0.354  -0.352
 -0.349  -0.349  -0.348  -0.346  -0.344  -0.343  -0.342  -0.339
 -0.339  -0.335  -0.332  -0.328  -0.325  -0.324  -0.323  -0.321
 -0.318  -0.316  -0.312  -0.306  -0.304  -0.302  -0.300  -0.299
 -0.293  -0.292  -0.289  -0.288  -0.286  -0.285  -0.282  -0.279
 -0.271  -0.270  -0.261  -0.261  -0.252  -0.250  -0.245  -0.244
 -0.244  -0.236  -0.224  -0.222  -0.188  -0.185

          Ground-State Mulliken Net Atomic Charges

     Atom                 Charge (a.u.)
  ----------------------------------------
      1 C                     0.279921
      2 C                    -0.122517
      3 N                    -0.488432
      4 C                    -0.060534
      5 C                     0.066732
      6 C                     0.030543
      7 C                     0.019822
      8 C                     0.048413
      9 C                     0.236679
     10 N                    -0.494172
     11 N                    -0.541497
     12 C                     0.172772
     13 C                     0.301260
     14 S                     0.590289
     15 N                    -0.535200
     16 C                    -0.234186
     17 S                     0.305288
     18 C                    -0.110941
     19 C                    -0.220715
     20 S                     0.310865
     21 C                     0.165461
     22 C                     0.041930
     23 C                    -0.315613
     24 C                    -0.059572
     25 N                    -0.427963
     26 S                     0.274698
     27 C                     0.114515
     28 C                    -0.303314
     29 C                    -0.226008
     30 H                     0.091178
     31 H                     0.113161
     32 H                     0.106738
     33 H                     0.108988
     34 H                     0.133946
     35 H                     0.114232
     36 H                     0.110525
     37 H                     0.138445
     38 H                     0.114851
     39 C                    -0.172909
     40 H                     0.085706
     41 H                     0.111736
     42 H                     0.090633
     43 C                    -0.166847
     44 H                     0.091049
     45 C                    -0.173200
     46 H                     0.090067
     47 H                     0.095828
     48 H                     0.089986
     49 C                    -0.181424
     50 H                     0.093944
     51 C                    -0.317973
     52 H                     0.092677
     53 H                     0.102868
     54 H                     0.104124
     55 H                     0.099550
     56 C                     0.260237
     57 C                    -0.143788
     58 N                    -0.450773
     59 C                    -0.051725
     60 C                     0.078642
     61 C                     0.029811
     62 C                    -0.055451
     63 C                     0.073201
     64 C                     0.311992
     65 N                    -0.510014
     66 N                    -0.564471
     67 C                     0.201691
     68 C                     0.308694
     69 S                     0.599813
     70 N                    -0.565195
     71 C                    -0.227463
     72 S                     0.324502
     73 C                    -0.094370
     74 C                    -0.244517
     75 S                     0.287156
     76 C                     0.151010
     77 C                     0.054168
     78 C                    -0.326709
     79 C                    -0.047697
     80 N                    -0.422869
     81 S                     0.284190
     82 C                     0.127154
     83 C                    -0.313602
     84 C                    -0.210750
     85 H                     0.091705
     86 H                     0.112396
     87 H                     0.101243
     88 H                     0.125641
     89 H                     0.122849
     90 H                     0.121473
     91 H                     0.117306
     92 H                     0.125876
     93 H                     0.090840
     94 C                    -0.179549
     95 H                     0.119910
     96 H                     0.098075
     97 H                     0.109512
     98 C                    -0.188649
     99 H                     0.098342
    100 C                    -0.177950
    101 H                     0.091964
    102 H                     0.095894
    103 H                     0.097365
    104 C                    -0.184607
    105 H                     0.094087
    106 C                    -0.327639
    107 H                     0.092932
    108 H                     0.098462
    109 H                     0.103323
    110 H                     0.099930
  ----------------------------------------
  Sum of atomic charges =     0.000000

                    Cartesian Multipole Moments
 -----------------------------------------------------------------
    Charge (ESU x 10^10)
                 0.0000
    Dipole Moment (Debye)
         X       1.7771      Y       1.4286      Z       0.7674
       Tot       2.4058
    Quadrupole Moments (Debye-Ang)
        XX    -404.2195     XY       5.5298     YY    -415.6536
        XZ      10.2984     YZ      13.2353     ZZ    -432.4860

 Total job time:  94.16s(wall), 1112.10s(cpu)
        *  Thank you very much for using Q-Chem.  Have a nice day.  *
