 Q-Chem 4.4, Q-Chem, Inc., Pleasanton, CA (2016)
 Q-Chem 4.4.2 for Intel X86 Linux

User input:
--------------------------------------------------------------
$comment
SP
$end

$rem
MEM_STATIC 5000
MEM_TOTAL 20000
JOBTYPE SP
EXCHANGE B3LYP
BASIS 6-31g(d,p)
$end

$molecule
0 1
C          -3.750000      2.453000      2.354000
C          -2.795000      3.015000      1.521000
N          -5.000000      2.940000      2.379000
C          -3.052000      4.132000      0.717000
C          -5.319000      4.042000      1.638000
C          -4.313000      4.721000      0.813000
C          -4.650000      6.086000      0.274000
C          -5.981000      6.367000     -0.105000
C          -3.735000      7.203000      0.056000
N          -6.423000      7.548000     -0.526000
N          -2.439000      7.110000     -0.015000
C          -4.250000      8.449000     -0.302000
C          -5.653000      8.613000     -0.547000
S          -1.874000      8.646000     -0.329000
N          -3.298000      9.440000     -0.422000
C          -6.414000      9.843000     -1.020000
S          -7.870000      9.737000     -1.981000
C          -6.297000     11.170000     -0.598000
C          -8.350000     11.366000     -1.704000
S          -5.037000     11.929000      0.441000
C          -7.321000     12.018000     -1.044000
C          -9.533000     11.988000     -2.140000
C          -5.998000     13.432000      0.279000
C          -7.057000     13.322000     -0.609000
N         -10.351000     11.203000     -2.915000
S         -10.122000     13.558000     -1.864000
C         -11.422000     12.001000     -3.392000
C         -11.414000     13.281000     -2.960000
C          -3.447000      1.333000      3.321000
H          -1.800000      2.598000      1.641000
H          -2.282000      4.543000      0.070000
H          -6.338000      4.427000      1.650000
H          -6.714000      5.561000     -0.089000
H          -5.589000     14.286000      0.802000
H          -7.779000     14.117000     -0.754000
H         -12.162000     11.662000     -4.105000
H         -12.176000     14.019000     -3.171000
H          -2.420000      1.400000      3.701000
C          -3.747000     -0.032000      2.658000
H          -4.168000      1.424000      4.143000
H          -3.148000     -0.200000      1.754000
H          -4.805000     -0.079000      2.372000
C          -3.578000     -1.236000      3.696000
H          -2.534000     -1.308000      4.023000
C          -3.918000     -2.614000      3.097000
H          -4.118000     -0.977000      4.615000
H          -5.001000     -2.686000      2.939000
H          -3.789000     -3.287000      3.954000
C          -3.072000     -3.022000      1.890000
H          -3.330000     -2.427000      1.005000
C          -3.318000     -4.507000      1.527000
H          -1.994000     -2.921000      2.065000
H          -2.946000     -5.196000      2.296000
H          -2.824000     -4.703000      0.567000
H          -4.377000     -4.743000      1.368000
C           3.290000      9.359000      2.509000
C           1.965000      9.161000      2.012000
N           3.851000     10.536000      2.572000
C           1.220000     10.286000      1.574000
C           3.179000     11.581000      2.194000
C           1.845000     11.524000      1.744000
C           1.135000     12.821000      1.506000
C           1.903000     13.893000      0.802000
C          -0.132000     13.128000      2.000000
N           1.370000     15.099000      0.609000
N          -0.992000     12.349000      2.608000
C          -0.649000     14.358000      1.820000
C           0.156000     15.348000      1.125000
S          -2.367000     13.132000      2.834000
N          -1.862000     14.594000      2.331000
C          -0.377000     16.736000      0.861000
S          -1.768000     17.547000      1.489000
C           0.304000     17.683000      0.004000
C          -1.468000     19.047000      0.722000
S           1.608000     17.495000     -1.105000
C          -0.364000     18.869000     -0.090000
C          -2.295000     20.237000      0.875000
C           1.395000     19.195000     -1.548000
C           0.259000     19.784000     -0.967000
N          -1.820000     21.448000      0.585000
S          -3.919000     20.072000      1.435000
C          -2.842000     22.333000      0.667000
C          -4.007000     21.781000      1.157000
C           4.299000      8.199000      2.636000
H           1.512000      8.175000      1.972000
H           0.194000     10.287000      1.219000
H           3.658000     12.547000      2.350000
H           2.869000     13.717000      0.331000
H           2.066000     19.661000     -2.257000
H          -0.039000     20.799000     -1.202000
H          -2.636000     23.359000      0.391000
H          -4.970000     22.274000      1.136000
H           3.766000      7.271000      2.393000
C           4.684000      8.056000      4.122000
H           5.187000      8.268000      1.996000
H           3.883000      8.404000      4.786000
H           5.495000      8.748000      4.382000
C           4.906000      6.533000      4.536000
H           3.941000      6.024000      4.420000
C           5.434000      6.248000      6.006000
H           5.523000      6.063000      3.761000
H           4.868000      6.660000      6.851000
H           6.455000      6.642000      6.088000
C           5.534000      4.721000      6.339000
H           6.249000      4.231000      5.666000
C           4.171000      3.875000      6.190000
H           5.871000      4.518000      7.363000
H           4.186000      2.854000      6.591000
H           3.952000      3.745000      5.123000
H           3.322000      4.358000      6.689000
$end

--------------------------------------------------------------

             Standard Nuclear Orientation (Angstroms)
    I     Atom           X                Y                Z
 ----------------------------------------------------------------
    1      C      -8.3154627796     1.1836945030     0.7118590506
    2      C      -7.6570627293     0.5445551125    -0.3272599096
    3      N      -7.8191451145     2.3146522114     1.2361656758
    4      C      -6.4360910969     0.9952278276    -0.8432796541
    5      C      -6.6208746419     2.8023953236     0.7985579394
    6      C      -5.8484320630     2.1055317119    -0.2365341189
    7      C      -4.4174081719     2.5237505578    -0.4476706152
    8      C      -4.0680671166     3.8834860016    -0.2952129162
    9      C      -3.2939159538     1.6742587835    -0.8331144649
   10      N      -2.8341090388     4.3703507172    -0.3828269052
   11      N      -3.3943416010     0.4919034695    -1.3672086521
   12      C      -2.0032820764     2.2035485495    -0.8284735416
   13      C      -1.7873332143     3.5913585489    -0.5409331195
   14      S      -1.8377372735    -0.0226083198    -1.6661694959
   15      N      -1.0186410969     1.2931876915    -1.1517539923
   16      C      -0.4931899125     4.3917599778    -0.5582728728
   17      S      -0.4448271563     6.0944199397    -0.9498122680
   18      C       0.7609033460     4.0538415900    -0.0427505531
   19      C       1.1367525232     6.3468497095    -0.3208011958
   20      S       1.3511523194     2.4671979118     0.5715539218
   21      C       1.6767056153     5.1145566291     0.0100302147
   22      C       1.8295935814     7.5668308434    -0.2308773346
   23      C       2.8754221995     3.3299228655     0.9471614119
   24      C       2.9041651318     4.6359877428     0.4829487664
   25      N       1.1708859835     8.6498154625    -0.7592925267
   26      S       3.3544112895     7.9252481132     0.4282622698
   27      C       2.0421206206     9.7683608138    -0.7249340593
   28      C       3.2498136419     9.5318700525    -0.1675852580
   29      C      -9.5625983582     0.6335703615     1.3624851163
   30      H      -8.1005477818    -0.4024470156    -0.6185020382
   31      H      -5.9503638656     0.4739492383    -1.6635038240
   32      H      -6.2270030337     3.7280024372     1.2167045971
   33      H      -4.8581853150     4.6136018164    -0.1225133809
   34      H       3.6430485177     2.7128963595     1.3945472929
   35      H       3.7216133455     5.3128712064     0.7019035438
   36      H       1.8154114182    10.7292970146    -1.1677597084
   37      H       4.0205059582    10.2726172065    -0.0028551532
   38      H      -9.5632005100    -0.4635242190     1.3614273979
   39      C     -10.8184204328     1.2287512400     0.6831732300
   40      H      -9.5760970282     1.0172482969     2.3903056394
   41      H     -10.8681215648     0.9924591226    -0.3873111617
   42      H     -10.8105820172     2.3209841000     0.7848341301
   43      C     -12.1566852308     0.7845544707     1.4364046425
   44      H     -12.2878434312    -0.3014660743     1.3628798013
   45      C     -13.4336743465     1.3957483374     0.8289296589
   46      H     -12.0197694108     0.9548110458     2.5113505746
   47      H     -13.4679500202     2.4684785571     1.0550094100
   48      H     -14.2204980289     1.0190422313     1.4945271366
   49      C     -13.6825875526     1.0483371794    -0.6395309988
   50      H     -12.9673260895     1.5602930309    -1.2953634817
   51      C     -15.0995012028     1.4962387037    -1.0745596558
   52      H     -13.6218752704    -0.0274067113    -0.8444678192
   53      H     -15.8933991536     0.9236828168    -0.5782011160
   54      H     -15.1677129484     1.3793726100    -2.1634772257
   55      H     -15.2963816147     2.5569822177    -0.8782963099
   56      C      -1.5965855754    -5.8842158604    -0.7645532258
   57      C      -1.7053519688    -4.4595562286    -0.7833363376
   58      N      -0.4475908371    -6.5037118560    -0.7571503329
   59      C      -0.5202545855    -3.6797964800    -0.7869316852
   60      C       0.6489610688    -5.8081552374    -0.7407824315
   61      C       0.6734492726    -4.4000960749    -0.6952333062
   62      C       2.0007184149    -3.7331437790    -0.5042247752
   63      C       3.1489380524    -4.2735673456    -1.2942615039
   64      C       2.2541428467    -2.7379970414     0.4386607046
   65      N       4.3773870605    -3.7822504858    -1.1352181829
   66      N       1.4106458736    -2.0962414686     1.2085747525
   67      C       3.5043362657    -2.2676474230     0.6071144122
   68      C       4.5695892045    -2.8407566635    -0.1978278062
   69      S       2.1740333109    -0.9363715812     2.0002384847
   70      N       3.6843423653    -1.3245508811     1.5378951150
   71      C       5.9880922000    -2.3360250705    -0.0819646515
   72      S       6.7238204832    -1.3024810181     1.0916948328
   73      C       7.0349099967    -2.7342009092    -0.9988329637
   74      C       8.3111523329    -1.4095175436     0.4614490228
   75      S       6.9838883521    -3.5577967217    -2.5103645477
   76      C       8.2317486907    -2.1496931505    -0.7028873257
   77      C       9.4800099158    -0.7622260104     1.0430189859
   78      C       8.7316411790    -3.3096232274    -2.6344128153
   79      C       9.2504563656    -2.4846755782    -1.6218565560
   80      N      10.7127116142    -1.1807882068     0.7575400714
   81      S       9.2618889315     0.5732116610     2.1141074332
   82      C      11.5920848164    -0.3075439696     1.3039650649
   83      C      10.9939781529     0.6465733863     2.1001795400
   84      C      -2.7770177486    -6.8008805717    -1.1468040485
   85      H      -2.6698963461    -3.9608989948    -0.7836640643
   86      H      -0.4557853848    -2.5965152688    -0.7545659664
   87      H       1.5772885534    -6.3701813657    -0.6445134734
   88      H       3.0262749878    -5.0031223477    -2.0934337453
   89      H       9.2817975429    -3.7201311611    -3.4704087553
   90      H      10.2922795756    -2.1868895855    -1.6083694612
   91      H      12.6434142813    -0.4678261522     1.1032065580
   92      H      11.4985814815     1.5245677743     2.4814410452
   93      H      -3.6549227958    -6.1604638836    -1.3000071609
   94      C      -3.1295887091    -7.6682417437     0.0780421930
   95      H      -2.6325894027    -7.4138962907    -2.0447222970
   96      H      -2.8656062237    -7.1707128757     1.0195193690
   97      H      -2.4916364218    -8.5601330876     0.1196560116
   98      C      -4.6981751589    -7.9256955726     0.1940726867
   99      H      -5.1726686886    -6.9509893192     0.3630863244
  100      C      -5.1911561477    -8.9125494023     1.3360001203
  101      H      -5.0650402399    -8.2049749335    -0.8007273188
  102      H      -4.8921254936    -8.7017164446     2.3705314788
  103      H      -4.8266263971    -9.9207545026     1.1013907926
  104      C      -6.7507898389    -9.0274711858     1.4193891656
  105      H      -7.1529434862    -9.4326336413     0.4821753006
  106      C      -7.5488706120    -7.6480702875     1.6560455436
  107      H      -7.0981942768    -9.6858110338     2.2251514141
  108      H      -8.6156358814    -7.7382985331     1.8954985114
  109      H      -7.5269356604    -7.0646637893     0.7273336853
  110      H      -7.1277017106    -7.0566729880     2.4782115795
 ----------------------------------------------------------------

   10   -5663.5057536272      5.61E-06 Convergence criterion met
 Total energy in the final basis set = -5663.5057536272

                    Orbital Energies (a.u.)
 --------------------------------------------------------------

 Alpha MOs
 -- Occupied --
-88.994 -88.994 -88.933 -88.930 -88.926 -88.921 -88.914 -88.908
-14.399 -14.388 -14.385 -14.374 -14.351 -14.348 -14.345 -14.341
-14.333 -14.324 -10.272 -10.271 -10.267 -10.266 -10.266 -10.264
-10.251 -10.248 -10.248 -10.244 -10.243 -10.240 -10.239 -10.237
-10.236 -10.235 -10.235 -10.233 -10.231 -10.230 -10.229 -10.228
-10.227 -10.226 -10.225 -10.224 -10.224 -10.222 -10.218 -10.213
-10.212 -10.212 -10.208 -10.207 -10.206 -10.200 -10.198 -10.193
-10.188 -10.186 -10.185 -10.185 -10.184 -10.184 -10.183 -10.180
-10.180 -10.178 -10.174 -10.173  -8.050  -8.050  -7.995  -7.992
 -7.986  -7.980  -7.974  -7.968  -6.015  -6.015  -6.009  -6.009
 -6.007  -6.007  -5.959  -5.956  -5.955  -5.952  -5.952  -5.950
 -5.949  -5.946  -5.945  -5.943  -5.941  -5.938  -5.937  -5.935
 -5.932  -5.930  -5.928  -5.924  -1.058  -1.045  -0.976  -0.970
 -0.961  -0.958  -0.957  -0.937  -0.918  -0.916  -0.912  -0.910
 -0.850  -0.847  -0.838  -0.831  -0.817  -0.813  -0.810  -0.807
 -0.803  -0.799  -0.797  -0.793  -0.787  -0.777  -0.772  -0.762
 -0.750  -0.746  -0.742  -0.735  -0.724  -0.720  -0.713  -0.706
 -0.697  -0.689  -0.681  -0.679  -0.656  -0.655  -0.649  -0.649
 -0.635  -0.633  -0.631  -0.629  -0.612  -0.611  -0.601  -0.598
 -0.593  -0.590  -0.589  -0.584  -0.581  -0.580  -0.564  -0.564
 -0.556  -0.550  -0.544  -0.539  -0.527  -0.526  -0.520  -0.516
 -0.508  -0.505  -0.504  -0.504  -0.493  -0.490  -0.483  -0.482
 -0.475  -0.474  -0.470  -0.466  -0.461  -0.457  -0.452  -0.450
 -0.447  -0.446  -0.440  -0.438  -0.435  -0.432  -0.431  -0.427
 -0.427  -0.425  -0.423  -0.422  -0.420  -0.418  -0.416  -0.414
 -0.413  -0.413  -0.411  -0.411  -0.407  -0.403  -0.402  -0.399
 -0.396  -0.394  -0.392  -0.391  -0.391  -0.390  -0.387  -0.386
 -0.382  -0.378  -0.373  -0.372  -0.366  -0.363  -0.362  -0.357
 -0.354  -0.353  -0.353  -0.352  -0.350  -0.346  -0.346  -0.341
 -0.341  -0.338  -0.337  -0.336  -0.334  -0.325  -0.323  -0.320
 -0.320  -0.316  -0.314  -0.308  -0.307  -0.307  -0.303  -0.302
 -0.300  -0.300  -0.296  -0.290  -0.289  -0.288  -0.287  -0.279
 -0.275  -0.274  -0.272  -0.264  -0.260  -0.255  -0.252  -0.249
 -0.242  -0.241  -0.234  -0.227  -0.196  -0.190

          Ground-State Mulliken Net Atomic Charges

     Atom                 Charge (a.u.)
  ----------------------------------------
      1 C                     0.280410
      2 C                    -0.122033
      3 N                    -0.489955
      4 C                    -0.067808
      5 C                     0.084293
      6 C                     0.009925
      7 C                     0.042798
      8 C                     0.051222
      9 C                     0.267286
     10 N                    -0.492309
     11 N                    -0.562587
     12 C                     0.169269
     13 C                     0.287837
     14 S                     0.599156
     15 N                    -0.534094
     16 C                    -0.237006
     17 S                     0.368474
     18 C                    -0.137712
     19 C                    -0.201638
     20 S                     0.264565
     21 C                     0.147665
     22 C                     0.055155
     23 C                    -0.301808
     24 C                    -0.093786
     25 N                    -0.454095
     26 S                     0.287595
     27 C                     0.118890
     28 C                    -0.304400
     29 C                    -0.222079
     30 H                     0.084516
     31 H                     0.124172
     32 H                     0.110020
     33 H                     0.117387
     34 H                     0.137835
     35 H                     0.107107
     36 H                     0.117722
     37 H                     0.133290
     38 H                     0.099547
     39 C                    -0.180914
     40 H                     0.121940
     41 H                     0.096312
     42 H                     0.112529
     43 C                    -0.186750
     44 H                     0.086575
     45 C                    -0.171999
     46 H                     0.088989
     47 H                     0.092492
     48 H                     0.088923
     49 C                    -0.170615
     50 H                     0.101191
     51 C                    -0.321462
     52 H                     0.095668
     53 H                     0.104112
     54 H                     0.096228
     55 H                     0.103068
     56 C                     0.262034
     57 C                    -0.149409
     58 N                    -0.450393
     59 C                    -0.053546
     60 C                     0.079321
     61 C                     0.030721
     62 C                    -0.057034
     63 C                     0.072427
     64 C                     0.311182
     65 N                    -0.511426
     66 N                    -0.562858
     67 C                     0.202960
     68 C                     0.307380
     69 S                     0.605783
     70 N                    -0.571702
     71 C                    -0.237770
     72 S                     0.322512
     73 C                    -0.112981
     74 C                    -0.229485
     75 S                     0.287215
     76 C                     0.144736
     77 C                     0.059624
     78 C                    -0.321972
     79 C                    -0.048941
     80 N                    -0.421166
     81 S                     0.285649
     82 C                     0.126005
     83 C                    -0.311183
     84 C                    -0.211234
     85 H                     0.092599
     86 H                     0.111742
     87 H                     0.100254
     88 H                     0.125896
     89 H                     0.123196
     90 H                     0.122276
     91 H                     0.116379
     92 H                     0.125433
     93 H                     0.090808
     94 C                    -0.179840
     95 H                     0.120264
     96 H                     0.098895
     97 H                     0.110029
     98 C                    -0.188767
     99 H                     0.098237
    100 C                    -0.178158
    101 H                     0.091818
    102 H                     0.096953
    103 H                     0.097743
    104 C                    -0.184708
    105 H                     0.093972
    106 C                    -0.327777
    107 H                     0.093688
    108 H                     0.098593
    109 H                     0.102263
    110 H                     0.100654
  ----------------------------------------
  Sum of atomic charges =     0.000000

                    Cartesian Multipole Moments
 -----------------------------------------------------------------
    Charge (ESU x 10^10)
                 0.0000
    Dipole Moment (Debye)
         X       1.4367      Y       1.5761      Z       0.0703
       Tot       2.1338
    Quadrupole Moments (Debye-Ang)
        XX    -397.9898     XY      48.4878     YY    -449.9246
        XZ      12.6413     YZ       9.9256     ZZ    -444.1197

 Total job time:  88.22s(wall), 1040.08s(cpu)
        *  Thank you very much for using Q-Chem.  Have a nice day.  *
