 Q-Chem 4.4, Q-Chem, Inc., Pleasanton, CA (2016)
 Q-Chem 4.4.2 for Intel X86 Linux

User input:
--------------------------------------------------------------
$comment
SP
$end

$rem
MEM_STATIC 5000
MEM_TOTAL 20000
JOBTYPE SP
EXCHANGE B3LYP
BASIS 6-31g(d,p)
$end

$molecule
0 1
C          -2.102000     19.403000     -3.314000
C          -2.290000     20.764000     -3.073000
N          -1.228000     18.913000     -4.176000
C          -1.425000     21.683000     -3.597000
C          -0.322000     19.821000     -4.698000
C          -0.416000     21.221000     -4.435000
C           0.544000     22.269000     -4.994000
C           0.075000     23.429000     -5.639000
C           1.995000     22.144000     -4.990000
N           0.809000     24.448000     -6.034000
N           2.555000     21.012000     -4.523000
C           2.768000     23.206000     -5.184000
C           2.139000     24.384000     -5.655000
S           4.180000     21.360000     -4.601000
N           4.107000     22.920000     -5.129000
C           2.937000     25.598000     -5.885000
S           2.604000     26.789000     -7.138000
C           3.636000     26.175000     -4.849000
C           3.465000     28.042000     -6.199000
S           4.196000     25.455000     -3.356000
C           3.930000     27.503000     -5.006000
C           3.819000     29.339000     -6.584000
C           4.786000     27.049000     -2.881000
C           4.596000     28.025000     -3.836000
N           2.884000     30.026000     -7.296000
S           5.326000     30.103000     -6.243000
C           3.444000     31.344000     -7.607000
C           4.702000     31.575000     -7.081000
C          -3.160000     18.447000     -2.845000
H          -3.036000     20.961000     -2.309000
H          -1.535000     22.701000     -3.235000
H           0.392000     19.461000     -5.437000
H          -0.986000     23.675000     -5.632000
H           5.084000     27.285000     -1.868000
H           4.785000     29.085000     -3.713000
H           2.865000     32.049000     -8.188000
H           5.331000     32.456000     -7.071000
H          -3.913000     18.950000     -2.226000
C          -2.815000     17.125000     -2.122000
H          -3.767000     18.067000     -3.676000
H          -2.499000     17.346000     -1.095000
H          -1.929000     16.661000     -2.573000
C          -3.852000     16.028000     -2.305000
H          -4.828000     16.392000     -1.960000
C          -3.534000     14.699000     -1.606000
H          -4.011000     15.910000     -3.384000
H          -4.292000     13.974000     -1.926000
H          -3.586000     14.769000     -0.512000
C          -2.125000     14.216000     -1.995000
H          -1.876000     14.240000     -3.063000
C          -1.944000     12.772000     -1.615000
H          -1.375000     14.840000     -1.493000
H          -2.572000     12.056000     -2.160000
H          -2.335000     12.646000     -0.598000
H          -0.872000     12.541000     -1.655000
C           3.290000      9.359000      2.509000
C           1.965000      9.161000      2.012000
N           3.851000     10.536000      2.572000
C           1.220000     10.286000      1.574000
C           3.179000     11.581000      2.194000
C           1.845000     11.524000      1.744000
C           1.135000     12.821000      1.506000
C           1.903000     13.893000      0.802000
C          -0.132000     13.128000      2.000000
N           1.370000     15.099000      0.609000
N          -0.992000     12.349000      2.608000
C          -0.649000     14.358000      1.820000
C           0.156000     15.348000      1.125000
S          -2.367000     13.132000      2.834000
N          -1.862000     14.594000      2.331000
C          -0.377000     16.736000      0.861000
S          -1.768000     17.547000      1.489000
C           0.304000     17.683000      0.004000
C          -1.468000     19.047000      0.722000
S           1.608000     17.495000     -1.105000
C          -0.364000     18.869000     -0.090000
C          -2.295000     20.237000      0.875000
C           1.395000     19.195000     -1.548000
C           0.259000     19.784000     -0.967000
N          -1.820000     21.448000      0.585000
S          -3.919000     20.072000      1.435000
C          -2.842000     22.333000      0.667000
C          -4.007000     21.781000      1.157000
C           4.299000      8.199000      2.636000
H           1.512000      8.175000      1.972000
H           0.194000     10.287000      1.219000
H           3.658000     12.547000      2.350000
H           2.869000     13.717000      0.331000
H           2.066000     19.661000     -2.257000
H          -0.039000     20.799000     -1.202000
H          -2.636000     23.359000      0.391000
H          -4.970000     22.274000      1.136000
H           3.766000      7.271000      2.393000
C           4.684000      8.056000      4.122000
H           5.187000      8.268000      1.996000
H           3.883000      8.404000      4.786000
H           5.495000      8.748000      4.382000
C           4.906000      6.533000      4.536000
H           3.941000      6.024000      4.420000
C           5.434000      6.248000      6.006000
H           5.523000      6.063000      3.761000
H           4.868000      6.660000      6.851000
H           6.455000      6.642000      6.088000
C           5.534000      4.721000      6.339000
H           6.249000      4.231000      5.666000
C           4.171000      3.875000      6.190000
H           5.871000      4.518000      7.363000
H           4.186000      2.854000      6.591000
H           3.952000      3.745000      5.123000
H           3.322000      4.358000      6.689000
$end

--------------------------------------------------------------

             Standard Nuclear Orientation (Angstroms)
    I     Atom           X                Y                Z
 ----------------------------------------------------------------
    1      C       1.2976595406     3.1184401998    -1.6979656969
    2      C       2.3905262280     3.4399576853    -0.8929719640
    3      N       1.2993848370     2.1599868861    -2.6081218753
    4      C       3.4941933716     2.6343849777    -0.8747113794
    5      C       2.3946626180     1.3127558943    -2.5894074714
    6      C       3.5176361677     1.5454297532    -1.7392320294
    7      C       4.7573422892     0.6550821871    -1.6863648001
    8      C       6.0550822366     1.1915208617    -1.7848055307
    9      C       4.7259648103    -0.7990585625    -1.6119864833
   10      N       7.1822340943     0.5319738197    -1.6184673543
   11      N       3.5385978604    -1.4328526545    -1.6517077016
   12      C       5.8029290337    -1.4829813172    -1.2440099525
   13      C       7.0291830948    -0.7766513622    -1.1933643964
   14      S       3.9753029149    -3.0220084473    -1.4243631139
   15      N       5.5988349152    -2.8374636183    -1.2057308881
   16      C       8.2591783626    -1.4737203506    -0.7875239517
   17      S       9.8664986876    -1.1017230561    -1.4019491998
   18      C       8.3450725682    -2.0628312729     0.4536031597
   19      C      10.6073709440    -1.7965249069     0.0682241532
   20      S       7.0617656104    -2.6058141885     1.5115926706
   21      C       9.6152693771    -2.2445798397     0.9313442248
   22      C      11.9562030803    -2.0527071284     0.3342552367
   23      C       8.3004225677    -3.0249310356     2.6967639707
   24      C       9.5898620083    -2.7987518816     2.2644563033
   25      N      12.8366302783    -1.0986619245    -0.0753588473
   26      S      12.5677372890    -3.4652309815     1.1100311554
   27      C      14.1823878257    -1.5539614888     0.2839236743
   28      C      14.2217040660    -2.7568352667     0.9652091561
   29      C       0.1749768358     4.1097663252    -1.7985492807
   30      H       2.1792635089     4.2397164311    -0.1895695102
   31      H       4.2313676736     2.8539696211    -0.1080141557
   32      H       2.4476653723     0.5315424928    -3.3459874931
   33      H       6.2112423729     2.2691821746    -1.7614366115
   34      H       8.0703827506    -3.2469521046     3.7304260661
   35      H      10.4891196887    -2.8853506481     2.8630264979
   36      H      15.0398042873    -0.9454960600     0.0300854711
   37      H      15.0373074863    -3.3030227697     1.4216872745
   38      H       0.3012805807     4.9362672633    -1.0885333912
   39      C      -1.3092279603     3.6862506333    -1.7136459125
   40      H       0.1772385951     4.6357878339    -2.7612051158
   41      H      -1.5579297187     3.4457194399    -0.6726280546
   42      H      -1.4690969904     2.7397895838    -2.2450086652
   43      C      -2.2621528289     4.6098001028    -2.4561131321
   44      H      -2.1485979837     5.6312498106    -2.0716098271
   45      C      -3.7432857355     4.2112504148    -2.3980660879
   46      H      -1.8894060002     4.7006699933    -3.4838526247
   47      H      -4.2873544814     4.8834180380    -3.0724316312
   48      H      -4.1774410083     4.3267303969    -1.3967601543
   49      C      -3.9185797874     2.7461728871    -2.8370545084
   50      H      -3.4013321631     2.4445410286    -3.7561160499
   51      C      -5.3659375579     2.4568209068    -3.1264122725
   52      H      -3.5470301447     2.0824828155    -2.0462660715
   53      H      -5.7931537035     2.9886725765    -3.9858802279
   54      H      -5.9590246701     2.8878717187    -2.3106372576
   55      H      -5.4932296003     1.3678279416    -3.1715349684
   56      C      -9.9714364082    -2.8377741474    -0.5173234368
   57      C      -9.9982197948    -1.5637835092    -1.1639056080
   58      N      -8.9199404456    -3.2870390682     0.1123878236
   59      C      -8.8405954179    -0.7450920153    -1.1176018297
   60      C      -7.8565253626    -2.5449633186     0.1828501756
   61      C      -7.7794372527    -1.2469257422    -0.3597923161
   62      C      -6.5568794252    -0.4371330630    -0.0555865057
   63      C      -5.2411975733    -1.1419894442    -0.1379439367
   64      C      -6.5777124973     0.8764703722     0.4108746376
   65      N      -4.1100187681    -0.5140237109     0.1812230235
   66      N      -7.5943029480     1.6940205993     0.5302918965
   67      C      -5.4301213738     1.4913548028     0.7537168027
   68      C      -4.1894493637     0.7428288253     0.6460514680
   69      S      -7.0763552428     3.1435786907     0.9607585203
   70      N      -5.5188184081     2.7457859172     1.2083830708
   71      C      -2.8641376760     1.3833601520     0.9830938242
   72      S      -2.5035202368     2.8724652907     1.7827856076
   73      C      -1.5956628744     0.7458000718     0.7011225102
   74      C      -0.8045826185     2.6680932395     1.7942762076
   75      S      -1.1892914678    -0.6262678613    -0.2569656209
   76      C      -0.5345692359     1.5114480818     1.0877999147
   77      C       0.1396773775     3.6052206999     2.3889216338
   78      C       0.5126957141    -0.2854766128     0.0875905536
   79      C       0.7111595086     0.9276580987     0.7686884130
   80      N       1.3758702402     3.2259842467     2.7118038395
   81      S      -0.3514405144     5.2350988491     2.6726493823
   82      C       2.0695233398     4.3260158977     3.0902331512
   83      C       1.2911642513     5.4610427958     3.1791154884
   84      C     -11.0050467998    -3.9385168498    -0.8332744796
   85      H     -10.8838906739    -1.2036234370    -1.6785674546
   86      H      -8.7373544172     0.2567961881    -1.5228959495
   87      H      -7.0395375039    -2.9266775878     0.7942077268
   88      H      -5.1310251162    -2.1432807602    -0.5517684529
   89      H       1.2854269290    -0.9483831580    -0.2778124868
   90      H       1.7044124144     1.3025839181     0.9857904514
   91      H       3.1194701787     4.1984958884     3.3196634951
   92      H       1.6854723085     6.4618794292     3.2961889238
   93      H     -11.7519811621    -3.5042638952    -1.5099098539
   94      C     -11.7811447998    -4.2561470147     0.4604229243
   95      H     -10.6048109793    -4.8491730990    -1.2952501108
   96      H     -11.8159005301    -3.3934197989     1.1372499260
   97      H     -11.2364117390    -4.9871363046     1.0712465899
   98      C     -13.3118940957    -4.5915645185     0.1697156979
   99      H     -13.7672809721    -3.6834534881    -0.2446743953
  100      C     -14.1991897541    -5.0649778179     1.3983308786
  101      H     -13.3460879282    -5.2880438142    -0.6764293090
  102      H     -14.2453619278    -4.4207376857     2.2854316522
  103      H     -13.8277339689    -6.0408704632     1.7360513911
  104      C     -15.7038319149    -5.2836696378     1.0230391843
  105      H     -15.7963354955    -6.0740497484     0.2673961678
  106      C     -16.4669095045    -4.0116198981     0.3943198098
  107      H     -16.3276372990    -5.5832113004     1.8742122779
  108      H     -17.5563455803    -4.0968886512     0.2977523380
  109      H     -16.1136453929    -3.8615181597    -0.6333104426
  110      H     -16.3096888498    -3.0977350171     0.9801415320
 ----------------------------------------------------------------

   10   -5663.4633891681      5.06E-06 Convergence criterion met
 Total energy in the final basis set = -5663.4633891681

                    Orbital Energies (a.u.)
 --------------------------------------------------------------

 Alpha MOs
 -- Occupied --
-88.995 -88.992 -88.933 -88.929 -88.927 -88.924 -88.915 -88.903
-14.396 -14.390 -14.384 -14.372 -14.354 -14.349 -14.348 -14.344
-14.329 -14.321 -10.272 -10.267 -10.266 -10.265 -10.256 -10.254
-10.249 -10.246 -10.246 -10.242 -10.238 -10.238 -10.237 -10.237
-10.234 -10.234 -10.232 -10.232 -10.231 -10.229 -10.229 -10.228
-10.227 -10.225 -10.222 -10.222 -10.220 -10.219 -10.211 -10.210
-10.209 -10.209 -10.208 -10.207 -10.204 -10.197 -10.190 -10.186
-10.184 -10.184 -10.183 -10.182 -10.178 -10.176 -10.174 -10.173
-10.170 -10.169 -10.167 -10.164  -8.050  -8.048  -7.995  -7.990
 -7.986  -7.984  -7.975  -7.963  -6.015  -6.013  -6.009  -6.008
 -6.007  -6.006  -5.958  -5.955  -5.954  -5.952  -5.951  -5.950
 -5.948  -5.947  -5.946  -5.944  -5.942  -5.941  -5.940  -5.936
 -5.931  -5.927  -5.924  -5.919  -1.056  -1.042  -0.977  -0.962
 -0.959  -0.956  -0.946  -0.937  -0.917  -0.916  -0.908  -0.904
 -0.847  -0.846  -0.836  -0.832  -0.819  -0.817  -0.811  -0.804
 -0.802  -0.796  -0.795  -0.792  -0.783  -0.775  -0.766  -0.760
 -0.749  -0.744  -0.741  -0.732  -0.731  -0.717  -0.711  -0.703
 -0.694  -0.687  -0.680  -0.677  -0.655  -0.654  -0.647  -0.646
 -0.631  -0.631  -0.630  -0.628  -0.610  -0.607  -0.599  -0.597
 -0.593  -0.588  -0.586  -0.581  -0.580  -0.576  -0.562  -0.555
 -0.553  -0.547  -0.542  -0.537  -0.526  -0.525  -0.515  -0.513
 -0.510  -0.503  -0.501  -0.501  -0.491  -0.488  -0.480  -0.478
 -0.473  -0.470  -0.464  -0.461  -0.458  -0.455  -0.449  -0.447
 -0.447  -0.439  -0.437  -0.436  -0.435  -0.429  -0.426  -0.425
 -0.423  -0.422  -0.420  -0.418  -0.418  -0.417  -0.413  -0.413
 -0.413  -0.410  -0.409  -0.404  -0.402  -0.400  -0.398  -0.397
 -0.396  -0.393  -0.392  -0.390  -0.389  -0.387  -0.384  -0.383
 -0.380  -0.377  -0.372  -0.371  -0.363  -0.361  -0.355  -0.354
 -0.353  -0.350  -0.349  -0.348  -0.346  -0.344  -0.340  -0.339
 -0.337  -0.335  -0.333  -0.332  -0.323  -0.323  -0.321  -0.320
 -0.312  -0.312  -0.310  -0.308  -0.307  -0.305  -0.301  -0.299
 -0.297  -0.294  -0.291  -0.289  -0.286  -0.286  -0.286  -0.282
 -0.281  -0.272  -0.265  -0.261  -0.258  -0.253  -0.253  -0.250
 -0.248  -0.238  -0.233  -0.223  -0.199  -0.188

          Ground-State Mulliken Net Atomic Charges

     Atom                 Charge (a.u.)
  ----------------------------------------
      1 C                     0.311931
      2 C                    -0.112812
      3 N                    -0.486208
      4 C                    -0.076205
      5 C                     0.094752
      6 C                     0.018458
      7 C                     0.003636
      8 C                     0.061249
      9 C                     0.211363
     10 N                    -0.456566
     11 N                    -0.550169
     12 C                     0.247680
     13 C                     0.195268
     14 S                     0.614020
     15 N                    -0.520190
     16 C                    -0.212145
     17 S                     0.355673
     18 C                    -0.129432
     19 C                    -0.197441
     20 S                     0.269604
     21 C                     0.146047
     22 C                     0.024818
     23 C                    -0.306200
     24 C                    -0.071109
     25 N                    -0.430165
     26 S                     0.273111
     27 C                     0.109285
     28 C                    -0.297891
     29 C                    -0.242097
     30 H                     0.095760
     31 H                     0.104638
     32 H                     0.112004
     33 H                     0.106356
     34 H                     0.132008
     35 H                     0.117784
     36 H                     0.121977
     37 H                     0.137140
     38 H                     0.087474
     39 C                    -0.184743
     40 H                     0.114584
     41 H                     0.099179
     42 H                     0.125750
     43 C                    -0.189447
     44 H                     0.075068
     45 C                    -0.179358
     46 H                     0.095215
     47 H                     0.086946
     48 H                     0.100327
     49 C                    -0.180302
     50 H                     0.100302
     51 C                    -0.327647
     52 H                     0.113393
     53 H                     0.102194
     54 H                     0.087241
     55 H                     0.099064
     56 C                     0.260072
     57 C                    -0.143072
     58 N                    -0.450177
     59 C                    -0.053057
     60 C                     0.078441
     61 C                     0.028758
     62 C                    -0.052930
     63 C                     0.070787
     64 C                     0.315569
     65 N                    -0.512062
     66 N                    -0.565786
     67 C                     0.206659
     68 C                     0.307490
     69 S                     0.605351
     70 N                    -0.574966
     71 C                    -0.236011
     72 S                     0.310192
     73 C                    -0.106106
     74 C                    -0.229025
     75 S                     0.286328
     76 C                     0.146036
     77 C                     0.057856
     78 C                    -0.322984
     79 C                    -0.053377
     80 N                    -0.421241
     81 S                     0.287251
     82 C                     0.120265
     83 C                    -0.312395
     84 C                    -0.211225
     85 H                     0.092433
     86 H                     0.115868
     87 H                     0.098963
     88 H                     0.125974
     89 H                     0.134665
     90 H                     0.120827
     91 H                     0.114945
     92 H                     0.125059
     93 H                     0.091237
     94 C                    -0.179434
     95 H                     0.119943
     96 H                     0.098362
     97 H                     0.109438
     98 C                    -0.189049
     99 H                     0.098513
    100 C                    -0.177995
    101 H                     0.091968
    102 H                     0.096440
    103 H                     0.097410
    104 C                    -0.184631
    105 H                     0.093978
    106 C                    -0.327911
    107 H                     0.093179
    108 H                     0.098562
    109 H                     0.103221
    110 H                     0.100224
  ----------------------------------------
  Sum of atomic charges =     0.000000

                    Cartesian Multipole Moments
 -----------------------------------------------------------------
    Charge (ESU x 10^10)
                 0.0000
    Dipole Moment (Debye)
         X       1.2435      Y       1.3533      Z       1.9641
       Tot       2.6899
    Quadrupole Moments (Debye-Ang)
        XX    -396.8537     XY     -28.0247     YY    -420.4695
        XZ      36.0341     YZ       5.5869     ZZ    -445.0216

 Total job time:  102.03s(wall), 1228.70s(cpu)
        *  Thank you very much for using Q-Chem.  Have a nice day.  *
