 Q-Chem 4.4, Q-Chem, Inc., Pleasanton, CA (2016)
 Q-Chem 4.4.2 for Intel X86 Linux

User input:
--------------------------------------------------------------
$comment
SP
$end

$rem
MEM_STATIC 5000
MEM_TOTAL 20000
JOBTYPE SP
EXCHANGE B3LYP
BASIS 6-31g(d,p)
$end

$molecule
0 1
C           1.880000     11.032000     -2.572000
C           3.006000     11.068000     -1.751000
N           1.122000      9.939000     -2.619000
C           3.482000      9.897000     -1.191000
C           1.547000      8.778000     -2.122000
C           2.832000      8.663000     -1.417000
C           3.239000      7.383000     -0.718000
C           4.575000      7.169000     -0.433000
C           2.335000      6.403000     -0.130000
N           5.014000      6.146000      0.324000
N           1.030000      6.479000     -0.260000
C           2.771000      5.314000      0.600000
C           4.175000      5.127000      0.737000
S           0.434000      5.148000      0.465000
N           1.821000      4.447000      1.006000
C           4.800000      3.973000      1.409000
S           3.861000      2.687000      2.163000
C           6.190000      3.658000      1.536000
C           5.315000      1.733000      2.552000
S           7.578000      4.620000      1.090000
C           6.472000      2.485000      2.311000
C           5.374000      0.494000      3.211000
C           8.547000      3.353000      1.916000
C           7.832000      2.346000      2.588000
N           4.278000     -0.293000      3.122000
S           6.731000     -0.269000      4.066000
C           4.423000     -1.436000      3.875000
C           5.656000     -1.560000      4.406000
C           1.367000     12.350000     -3.102000
H           3.556000     11.992000     -1.598000
H           4.369000      9.994000     -0.572000
H           0.856000      7.954000     -2.295000
H           5.195000      8.018000     -0.717000
H           9.617000      3.441000      1.787000
H           8.397000      1.574000      3.098000
H           3.607000     -2.132000      4.017000
H           6.006000     -2.204000      5.202000
H           0.442000     12.147000     -3.656000
C           2.275000     13.065000     -4.138000
H           1.114000     13.000000     -2.255000
H           3.195000     13.482000     -3.711000
H           1.734000     13.965000     -4.458000
C           2.643000     12.118000     -5.303000
H           3.175000     11.246000     -4.903000
C           3.393000     12.910000     -6.435000
H           1.636000     11.825000     -5.623000
H           4.275000     13.414000     -6.020000
H           2.777000     13.788000     -6.667000
C           3.776000     11.975000     -7.630000
H           4.516000     11.269000     -7.233000
C           4.470000     12.839000     -8.766000
H           2.907000     11.528000     -8.129000
H           3.947000     13.749000     -9.086000
H           4.610000     12.234000     -9.671000
H           5.427000     13.290000     -8.477000
C           3.290000      9.359000      2.509000
C           1.965000      9.161000      2.012000
N           3.851000     10.536000      2.572000
C           1.220000     10.286000      1.574000
C           3.179000     11.581000      2.194000
C           1.845000     11.524000      1.744000
C           1.135000     12.821000      1.506000
C           1.903000     13.893000      0.802000
C          -0.132000     13.128000      2.000000
N           1.370000     15.099000      0.609000
N          -0.992000     12.349000      2.608000
C          -0.649000     14.358000      1.820000
C           0.156000     15.348000      1.125000
S          -2.367000     13.132000      2.834000
N          -1.862000     14.594000      2.331000
C          -0.377000     16.736000      0.861000
S          -1.768000     17.547000      1.489000
C           0.304000     17.683000      0.004000
C          -1.468000     19.047000      0.722000
S           1.608000     17.495000     -1.105000
C          -0.364000     18.869000     -0.090000
C          -2.295000     20.237000      0.875000
C           1.395000     19.195000     -1.548000
C           0.259000     19.784000     -0.967000
N          -1.820000     21.448000      0.585000
S          -3.919000     20.072000      1.435000
C          -2.842000     22.333000      0.667000
C          -4.007000     21.781000      1.157000
C           4.299000      8.199000      2.636000
H           1.512000      8.175000      1.972000
H           0.194000     10.287000      1.219000
H           3.658000     12.547000      2.350000
H           2.869000     13.717000      0.331000
H           2.066000     19.661000     -2.257000
H          -0.039000     20.799000     -1.202000
H          -2.636000     23.359000      0.391000
H          -4.970000     22.274000      1.136000
H           3.766000      7.271000      2.393000
C           4.684000      8.056000      4.122000
H           5.187000      8.268000      1.996000
H           3.883000      8.404000      4.786000
H           5.495000      8.748000      4.382000
C           4.906000      6.533000      4.536000
H           3.941000      6.024000      4.420000
C           5.434000      6.248000      6.006000
H           5.523000      6.063000      3.761000
H           4.868000      6.660000      6.851000
H           6.455000      6.642000      6.088000
C           5.534000      4.721000      6.339000
H           6.249000      4.231000      5.666000
C           4.171000      3.875000      6.190000
H           5.871000      4.518000      7.363000
H           4.186000      2.854000      6.591000
H           3.952000      3.745000      5.123000
H           3.322000      4.358000      6.689000
$end

--------------------------------------------------------------

             Standard Nuclear Orientation (Angstroms)
    I     Atom           X                Y                Z
 ----------------------------------------------------------------
    1      C      -1.6170247186     3.0028528409    -0.9718576267
    2      C      -1.0919872971     2.6034053929     0.2561449964
    3      N      -0.9084907795     2.8390812398    -2.0865685847
    4      C       0.2491456106     2.2824132509     0.3548545123
    5      C       0.3938350073     2.5600215419    -2.0462172516
    6      C       1.0958664193     2.3290037516    -0.7752893712
    7      C       2.5346498007     1.8585346985    -0.7404863341
    8      C       3.2742169209     2.0441669259     0.4129858809
    9      C       3.1943612202     1.0433608891    -1.7522335869
   10      N       4.5001828361     1.5192393823     0.5967184277
   11      N       2.6187407250     0.7276991083    -2.8900910849
   12      C       4.4748480736     0.5455601502    -1.6057247390
   13      C       5.1897076084     0.8921614899    -0.4251327871
   14      S       3.7364967039    -0.0995172755    -3.7378744452
   15      N       4.9832572352    -0.1181314993    -2.6640529106
   16      C       6.5897215057     0.5146475472    -0.1579824356
   17      S       7.5441325211    -0.4560575724    -1.2764028326
   18      C       7.4145210152     0.8712278749     0.9555750344
   19      C       9.0207210203    -0.2988353152    -0.2912528105
   20      S       6.9750192214     1.7147201727     2.4205879753
   21      C       8.7222521338     0.2831362197     0.9474801940
   22      C      10.2861686765    -0.8493038463    -0.5529962451
   23      C       8.6320832832     1.3114331442     2.9845243794
   24      C       9.4008928801     0.4812415629     2.1499156436
   25      N      10.5828368398    -1.0986782202    -1.8484909084
   26      S      11.6320384231    -1.1711502190     0.5604185642
   27      C      11.8086103098    -1.7129401044    -1.9695063534
   28      C      12.4698447943    -1.7970296205    -0.7976173187
   29      C      -3.1009409494     3.2772514113    -1.0342358647
   30      H      -1.7052955341     2.6048992172     1.1525465666
   31      H       0.5953451187     1.9910751035     1.3420763640
   32      H       0.8601461722     2.5262820303    -3.0299863011
   33      H       2.6806798240     2.4836769270     1.2132368874
   34      H       8.9265914789     1.7860214288     3.9104379190
   35      H      10.4022796730     0.2207207147     2.4734312982
   36      H      12.1655291216    -2.0902790866    -2.9185375722
   37      H      13.3235031528    -2.4038347772    -0.5257590676
   38      H      -3.3533718898     3.4990259225    -2.0786709687
   39      C      -3.5938045339     4.5265602364    -0.2562269016
   40      H      -3.6434189293     2.3685674533    -0.7445306596
   41      H      -3.5602675961     4.4140050444     0.8341054342
   42      H      -4.6706722162     4.6108895087    -0.4519960732
   43      C      -2.7918891040     5.7852366778    -0.6588722282
   44      H      -1.7302519338     5.6214102741    -0.4363965481
   45      C      -3.4300436840     7.0691582631    -0.0142854652
   46      H      -2.9526058387     5.7629424452    -1.7432942394
   47      H      -3.4920667334     6.9516868226     1.0749888813
   48      H      -4.4996142501     7.0464962122    -0.2585583362
   49      C      -2.6386434468     8.3606024789    -0.4077273313
   50      H      -1.6518976929     8.2621583679     0.0616196342
   51      C      -3.3639754210     9.6266848057     0.2164177392
   52      H      -2.6381793371     8.5592013603    -1.4868609046
   53      H      -4.4432949270     9.7166058719     0.0403137755
   54      H      -2.9143955523    10.5504954033    -0.1697194404
   55      H      -3.3713256972     9.6550601459     1.3127351264
   56      C       1.3011113812    -1.2447321820     1.0396326608
   57      C       0.9054897552    -1.2101873054    -0.3330028264
   58      N       0.4455645272    -1.1651291776     2.0223441862
   59      C      -0.4725865866    -1.0918997833    -0.6482926269
   60      C      -0.8221597200    -1.0757566031     1.7551723764
   61      C      -1.3417980944    -1.0942394674     0.4456154499
   62      C      -2.8297310920    -1.1596926224     0.2883758905
   63      C      -3.6436824581    -0.2843466182     1.1860821601
   64      C      -3.4955186399    -2.0598791500    -0.5422655223
   65      N      -4.9752101720    -0.3294693973     1.1582994007
   66      N      -2.9995474682    -2.8874317271    -1.4284225789
   67      C      -4.8407986555    -2.1128934537    -0.5426694936
   68      C      -5.5646375477    -1.2303429353     0.3563921509
   69      S      -4.1856792792    -3.5906199507    -2.2367589254
   70      N      -5.4188426181    -3.0081932224    -1.3504377161
   71      C      -7.0744277895    -1.2160207053     0.3820300063
   72      S      -8.2233781806    -2.3043383686    -0.3125660365
   73      C      -7.8326832403    -0.2204571472     1.1092994701
   74      C      -9.6123652710    -1.5431304735     0.3351734198
   75      S      -7.3668601218     1.2664860362     1.8425455348
   76      C      -9.1791149254    -0.4030144442     0.9849992255
   77      C     -10.9792271489    -2.0115068934     0.1460963565
   78      C      -9.0733383111     1.5433414079     2.2205684080
   79      C      -9.9330895697     0.5933604804     1.6432106241
   80      N     -11.9580123172    -1.6294608890     0.9660149164
   81      S     -11.3353032703    -3.0735897781    -1.1666834201
   82      C     -13.1309205287    -2.0835082681     0.4634611333
   83      C     -12.9754455872    -2.9108515775    -0.6289488589
   84      C       2.7559276004    -0.9806510888     1.4796110062
   85      H       1.6306753204    -1.2832527759    -1.1378458750
   86      H      -0.9146990647    -1.0995648677    -1.6398468631
   87      H      -1.4996285503    -1.1024706225     2.6079650505
   88      H      -3.2051892254     0.4884914067     1.8156995616
   89      H      -9.3709527868     2.4158073863     2.7865248908
   90      H     -11.0102796307     0.6739322322     1.7293718998
   91      H     -14.0382170434    -1.7967636145     0.9790952457
   92      H     -13.7862402061    -3.2322077010    -1.2694184740
   93      H       3.3638176018    -0.8915418151     0.5702973730
   94      C       3.2831195801    -2.2461725709     2.1848726561
   95      H       2.9129779486    -0.0846326171     2.0923026796
   96      H       2.7817921839    -3.1528236467     1.8239631542
   97      H       2.9966724628    -2.2489896600     3.2441767262
   98      C       4.8264125330    -2.4999394444     1.8781835046
   99      H       4.9132932789    -2.6915657651     0.8013858963
  100      C       5.5335318779    -3.6969244095     2.6450721702
  101      H       5.3518940898    -1.5450879999     1.9979409777
  102      H       5.0918686684    -4.6983418069     2.5661937466
  103      H       5.5665881532    -3.4499100038     3.7138528614
  104      C       7.0213875777    -3.9148997136     2.2075905322
  105      H       7.6188997379    -3.0226403851     2.4336580199
  106      C       7.2626291467    -4.1943513791     0.6393446102
  107      H       7.5066201531    -4.7588035425     2.7132877492
  108      H       8.2686868655    -4.5253723706     0.3534425819
  109      H       7.1177874382    -3.2570136769     0.0881922616
  110      H       6.5920797818    -4.9670979598     0.2439748195
 ----------------------------------------------------------------

   10   -5663.4945665603      3.87E-06 Convergence criterion met
 Total energy in the final basis set = -5663.4945665603

                    Orbital Energies (a.u.)
 --------------------------------------------------------------

 Alpha MOs
 -- Occupied --
-88.992 -88.989 -88.931 -88.929 -88.927 -88.924 -88.919 -88.907
-14.393 -14.384 -14.383 -14.372 -14.351 -14.350 -14.343 -14.341
-14.323 -14.320 -10.270 -10.268 -10.267 -10.266 -10.257 -10.257
-10.249 -10.247 -10.247 -10.246 -10.243 -10.241 -10.239 -10.236
-10.235 -10.235 -10.229 -10.228 -10.228 -10.227 -10.225 -10.225
-10.224 -10.224 -10.224 -10.224 -10.222 -10.219 -10.217 -10.217
-10.213 -10.209 -10.208 -10.207 -10.201 -10.199 -10.193 -10.192
-10.186 -10.181 -10.179 -10.179 -10.178 -10.178 -10.177 -10.176
-10.176 -10.173 -10.170 -10.165  -8.048  -8.045  -7.993  -7.990
 -7.984  -7.984  -7.978  -7.967  -6.013  -6.010  -6.007  -6.005
 -6.004  -6.002  -5.957  -5.954  -5.954  -5.951  -5.950  -5.949
 -5.948  -5.947  -5.945  -5.945  -5.943  -5.942  -5.941  -5.939
 -5.935  -5.931  -5.928  -5.923  -1.056  -1.049  -0.975  -0.963
 -0.960  -0.955  -0.949  -0.940  -0.917  -0.917  -0.908  -0.907
 -0.849  -0.844  -0.836  -0.825  -0.815  -0.811  -0.810  -0.808
 -0.804  -0.798  -0.792  -0.791  -0.780  -0.771  -0.766  -0.758
 -0.750  -0.743  -0.741  -0.731  -0.721  -0.719  -0.710  -0.702
 -0.693  -0.684  -0.677  -0.677  -0.654  -0.652  -0.645  -0.643
 -0.636  -0.630  -0.627  -0.623  -0.612  -0.608  -0.598  -0.595
 -0.594  -0.588  -0.583  -0.579  -0.579  -0.577  -0.572  -0.557
 -0.554  -0.546  -0.543  -0.537  -0.532  -0.525  -0.520  -0.515
 -0.506  -0.503  -0.502  -0.500  -0.490  -0.486  -0.480  -0.480
 -0.473  -0.472  -0.466  -0.461  -0.461  -0.451  -0.448  -0.446
 -0.440  -0.440  -0.438  -0.434  -0.433  -0.431  -0.428  -0.426
 -0.425  -0.424  -0.423  -0.418  -0.416  -0.415  -0.413  -0.412
 -0.412  -0.408  -0.406  -0.403  -0.400  -0.398  -0.397  -0.396
 -0.395  -0.393  -0.391  -0.389  -0.388  -0.386  -0.384  -0.379
 -0.377  -0.376  -0.374  -0.366  -0.365  -0.361  -0.357  -0.356
 -0.354  -0.353  -0.351  -0.349  -0.345  -0.342  -0.342  -0.338
 -0.336  -0.335  -0.334  -0.332  -0.330  -0.325  -0.318  -0.318
 -0.316  -0.315  -0.309  -0.307  -0.306  -0.304  -0.299  -0.298
 -0.297  -0.295  -0.293  -0.292  -0.290  -0.288  -0.282  -0.279
 -0.274  -0.272  -0.265  -0.260  -0.259  -0.252  -0.251  -0.243
 -0.240  -0.239  -0.232  -0.224  -0.194  -0.189

          Ground-State Mulliken Net Atomic Charges

     Atom                 Charge (a.u.)
  ----------------------------------------
      1 C                     0.281527
      2 C                    -0.108881
      3 N                    -0.480861
      4 C                    -0.074023
      5 C                     0.085568
      6 C                    -0.000945
      7 C                     0.080446
      8 C                     0.051281
      9 C                     0.228567
     10 N                    -0.525125
     11 N                    -0.552714
     12 C                     0.213132
     13 C                     0.290655
     14 S                     0.593585
     15 N                    -0.560920
     16 C                    -0.225194
     17 S                     0.374272
     18 C                    -0.125719
     19 C                    -0.207140
     20 S                     0.299485
     21 C                     0.127439
     22 C                     0.040145
     23 C                    -0.305975
     24 C                    -0.088098
     25 N                    -0.439214
     26 S                     0.275969
     27 C                     0.132399
     28 C                    -0.312176
     29 C                    -0.249490
     30 H                     0.089700
     31 H                     0.108252
     32 H                     0.122404
     33 H                     0.106834
     34 H                     0.128637
     35 H                     0.129181
     36 H                     0.119039
     37 H                     0.133327
     38 H                     0.112550
     39 C                    -0.192205
     40 H                     0.116569
     41 H                     0.085525
     42 H                     0.097551
     43 C                    -0.173133
     44 H                     0.099686
     45 C                    -0.175428
     46 H                     0.099926
     47 H                     0.089700
     48 H                     0.091637
     49 C                    -0.169447
     50 H                     0.104159
     51 C                    -0.331649
     52 H                     0.104213
     53 H                     0.100837
     54 H                     0.096260
     55 H                     0.099264
     56 C                     0.257471
     57 C                    -0.140069
     58 N                    -0.455731
     59 C                    -0.047296
     60 C                     0.071548
     61 C                     0.033401
     62 C                    -0.050675
     63 C                     0.071117
     64 C                     0.312633
     65 N                    -0.513982
     66 N                    -0.561103
     67 C                     0.201848
     68 C                     0.305047
     69 S                     0.603504
     70 N                    -0.567883
     71 C                    -0.237711
     72 S                     0.326569
     73 C                    -0.113563
     74 C                    -0.229921
     75 S                     0.281107
     76 C                     0.145155
     77 C                     0.059201
     78 C                    -0.322300
     79 C                    -0.048535
     80 N                    -0.421765
     81 S                     0.288139
     82 C                     0.125667
     83 C                    -0.311451
     84 C                    -0.204234
     85 H                     0.090531
     86 H                     0.117951
     87 H                     0.097137
     88 H                     0.119112
     89 H                     0.122335
     90 H                     0.122238
     91 H                     0.115745
     92 H                     0.125317
     93 H                     0.084363
     94 C                    -0.183467
     95 H                     0.124360
     96 H                     0.094931
     97 H                     0.106784
     98 C                    -0.198095
     99 H                     0.097469
    100 C                    -0.177170
    101 H                     0.109737
    102 H                     0.093751
    103 H                     0.095002
    104 C                    -0.186081
    105 H                     0.095401
    106 C                    -0.338240
    107 H                     0.089025
    108 H                     0.095990
    109 H                     0.121519
    110 H                     0.096784
  ----------------------------------------
  Sum of atomic charges =     0.000000

                    Cartesian Multipole Moments
 -----------------------------------------------------------------
    Charge (ESU x 10^10)
                 0.0000
    Dipole Moment (Debye)
         X       0.5404      Y      -0.7506      Z      -0.5931
       Tot       1.0987
    Quadrupole Moments (Debye-Ang)
        XX    -361.1272     XY      -5.2724     YY    -441.8137
        XZ      24.5671     YZ      20.4293     ZZ    -441.1904

 Total job time:  101.08s(wall), 1217.64s(cpu)
        *  Thank you very much for using Q-Chem.  Have a nice day.  *
