 Q-Chem 4.4, Q-Chem, Inc., Pleasanton, CA (2016)
 Q-Chem 4.4.2 for Intel X86 Linux

User input:
--------------------------------------------------------------
$comment
SP
$end

$rem
MEM_STATIC 5000
MEM_TOTAL 20000
JOBTYPE SP
EXCHANGE B3LYP
BASIS 6-31g(d,p)
$end

$molecule
0 1
C         -29.784000      1.649000     -0.675000
C         -29.032000      1.161000     -1.727000
N         -29.894000      2.962000     -0.298000
C         -28.309000      2.146000     -2.477000
C         -29.209000      3.865000     -1.100000
C         -28.406000      3.529000     -2.277000
C         -27.758000      4.491000     -3.251000
C         -26.873000      4.053000     -4.260000
C         -28.054000      5.887000     -3.279000
N         -26.484000      4.799000     -5.255000
N         -28.994000      6.608000     -2.510000
C         -27.514000      6.691000     -4.339000
C         -26.842000      6.068000     -5.443000
S         -28.918000      8.110000     -3.120000
N         -27.973000      7.930000     -4.365000
C         -26.644000      6.715000     -6.817000
S         -27.139000      8.324000     -7.318000
C         -26.219000      5.979000     -7.903000
C         -26.789000      7.964000     -9.011000
S         -25.751000      4.318000     -8.040000
C         -26.244000      6.662000     -9.119000
C         -27.151000      8.688000    -10.195000
C         -25.798000      4.509000     -9.781000
C         -26.044000      5.749000    -10.220000
N         -26.509000      8.492000    -11.344000
S         -28.395000      9.892000    -10.292000
C         -27.112000      9.128000    -12.405000
C         -28.142000      9.904000    -12.090000
C         -30.614000      0.668000      0.211000
H         -28.953000      0.100000     -1.942000
H         -27.674000      1.782000     -3.279000
H         -29.353000      4.867000     -0.698000
H         -26.560000      3.014000     -4.351000
H         -25.689000      3.604000    -10.364000
H         -26.210000      5.931000    -11.276000
H         -26.766000      9.064000    -13.428000
H         -28.766000     10.505000    -12.738000
H         -31.484000      1.236000      0.563000
C         -29.919000      0.177000      1.442000
H         -31.064000     -0.162000     -0.347000
H         -29.452000      1.036000      1.941000
H         -29.085000     -0.440000      1.086000
C         -30.825000     -0.612000      2.372000
H         -31.362000      0.108000      3.002000
C         -30.066000     -1.635000      3.297000
H         -31.619000     -1.094000      1.788000
H         -29.859000     -2.482000      2.631000
H         -30.800000     -1.983000      4.035000
C         -28.784000     -1.063000      4.063000
H         -28.005000     -0.645000      3.414000
C         -28.254000     -2.033000      5.142000
H         -29.221000     -0.200000      4.580000
H         -28.001000     -2.929000      4.562000
H         -29.019000     -2.192000      5.913000
H         -27.436000     -1.639000      5.758000
C         -14.526000     -4.414000    -11.650000
C         -14.647000     -3.537000    -10.523000
N         -15.610000     -4.692000    -12.436000
C         -15.899000     -2.986000    -10.279000
C         -16.756000     -4.111000    -12.166000
C         -17.012000     -3.284000    -11.077000
C         -18.412000     -2.945000    -10.597000
C         -18.667000     -1.794000     -9.835000
C         -19.568000     -3.720000    -10.852000
N         -19.925000     -1.381000     -9.519000
N         -19.458000     -4.984000    -11.338000
C         -20.811000     -3.346000    -10.412000
C         -21.010000     -2.145000     -9.809000
S         -21.020000     -5.574000    -11.330000
N         -21.784000     -4.327000    -10.545000
C         -22.316000     -1.619000     -9.497000
S         -23.932000     -2.469000     -9.673000
C         -22.596000     -0.269000     -9.188000
C         -24.854000     -1.019000     -9.417000
S         -21.464000      0.972000     -8.757000
C         -23.951000     -0.013000     -9.057000
C         -26.305000     -0.839000     -9.199000
C         -22.842000      2.047000     -8.459000
C         -24.044000      1.360000     -8.731000
N         -26.876000      0.253000     -9.703000
S         -27.450000     -2.105000     -8.690000
C         -28.234000      0.197000     -9.624000
C         -28.677000     -0.930000     -9.041000
C         -13.275000     -5.278000    -11.909000
H         -13.813000     -3.384000     -9.845000
H         -16.140000     -2.432000     -9.376000
H         -17.574000     -4.396000    -12.827000
H         -17.905000     -1.107000     -9.469000
H         -22.689000      3.081000     -8.179000
H         -25.050000      1.757000     -8.652000
H         -28.768000      1.055000    -10.011000
H         -29.689000     -0.976000     -8.662000
H         -12.406000     -4.725000    -11.531000
C         -13.034000     -5.719000    -13.391000
H         -13.317000     -6.146000    -11.239000
H         -13.129000     -4.933000    -14.150000
H         -13.833000     -6.445000    -13.588000
C         -11.624000     -6.419000    -13.530000
H         -10.839000     -5.667000    -13.676000
C         -11.532000     -7.405000    -14.714000
H         -11.395000     -7.050000    -12.662000
H         -12.218000     -8.253000    -14.600000
H         -10.576000     -7.941000    -14.752000
C         -11.602000     -6.906000    -16.175000
H         -11.013000     -7.613000    -16.772000
C         -11.188000     -5.439000    -16.416000
H         -12.615000     -7.083000    -16.557000
H         -11.158000     -5.307000    -17.505000
H         -10.234000     -5.178000    -15.941000
H         -11.938000     -4.776000    -15.968000
$end

--------------------------------------------------------------

             Standard Nuclear Orientation (Angstroms)
    I     Atom           X                Y                Z
 ----------------------------------------------------------------
    1      C       7.8760866797     4.6167688919    -0.1721276652
    2      C       6.5765245862     4.2164107885    -0.4195215904
    3      N       8.8073104612     3.9349957429     0.5669296007
    4      C       6.1951451903     2.9644914977     0.1658858281
    5      C       8.3852363504     2.7073525787     1.0594574743
    6      C       7.0648672214     2.1092844853     0.8545820998
    7      C       6.6133931237     0.7211623585     1.2587010182
    8      C       5.2669244263     0.3103858419     1.1517678603
    9      C       7.5166156283    -0.2950835376     1.6930388888
   10      N       4.8777188949    -0.9285014658     1.2591889620
   11      N       8.9263135305    -0.2527544772     1.7689472226
   12      C       7.0182660587    -1.6255109947     1.9009486962
   13      C       5.6806732462    -1.9620810276     1.5058599963
   14      S       9.3324531701    -1.7600855836     2.2126628170
   15      N       7.9575396172    -2.5221197656     2.1465823545
   16      C       5.1874990253    -3.3861090405     1.2327072801
   17      S       6.1041072335    -4.8772055189     1.3788841757
   18      C       3.9753816841    -3.6210447157     0.6184648363
   19      C       4.8342870224    -5.8011464040     0.5712711049
   20      S       2.7345959106    -2.5334580809     0.0947091909
   21      C       3.7359440817    -4.9546219772     0.2867852889
   22      C       4.8688253934    -7.1315679193     0.0366107523
   23      C       2.0001897442    -3.8753320744    -0.7595699020
   24      C       2.5849355711    -5.0653393192    -0.5784840787
   25      N       3.7467897901    -7.8061077903    -0.2017441662
   26      S       6.3077723664    -8.0275597164    -0.3283430920
   27      C       3.9674071705    -8.9803852673    -0.8845518833
   28      C       5.2429677956    -9.2892864345    -1.0841168115
   29      C       8.4023609448     5.9633367508    -0.7603856011
   30      H       5.8755005766     4.8297232428    -0.9768367358
   31      H       5.1650449783     2.6515571785     0.0248515586
   32      H       9.1949236270     2.2680983922     1.6406685149
   33      H       4.4738867690     0.9863943735     0.8357382109
   34      H       1.1745173526    -3.6302392891    -1.4145429002
   35      H       2.2698700160    -5.9226230925    -1.1629618182
   36      H       3.1833535484    -9.6535397055    -1.2046518988
   37      H       5.6656701036   -10.1516685302    -1.5822140709
   38      H       9.4780445803     5.8249613967    -0.9252642771
   39      C       8.2749931350     7.1479616566     0.1451022639
   40      H       8.0207537404     6.1891793415    -1.7634484434
   41      H       8.6300583677     6.8598274139     1.1430393054
   42      H       7.1977936515     7.3200082641     0.2592172827
   43      C       8.9740987114     8.3890015289    -0.3834130417
   44      H      10.0305300497     8.3231809499    -0.0948138752
   45      C       8.3796457922     9.7431307072     0.1562117312
   46      H       8.9984546002     8.3567932147    -1.4798552039
   47      H       7.4732075491     9.8858761530    -0.4452925906
   48      H       9.0862032883    10.5279891425    -0.1425820790
   49      C       8.1477632380     9.8212458400     1.7365890618
   50      H       7.4892515330     9.0461642970     2.1469266496
   51      C       7.8179157811    11.2509912595     2.2193619800
   52      H       9.1502773269     9.5709788815     2.1045006694
   53      H       6.8969158217    11.4871696769     1.6723667057
   54      H       8.6586364728    11.9234580854     2.0050629214
   55      H       7.7478754623    11.3680323108     3.3080362867
   56      C     -11.3941459228     0.9085836398     2.0470288365
   57      C     -10.3041256445     1.0607805828     2.9649563300
   58      N     -11.1623424549     0.5985330217     0.7354375257
   59      C      -9.0217428675     0.8718166777     2.4645284572
   60      C      -9.9264510042     0.4026368192     0.3379780939
   61      C      -8.7856333132     0.5687773834     1.1166425331
   62      C      -7.3894941502     0.7006716820     0.5346456848
   63      C      -6.2472587881     0.4068135914     1.2958393527
   64      C      -7.0956550340     1.1188000400    -0.7847531367
   65      N      -4.9949609368     0.3673578157     0.7636905638
   66      N      -8.0561246465     1.6897728496    -1.5577215539
   67      C      -5.8121476319     1.1928560336    -1.2597788819
   68      C      -4.7629050788     0.7510984299    -0.5184616189
   69      S      -7.2519236469     2.1694066218    -2.9401904313
   70      N      -5.6911584685     1.8382138763    -2.4827481690
   71      C      -3.4214301726     0.6289337266    -1.0334148802
   72      S      -2.8025680404     1.1702178362    -2.6732176653
   73      C      -2.3854943761    -0.1212786001    -0.4330820637
   74      C      -1.2901667366     0.3313173545    -2.5088757105
   75      S      -2.3384673860    -0.7526240641     1.1813705889
   76      C      -1.2364658878    -0.1726646906    -1.2049726017
   77      C      -0.0689326343     0.3979589806    -3.3392197120
   78      C      -0.6745348690    -1.2779032686     0.8671678896
   79      C      -0.3120737544    -0.9335314103    -0.4522209703
   80      N       0.6372252033    -0.7202281099    -3.4925811777
   81      S       0.3472425113     1.6987037152    -4.4827770492
   82      C       1.6041502394    -0.5826689842    -4.4410928864
   83      C       1.6333781429     0.6471790495    -4.9822828194
   84      C     -12.8421762465     1.3127743694     2.3911451478
   85      H     -10.4769967592     1.3939496820     3.9836628279
   86      H      -8.1224378675     1.1054329106     3.0276270034
   87      H      -9.8234176351     0.1758742787    -0.7227918506
   88      H      -6.2532543695     0.1413060740     2.3522667337
   89      H      -0.1182881074    -1.8340011399     1.6103433049
   90      H       0.6369968724    -1.1334691501    -0.9371702928
   91      H       2.2235548617    -1.4523411350    -4.6174370500
   92      H       2.5107312233     0.9744631437    -5.5236123809
   93      H     -12.9855780951     1.1488049675     3.4665073868
   94      C     -13.9716061975     0.5967447738     1.5783871248
   95      H     -12.9205936477     2.4036606763     2.3022307136
   96      H     -13.8825521708    -0.4923913314     1.4848247139
   97      H     -13.8754453595     1.0085547361     0.5657412596
   98      C     -15.3887404865     0.9608667375     2.1755191056
   99      H     -15.6321555443     0.2932197482     3.0110079489
  100      C     -16.5419821293     0.8486609681     1.1557350212
  101      H     -15.4393276724     2.0095849211     2.4943562239
  102      H     -16.4328964141     1.5602380990     0.3284174923
  103      H     -17.5060587484     1.1787359246     1.5610531624
  104      C     -16.9648001390    -0.5205659038     0.5770600660
  105      H     -18.0348577640    -0.4428882324     0.3487579448
  106      C     -16.6311846628    -1.7577053010     1.4371489137
  107      H     -16.5311107260    -0.6258494863    -0.4250631102
  108      H     -17.1260177713    -2.6079392653     0.9508492110
  109      H     -16.9345112166    -1.6467107267     2.4857361567
  110      H     -15.5440928762    -1.9018205511     1.4524865179
 ----------------------------------------------------------------

    9   -5663.5038201510      8.86E-06 Convergence criterion met
 Total energy in the final basis set = -5663.5038201510

                    Orbital Energies (a.u.)
 --------------------------------------------------------------

 Alpha MOs
 -- Occupied --
-88.991 -88.989 -88.935 -88.933 -88.930 -88.922 -88.908 -88.905
-14.391 -14.386 -14.385 -14.385 -14.348 -14.348 -14.347 -14.337
-14.336 -14.326 -10.279 -10.271 -10.271 -10.265 -10.258 -10.256
-10.254 -10.249 -10.248 -10.248 -10.245 -10.243 -10.243 -10.241
-10.236 -10.234 -10.233 -10.230 -10.229 -10.229 -10.228 -10.228
-10.227 -10.227 -10.227 -10.226 -10.223 -10.218 -10.215 -10.213
-10.213 -10.212 -10.210 -10.204 -10.204 -10.203 -10.195 -10.192
-10.191 -10.182 -10.182 -10.180 -10.180 -10.178 -10.177 -10.174
-10.173 -10.172 -10.171 -10.170  -8.048  -8.043  -7.996  -7.991
 -7.988  -7.983  -7.968  -7.966  -6.013  -6.008  -6.007  -6.006
 -6.003  -6.001  -5.960  -5.956  -5.956  -5.953  -5.952  -5.952
 -5.948  -5.948  -5.947  -5.944  -5.943  -5.940  -5.932  -5.930
 -5.929  -5.926  -5.924  -5.922  -1.049  -1.027  -0.974  -0.970
 -0.965  -0.955  -0.939  -0.924  -0.915  -0.910  -0.906  -0.897
 -0.850  -0.842  -0.831  -0.829  -0.811  -0.809  -0.809  -0.803
 -0.797  -0.797  -0.796  -0.791  -0.780  -0.778  -0.769  -0.767
 -0.751  -0.748  -0.741  -0.738  -0.730  -0.724  -0.709  -0.706
 -0.697  -0.692  -0.680  -0.674  -0.658  -0.650  -0.645  -0.644
 -0.642  -0.632  -0.625  -0.624  -0.615  -0.611  -0.601  -0.596
 -0.592  -0.588  -0.584  -0.583  -0.578  -0.576  -0.558  -0.554
 -0.549  -0.544  -0.541  -0.539  -0.525  -0.519  -0.512  -0.510
 -0.507  -0.505  -0.502  -0.500  -0.486  -0.484  -0.478  -0.477
 -0.473  -0.470  -0.469  -0.468  -0.461  -0.459  -0.457  -0.448
 -0.444  -0.441  -0.441  -0.440  -0.438  -0.434  -0.434  -0.429
 -0.428  -0.427  -0.425  -0.424  -0.424  -0.418  -0.416  -0.414
 -0.412  -0.407  -0.403  -0.402  -0.402  -0.399  -0.397  -0.396
 -0.394  -0.393  -0.390  -0.388  -0.387  -0.386  -0.383  -0.383
 -0.377  -0.376  -0.370  -0.369  -0.368  -0.358  -0.358  -0.353
 -0.352  -0.349  -0.349  -0.348  -0.347  -0.345  -0.344  -0.342
 -0.340  -0.337  -0.335  -0.334  -0.330  -0.324  -0.318  -0.314
 -0.312  -0.311  -0.310  -0.309  -0.305  -0.301  -0.299  -0.299
 -0.296  -0.295  -0.290  -0.287  -0.286  -0.286  -0.283  -0.274
 -0.273  -0.269  -0.268  -0.267  -0.258  -0.255  -0.254  -0.249
 -0.249  -0.248  -0.233  -0.229  -0.197  -0.193

          Ground-State Mulliken Net Atomic Charges

     Atom                 Charge (a.u.)
  ----------------------------------------
      1 C                     0.252962
      2 C                    -0.099447
      3 N                    -0.477054
      4 C                    -0.106833
      5 C                     0.057331
      6 C                     0.060612
      7 C                     0.044451
      8 C                     0.060191
      9 C                     0.202976
     10 N                    -0.516612
     11 N                    -0.543973
     12 C                     0.156576
     13 C                     0.321048
     14 S                     0.617921
     15 N                    -0.526532
     16 C                    -0.216235
     17 S                     0.333245
     18 C                    -0.121888
     19 C                    -0.220301
     20 S                     0.295354
     21 C                     0.123743
     22 C                     0.052417
     23 C                    -0.316426
     24 C                    -0.036617
     25 N                    -0.440432
     26 S                     0.237370
     27 C                     0.139274
     28 C                    -0.299470
     29 C                    -0.237666
     30 H                     0.099491
     31 H                     0.090564
     32 H                     0.129202
     33 H                     0.115516
     34 H                     0.145608
     35 H                     0.120595
     36 H                     0.117931
     37 H                     0.130021
     38 H                     0.113637
     39 C                    -0.156134
     40 H                     0.090837
     41 H                     0.111696
     42 H                     0.084624
     43 C                    -0.190572
     44 H                     0.096401
     45 C                    -0.181088
     46 H                     0.088842
     47 H                     0.088980
     48 H                     0.091141
     49 C                    -0.184113
     50 H                     0.101776
     51 C                    -0.313806
     52 H                     0.095212
     53 H                     0.107222
     54 H                     0.103616
     55 H                     0.101215
     56 C                     0.253536
     57 C                    -0.120298
     58 N                    -0.476517
     59 C                    -0.081529
     60 C                     0.089737
     61 C                     0.061546
     62 C                     0.038199
     63 C                     0.052110
     64 C                     0.219119
     65 N                    -0.547702
     66 N                    -0.546285
     67 C                     0.208310
     68 C                     0.321920
     69 S                     0.601530
     70 N                    -0.563593
     71 C                    -0.230041
     72 S                     0.330632
     73 C                    -0.117795
     74 C                    -0.200562
     75 S                     0.299770
     76 C                     0.147095
     77 C                     0.016013
     78 C                    -0.320071
     79 C                    -0.078524
     80 N                    -0.402013
     81 S                     0.278150
     82 C                     0.131017
     83 C                    -0.309664
     84 C                    -0.237150
     85 H                     0.094014
     86 H                     0.094451
     87 H                     0.106955
     88 H                     0.116878
     89 H                     0.145579
     90 H                     0.107765
     91 H                     0.123255
     92 H                     0.132745
     93 H                     0.097720
     94 C                    -0.164504
     95 H                     0.123541
     96 H                     0.105272
     97 H                     0.119461
     98 C                    -0.183155
     99 H                     0.094542
    100 C                    -0.187185
    101 H                     0.091360
    102 H                     0.087800
    103 H                     0.085874
    104 C                    -0.181306
    105 H                     0.089178
    106 C                    -0.318916
    107 H                     0.093620
    108 H                     0.102101
    109 H                     0.102497
    110 H                     0.109116
  ----------------------------------------
  Sum of atomic charges =     0.000000

                    Cartesian Multipole Moments
 -----------------------------------------------------------------
    Charge (ESU x 10^10)
                 0.0000
    Dipole Moment (Debye)
         X       0.6025      Y      -0.1826      Z      -1.8492
       Tot       1.9534
    Quadrupole Moments (Debye-Ang)
        XX    -455.1559     XY     -24.2558     YY    -419.7456
        XZ     -21.9572     YZ       7.1458     ZZ    -423.7421

 Total job time:  79.96s(wall), 931.84s(cpu)
        *  Thank you very much for using Q-Chem.  Have a nice day.  *
