 Q-Chem 4.4, Q-Chem, Inc., Pleasanton, CA (2016)
 Q-Chem 4.4.2 for Intel X86 Linux

User input:
--------------------------------------------------------------
$comment
SP
$end

$rem
MEM_STATIC 5000
MEM_TOTAL 20000
JOBTYPE SP
EXCHANGE B3LYP
BASIS 6-31g(d,p)
$end

$molecule
0 1
C          -0.289000    -18.867000     -6.135000
C           0.213000    -18.196000     -4.960000
N          -1.017000    -20.026000     -5.984000
C          -0.030000    -18.645000     -3.711000
C          -1.214000    -20.508000     -4.727000
C          -0.844000    -19.812000     -3.568000
C          -1.356000    -20.308000     -2.258000
C          -2.766000    -20.425000     -2.037000
C          -0.562000    -20.584000     -1.112000
N          -3.295000    -20.571000     -0.813000
N           0.744000    -20.313000     -1.116000
C          -1.091000    -20.780000      0.173000
C          -2.536000    -20.863000      0.273000
S           1.302000    -20.674000      0.375000
N          -0.144000    -20.871000      1.077000
C          -3.332000    -21.050000      1.526000
S          -5.015000    -20.426000      1.644000
C          -3.023000    -21.762000      2.612000
C          -5.217000    -21.129000      3.246000
S          -1.638000    -22.756000      2.977000
C          -4.086000    -21.786000      3.555000
C          -6.474000    -21.107000      4.000000
C          -2.469000    -23.194000      4.506000
C          -3.670000    -22.566000      4.642000
N          -7.523000    -21.099000      3.245000
S          -6.641000    -21.334000      5.761000
C          -8.556000    -21.221000      4.048000
C          -8.349000    -21.332000      5.398000
C          -0.158000    -18.269000     -7.498000
H           0.846000    -17.328000     -5.113000
H           0.295000    -18.016000     -2.888000
H          -1.590000    -21.527000     -4.645000
H          -3.435000    -20.054000     -2.812000
H          -2.033000    -23.984000      5.103000
H          -4.308000    -22.780000      5.492000
H          -9.508000    -21.296000      3.538000
H          -9.003000    -21.354000      6.259000
H           0.646000    -17.523000     -7.485000
C          -1.491000    -17.623000     -8.069000
H           0.234000    -19.047000     -8.164000
H          -1.687000    -16.709000     -7.495000
H          -2.317000    -18.320000     -7.879000
C          -1.288000    -17.264000     -9.559000
H          -0.295000    -16.797000     -9.564000
C          -2.406000    -16.382000    -10.140000
H          -1.212000    -18.187000    -10.147000
H          -2.223000    -15.366000     -9.770000
H          -3.410000    -16.739000     -9.883000
C          -2.554000    -16.418000    -11.665000
H          -2.889000    -17.435000    -11.904000
C          -1.332000    -16.118000    -12.505000
H          -3.371000    -15.755000    -11.974000
H          -1.108000    -15.075000    -12.250000
H          -1.288000    -16.263000    -13.592000
H          -0.581000    -16.792000    -12.077000
C          -5.072000    -17.565000     -3.015000
C          -6.416000    -17.911000     -3.167000
N          -4.513000    -17.295000     -1.857000
C          -7.214000    -18.036000     -2.024000
C          -5.273000    -17.518000     -0.710000
C          -6.644000    -17.838000     -0.738000
C          -7.487000    -17.804000      0.500000
C          -7.091000    -17.072000      1.597000
C          -8.645000    -18.586000      0.735000
N          -7.652000    -17.097000      2.796000
N          -9.265000    -19.225000     -0.289000
C          -9.310000    -18.614000      1.968000
C          -8.705000    -17.864000      3.027000
S         -10.446000    -19.981000      0.498000
N         -10.357000    -19.438000      2.080000
C          -9.413000    -17.793000      4.336000
S         -11.139000    -18.150000      4.670000
C          -8.778000    -17.673000      5.522000
C         -10.778000    -18.162000      6.409000
S          -7.083000    -17.619000      5.728000
C          -9.466000    -17.899000      6.679000
C         -11.680000    -18.714000      7.416000
C          -7.248000    -17.984000      7.424000
C          -8.626000    -18.104000      7.815000
N         -12.840000    -19.179000      6.879000
S         -11.676000    -18.675000      9.173000
C         -13.745000    -19.581000      7.887000
C         -13.291000    -19.314000      9.163000
C          -4.124000    -17.479000     -4.189000
H          -6.966000    -18.105000     -4.083000
H          -8.284000    -18.091000     -2.202000
H          -4.808000    -17.397000      0.268000
H          -6.189000    -16.485000      1.429000
H          -6.324000    -17.974000      7.987000
H          -9.040000    -18.344000      8.788000
H         -14.689000    -20.050000      7.642000
H         -13.698000    -19.763000     10.059000
H          -3.780000    -16.442000     -4.281000
C          -4.583000    -18.054000     -5.521000
H          -3.278000    -18.120000     -3.912000
H          -4.077000    -17.625000     -6.394000
H          -5.579000    -17.621000     -5.676000
C          -4.742000    -19.574000     -5.481000
H          -3.745000    -20.026000     -5.415000
C          -5.457000    -20.095000     -6.793000
H          -5.283000    -19.944000     -4.602000
H          -4.848000    -19.958000     -7.695000
H          -6.338000    -19.466000     -6.968000
C          -5.897000    -21.492000     -6.565000
H          -6.600000    -21.496000     -5.723000
C          -4.736000    -22.491000     -6.380000
H          -6.579000    -21.741000     -7.387000
H          -4.120000    -22.172000     -5.529000
H          -4.072000    -22.548000     -7.252000
H          -5.073000    -23.517000     -6.188000
$end

--------------------------------------------------------------

             Standard Nuclear Orientation (Angstroms)
    I     Atom           X                Y                Z
 ----------------------------------------------------------------
    1      C      -8.2720529298    -0.8281950562    -0.6104941434
    2      C      -7.5626016151    -1.4948622495    -1.6759065919
    3      N      -7.7180654614    -0.8043345213     0.6499004614
    4      C      -6.3570729785    -2.0723750086    -1.4919753016
    5      C      -6.5287279855    -1.4351527052     0.8466916893
    6      C      -5.7643392596    -1.9807125275    -0.1938232582
    7      C      -4.3637218427    -2.3953565697     0.1071770240
    8      C      -3.4297883515    -1.4424343054     0.6271168206
    9      C      -3.7976832578    -3.6658332416    -0.1850854375
   10      N      -2.1061757268    -1.6599323798     0.6359036032
   11      N      -4.4982038950    -4.5754839108    -0.8639812300
   12      C      -2.4204046415    -3.9323520500    -0.1456730287
   13      C      -1.5721088966    -2.8815356070     0.3845091403
   14      S      -3.5117548915    -5.8572137156    -1.0850085386
   15      N      -2.1472789697    -5.1336534963    -0.5979817756
   16      C      -0.0818677630    -2.9203184335     0.5120679742
   17      S       0.8809179461    -1.4013476521     0.4725655256
   18      C       0.7044253670    -3.9619050792     0.7925343239
   19      C       2.3741324766    -2.2801387605     0.7879281008
   20      S       0.3224067203    -5.6250240466     1.1497220249
   21      C       2.0657720573    -3.5798648087     0.9359721865
   22      C       3.6752842554    -1.6389946246     1.0000300703
   23      C       2.0747914056    -5.8683633953     1.4500216693
   24      C       2.7991203419    -4.7336220577     1.2426797082
   25      N       3.5854707759    -0.4614934935     1.5253058313
   26      S       5.2676475379    -2.4241079351     0.8311654311
   27      C       4.8156969672    -0.0777632323     1.7823595319
   28      C       5.8578271437    -0.9161350800     1.4844210482
   29      C      -9.5209921878    -0.0485577577    -0.8651515848
   30      H      -8.0575923793    -1.5628309266    -2.6391751953
   31      H      -5.8520060278    -2.4532180318    -2.3742796522
   32      H      -6.2237196153    -1.5972508905     1.8797236696
   33      H      -3.7498916336    -0.4041830092     0.7005684010
   34      H       2.3816822213    -6.8129637761     1.8791523576
   35      H       3.8648366378    -4.7189411104     1.4411066381
   36      H       4.8860540027     0.8752472197     2.2911325324
   37      H       6.9342396002    -0.8152585881     1.5105200342
   38      H      -9.9604297763    -0.3780668099    -1.8145826726
   39      C      -9.3285398785     1.5272468526    -0.8720753757
   40      H     -10.2644340477    -0.3637134922    -0.1232115172
   41      H      -8.7713918636     1.7877135444    -1.7803876523
   42      H      -8.7068625824     1.7992563141    -0.0096873004
   43      C     -10.7144626217     2.2117375279    -0.9017513848
   44      H     -11.2583642055     1.6281158280    -1.6552232014
   45      C     -10.6523150671     3.7207083973    -1.1925323967
   46      H     -11.2200362011     2.0480914208     0.0579695681
   47      H     -10.4716488951     3.8215462497    -2.2694894348
   48      H      -9.8925765937     4.2403608137    -0.5973241826
   49      C     -11.8687561289     4.5342999255    -0.7373786115
   50      H     -11.8581140841     4.4908831960     0.3588133126
   51      C     -13.2364113631     4.0929054743    -1.2102148401
   52      H     -11.7258263601     5.5905902907    -0.9949844064
   53      H     -13.1760147570     4.2264444739    -2.2972151094
   54      H     -14.1777363976     4.5067709819    -0.8266101986
   55      H     -13.2431085103     3.0281901568    -0.9498354228
   56      C      -3.1526821667     1.9942064206    -0.9748921314
   57      C      -2.5619443268     2.9757141627    -0.1768774970
   58      N      -2.4729030422     1.1262567825    -1.6896709556
   59      C      -1.1663888935     3.0153359611    -0.0782207900
   60      C      -1.0903352671     1.0940281393    -1.5152987629
   61      C      -0.3809985184     2.0494198019    -0.7623756937
   62      C       1.1130922430     2.1451588810    -0.8169268191
   63      C       1.8098009452     1.6229797922    -1.8836859219
   64      C       1.9508107729     2.6212516231     0.2219554483
   65      N       3.1245561537     1.4918846342    -1.9684196304
   66      N       1.4305558948     3.3229147589     1.2603680376
   67      C       3.3492818861     2.5544846793     0.1661099406
   68      C       3.9030788174     1.8937756154    -0.9770341850
   69      S       2.7483963834     3.5698012031     2.1480670464
   70      N       4.0256438353     2.9838775241     1.2365702614
   71      C       5.3850992885     1.8658098519    -1.1274311243
   72      S       6.5901340247     2.9148981025    -0.3117190875
   73      C       6.0542017290     0.8636958257    -1.7375871718
   74      C       7.8780867819     1.8148228517    -0.8461329138
   75      S       5.3354138218    -0.5377628037    -2.3991267810
   76      C       7.4074934123     0.7691796163    -1.5867982261
   77      C       9.2285345144     1.8241680830    -0.2906506112
   78      C       6.8765809296    -1.3507158755    -2.4270059620
   79      C       7.9382197251    -0.5035071118    -1.9565536491
   80      N       9.3997471031     2.7926085214     0.6490319771
   81      S      10.7177367067     1.0161882258    -0.7575889166
   82      C      10.7471011966     2.8654021545     1.0685925017
   83      C      11.5824885427     2.0233198009     0.3624719089
   84      C      -4.6520613514     1.8355929634    -1.0801529115
   85      H      -3.0436538712     3.7547490977     0.4064341563
   86      H      -0.7526165809     3.9138554817     0.3701809767
   87      H      -0.5085410835     0.3226299571    -2.0190947258
   88      H       1.1708769352     1.2360267543    -2.6764282860
   89      H       6.8683773575    -2.3332389180    -2.8802456033
   90      H       8.9915369150    -0.7323800613    -1.8388036152
   91      H      11.0528959396     3.5266280559     1.8688373908
   92      H      12.5743972538     1.7391564475     0.6871783875
   93      H      -4.9493916294     2.0348107112    -2.1165292885
   94      C      -5.5210575790     2.5813375682    -0.0780348842
   95      H      -4.8382463069     0.7805720713    -0.8443731851
   96      H      -6.5447777647     2.7690182402    -0.4229681341
   97      H      -5.1446431641     3.6114566521    -0.1044330147
   98      C      -5.3474635442     2.0632940361     1.3498226052
   99      H      -5.7993188504     1.0661734460     1.4149863305
  100      C      -6.0667623023     3.0223362907     2.3827104261
  101      H      -4.3024025300     1.9244353245     1.6511326362
  102      H      -7.1585649688     3.0230556258     2.2767839424
  103      H      -5.7750615876     4.0521874492     2.1444998380
  104      C      -5.5901247805     2.6870006831     3.7456336459
  105      H      -4.5047361286     2.8425144236     3.7762269595
  106      C      -6.0070302199     1.2813418096     4.2256961274
  107      H      -5.9204963210     3.5029166460     4.3998085359
  108      H      -5.6198715163     0.5322938587     3.5225223897
  109      H      -7.0951416229     1.1453483724     4.2709549356
  110      H      -5.6288281579     1.0344380081     5.2252513850
 ----------------------------------------------------------------

   10   -5663.4806596507      4.19E-06 Convergence criterion met
 Total energy in the final basis set = -5663.4806596507

                    Orbital Energies (a.u.)
 --------------------------------------------------------------

 Alpha MOs
 -- Occupied --
-88.986 -88.980 -88.932 -88.928 -88.924 -88.912 -88.905 -88.904
-14.392 -14.388 -14.376 -14.373 -14.345 -14.345 -14.342 -14.340
-14.331 -14.327 -10.271 -10.267 -10.264 -10.260 -10.254 -10.252
-10.251 -10.248 -10.237 -10.237 -10.234 -10.234 -10.234 -10.233
-10.231 -10.230 -10.229 -10.228 -10.227 -10.225 -10.224 -10.224
-10.223 -10.221 -10.221 -10.218 -10.217 -10.216 -10.214 -10.213
-10.212 -10.207 -10.203 -10.202 -10.199 -10.196 -10.196 -10.191
-10.190 -10.188 -10.183 -10.181 -10.176 -10.175 -10.173 -10.171
-10.170 -10.170 -10.168 -10.167  -8.042  -8.037  -7.993  -7.988
 -7.982  -7.970  -7.966  -7.965  -6.007  -6.001  -6.001  -5.999
 -5.996  -5.994  -5.957  -5.954  -5.952  -5.950  -5.949  -5.946
 -5.945  -5.943  -5.938  -5.935  -5.931  -5.930  -5.930  -5.927
 -5.926  -5.926  -5.922  -5.921  -1.042  -1.042  -0.991  -0.965
 -0.952  -0.948  -0.935  -0.928  -0.921  -0.915  -0.912  -0.902
 -0.843  -0.839  -0.832  -0.826  -0.812  -0.808  -0.806  -0.804
 -0.803  -0.802  -0.796  -0.792  -0.787  -0.781  -0.768  -0.767
 -0.747  -0.745  -0.740  -0.738  -0.725  -0.717  -0.711  -0.702
 -0.690  -0.689  -0.672  -0.669  -0.659  -0.655  -0.645  -0.638
 -0.637  -0.630  -0.621  -0.619  -0.613  -0.611  -0.603  -0.601
 -0.596  -0.595  -0.586  -0.585  -0.573  -0.571  -0.563  -0.558
 -0.543  -0.542  -0.540  -0.538  -0.527  -0.526  -0.519  -0.512
 -0.507  -0.503  -0.495  -0.492  -0.489  -0.482  -0.476  -0.475
 -0.471  -0.469  -0.464  -0.463  -0.463  -0.459  -0.453  -0.447
 -0.445  -0.443  -0.440  -0.440  -0.437  -0.437  -0.433  -0.432
 -0.428  -0.427  -0.423  -0.422  -0.418  -0.414  -0.413  -0.410
 -0.408  -0.406  -0.405  -0.401  -0.399  -0.398  -0.397  -0.395
 -0.392  -0.389  -0.389  -0.385  -0.383  -0.380  -0.378  -0.376
 -0.376  -0.375  -0.373  -0.370  -0.362  -0.360  -0.357  -0.356
 -0.351  -0.351  -0.349  -0.348  -0.344  -0.343  -0.341  -0.338
 -0.337  -0.337  -0.333  -0.331  -0.327  -0.326  -0.324  -0.320
 -0.317  -0.312  -0.311  -0.310  -0.303  -0.302  -0.301  -0.300
 -0.294  -0.294  -0.292  -0.288  -0.287  -0.281  -0.279  -0.278
 -0.267  -0.267  -0.263  -0.259  -0.254  -0.252  -0.251  -0.248
 -0.245  -0.237  -0.232  -0.230  -0.193  -0.190

          Ground-State Mulliken Net Atomic Charges

     Atom                 Charge (a.u.)
  ----------------------------------------
      1 C                     0.259782
      2 C                    -0.117329
      3 N                    -0.483961
      4 C                    -0.026340
      5 C                     0.061042
      6 C                     0.017759
      7 C                    -0.015788
      8 C                     0.077583
      9 C                     0.205361
     10 N                    -0.489288
     11 N                    -0.534159
     12 C                     0.254800
     13 C                     0.271205
     14 S                     0.597192
     15 N                    -0.560576
     16 C                    -0.247062
     17 S                     0.327867
     18 C                    -0.096141
     19 C                    -0.232123
     20 S                     0.264414
     21 C                     0.159316
     22 C                     0.046478
     23 C                    -0.303520
     24 C                    -0.082115
     25 N                    -0.409085
     26 S                     0.273306
     27 C                     0.134776
     28 C                    -0.316020
     29 C                    -0.233639
     30 H                     0.085475
     31 H                     0.110933
     32 H                     0.114516
     33 H                     0.116105
     34 H                     0.129218
     35 H                     0.101466
     36 H                     0.122155
     37 H                     0.144114
     38 H                     0.095482
     39 C                    -0.185102
     40 H                     0.119910
     41 H                     0.097585
     42 H                     0.127342
     43 C                    -0.176765
     44 H                     0.098110
     45 C                    -0.171394
     46 H                     0.097588
     47 H                     0.090980
     48 H                     0.100422
     49 C                    -0.190800
     50 H                     0.089334
     51 C                    -0.310485
     52 H                     0.089278
     53 H                     0.097933
     54 H                     0.103088
     55 H                     0.102678
     56 C                     0.274257
     57 C                    -0.111139
     58 N                    -0.497201
     59 C                    -0.078150
     60 C                     0.060233
     61 C                     0.058730
     62 C                     0.054974
     63 C                     0.050155
     64 C                     0.195487
     65 N                    -0.506582
     66 N                    -0.509054
     67 C                     0.229595
     68 C                     0.269974
     69 S                     0.590740
     70 N                    -0.560284
     71 C                    -0.190551
     72 S                     0.362370
     73 C                    -0.134484
     74 C                    -0.250582
     75 S                     0.294353
     76 C                     0.173192
     77 C                     0.052454
     78 C                    -0.314168
     79 C                    -0.092520
     80 N                    -0.441364
     81 S                     0.275482
     82 C                     0.116539
     83 C                    -0.314729
     84 C                    -0.227682
     85 H                     0.098984
     86 H                     0.115924
     87 H                     0.111344
     88 H                     0.102593
     89 H                     0.139082
     90 H                     0.106201
     91 H                     0.121631
     92 H                     0.134482
     93 H                     0.111782
     94 C                    -0.192419
     95 H                     0.119041
     96 H                     0.095731
     97 H                     0.081819
     98 C                    -0.199569
     99 H                     0.122368
    100 C                    -0.171145
    101 H                     0.100335
    102 H                     0.095126
    103 H                     0.081455
    104 C                    -0.176233
    105 H                     0.092140
    106 C                    -0.317069
    107 H                     0.081168
    108 H                     0.105979
    109 H                     0.108795
    110 H                     0.097511
  ----------------------------------------
  Sum of atomic charges =     0.000000

                    Cartesian Multipole Moments
 -----------------------------------------------------------------
    Charge (ESU x 10^10)
                 0.0000
    Dipole Moment (Debye)
         X       2.1672      Y      -1.8998      Z       0.0642
       Tot       2.8828
    Quadrupole Moments (Debye-Ang)
        XX    -386.2337     XY     -17.5189     YY    -424.2127
        XZ      21.9503     YZ       7.4123     ZZ    -448.9076

 Total job time:  106.78s(wall), 1282.76s(cpu)
        *  Thank you very much for using Q-Chem.  Have a nice day.  *
